 Entering Gaussian System
 *********************************************
 Gaussian 98:
 frequency output generated by the xtb code
 *********************************************
                         Standard orientation:
 --------------------------------------------------------------------
  Center     Atomic     Atomic              Coordinates (Angstroms)
  Number     Number      Type              X           Y           Z
 --------------------------------------------------------------------
    1          7             0       -1.984646   -1.091410   -0.131921
    2          6             0       -1.924080    0.364889   -0.473974
    3          6             0       -0.999142    1.153366    0.470022
    4          6             0        0.476496    1.210258    0.032126
    5          6             0        1.219600   -0.101066    0.067836
    6          8             0        2.467358   -0.067984   -0.425339
    7          8             0        0.721606   -1.103903    0.513319
    8          1             0       -2.357782   -1.660309   -0.897959
    9          1             0       -2.547154   -1.252886    0.708631
   10          1             0       -1.016057   -1.377585    0.075296
   11          1             0       -2.946568    0.766755   -0.453101
   12          1             0       -1.579853    0.486336   -1.508975
   13          1             0       -1.054951    0.714718    1.473333
   14          1             0       -1.377367    2.179538    0.576191
   15          1             0        1.027972    1.914276    0.667033
   16          1             0        0.549175    1.615766   -0.982875
   17          1             0        2.884864   -0.927596   -0.364958
 --------------------------------------------------------------------
     1 basis functions        1 primitive gaussians
     1 alpha electrons        1 beta electrons

 Harmonic frequencies (cm**-1), IR intensities (km*mol⁻¹),
 Raman scattering activities (A**4/amu), Raman depolarization ratios,
 reduced masses (AMU), force constants (mDyne/A) and normal coordinates:
                      1                      2                      3
                        a                      a                      a 
 Frequencies --    57.4354               120.1287               203.0837
 Red. masses --    13.4248                 8.6636                11.3569
 Frc consts  --     0.0000                 0.0000                 0.0000
 IR Inten    --    11.9238                 1.4819                48.4962
 Raman Activ --     0.0000                 0.0000                 0.0000
 Depolar     --     0.0000                 0.0000                 0.0000
 Atom AN      X      Y      Z        X      Y      Z        X      Y      Z
   1   7     0.11   0.01  -0.39     0.08  -0.04   0.11     0.53  -0.14  -0.06
   2   6    -0.08   0.12   0.06     0.32  -0.13  -0.25     0.03  -0.04   0.20
   3   6     0.01  -0.08   0.12    -0.05   0.04  -0.02     0.04   0.13   0.05
   4   6    -0.05  -0.04  -0.08     0.07   0.13   0.39     0.01   0.14  -0.08
   5   6    -0.01  -0.02   0.04    -0.08   0.04   0.05    -0.13   0.07  -0.04
   6   8    -0.16  -0.14  -0.35    -0.25  -0.08  -0.36    -0.10  -0.26   0.13
   7   8     0.17   0.16   0.65    -0.08   0.07   0.11    -0.44   0.15  -0.18
   8   1     0.08   0.05  -0.16     0.10  -0.06   0.02     0.27  -0.04  -0.07
   9   1     0.01  -0.09  -0.14    -0.09   0.06  -0.03     0.10  -0.15  -0.07
  10   1     0.03   0.02  -0.09    -0.01  -0.01   0.17     0.17   0.07   0.05
  11   1    -0.03   0.01   0.10     0.09  -0.02  -0.23    -0.02  -0.09   0.14
  12   1    -0.08   0.13   0.01     0.22  -0.12  -0.04    -0.07   0.06   0.04
  13   1     0.04  -0.09   0.01    -0.09   0.03  -0.00     0.04   0.08   0.03
  14   1     0.01  -0.03   0.11    -0.04   0.01  -0.05    -0.01   0.03  -0.02
  15   1     0.00  -0.00  -0.04    -0.01  -0.05   0.24     0.02   0.06  -0.06
  16   1    -0.04  -0.02  -0.03     0.10   0.15   0.16    -0.03   0.01  -0.04
  17   1     0.00  -0.01   0.03    -0.12  -0.06  -0.24    -0.13  -0.12  -0.00
                      4                      5                      6
                        a                      a                      a 
 Frequencies --   221.9031               249.6086               332.5440
 Red. masses --    10.7819                 1.9980                 8.6662
 Frc consts  --     0.0000                 0.0000                 0.0000
 IR Inten    --    23.8803                 0.4385                29.6290
 Raman Activ --     0.0000                 0.0000                 0.0000
 Depolar     --     0.0000                 0.0000                 0.0000
 Atom AN      X      Y      Z        X      Y      Z        X      Y      Z
   1   7     0.34   0.16   0.05    -0.12   0.05   0.07     0.21   0.17   0.07
   2   6    -0.17   0.15  -0.02    -0.01   0.05   0.03     0.37   0.07  -0.12
   3   6    -0.20   0.29  -0.16     0.02  -0.04   0.07     0.07  -0.08   0.24
   4   6    -0.10  -0.21   0.11    -0.04  -0.06  -0.12    -0.16  -0.10  -0.22
   5   6    -0.06  -0.20   0.07     0.02  -0.03  -0.05    -0.23  -0.11  -0.05
   6   8    -0.14   0.14  -0.05     0.06   0.08   0.05    -0.28   0.21   0.04
   7   8     0.25  -0.43   0.02     0.07  -0.05  -0.05    -0.10  -0.17   0.03
   8   1     0.16  -0.01   0.02     0.47  -0.05  -0.18    -0.03   0.03   0.07
   9   1     0.10   0.00   0.01    -0.49  -0.05  -0.30     0.11   0.12   0.07
  10   1     0.12   0.13   0.04    -0.10   0.13   0.52     0.05  -0.01  -0.03
  11   1    -0.08  -0.03   0.04     0.01   0.04  -0.03     0.11   0.03  -0.19
  12   1    -0.10   0.07  -0.02     0.03   0.01   0.02     0.26  -0.02   0.01
  13   1    -0.16   0.21   0.00     0.03  -0.04   0.01     0.08  -0.14   0.02
  14   1     0.01   0.12  -0.19     0.02  -0.01   0.06     0.00  -0.05   0.20
  15   1    -0.02  -0.09   0.05     0.01   0.01  -0.09     0.05   0.02  -0.21
  16   1     0.04  -0.06   0.04    -0.06  -0.06  -0.05    -0.16  -0.14  -0.12
  17   1     0.04   0.07  -0.07     0.03   0.03  -0.01     0.09   0.14   0.15
                      7                      8                      9
                        a                      a                      a 
 Frequencies --   390.2893               402.8025               471.6354
 Red. masses --     4.8916                 7.1066                 9.0051
 Frc consts  --     0.0000                 0.0000                 0.0000
 IR Inten    --   160.7085                23.9686                58.1955
 Raman Activ --     0.0000                 0.0000                 0.0000
 Depolar     --     0.0000                 0.0000                 0.0000
 Atom AN      X      Y      Z        X      Y      Z        X      Y      Z
   1   7    -0.14  -0.14  -0.15    -0.16  -0.25  -0.11    -0.09  -0.08  -0.09
   2   6     0.14  -0.05   0.13     0.17  -0.11   0.23     0.18  -0.03   0.09
   3   6     0.13   0.14   0.02     0.20   0.25  -0.07    -0.28   0.30   0.26
   4   6     0.07  -0.02  -0.08     0.18   0.02   0.01    -0.27   0.06   0.02
   5   6     0.03  -0.00   0.32    -0.14  -0.12  -0.10     0.03   0.12  -0.06
   6   8    -0.10   0.20   0.07    -0.19   0.21  -0.08     0.16  -0.32  -0.04
   7   8    -0.03  -0.11   0.03    -0.12  -0.08   0.05     0.32  -0.01  -0.11
   8   1    -0.09   0.05  -0.08    -0.05   0.05  -0.12    -0.06   0.06  -0.07
   9   1    -0.04  -0.06  -0.04    -0.10  -0.12  -0.08    -0.04  -0.04  -0.04
  10   1    -0.06  -0.12  -0.07    -0.08  -0.16  -0.02    -0.04  -0.10  -0.05
  11   1     0.05   0.00   0.03     0.06  -0.01   0.10     0.04  -0.02  -0.16
  12   1     0.04  -0.01   0.04     0.02  -0.02   0.06     0.22  -0.03   0.08
  13   1     0.03   0.14   0.05     0.04   0.23   0.05    -0.13   0.22   0.13
  14   1     0.03   0.05  -0.10     0.05   0.09  -0.19    -0.08   0.10  -0.09
  15   1     0.04   0.16  -0.23     0.10  -0.10   0.08    -0.02   0.09  -0.12
  16   1    -0.04  -0.25  -0.13     0.12   0.08   0.04    -0.20  -0.06  -0.04
  17   1    -0.19  -0.07  -0.63     0.24   0.22   0.38    -0.08  -0.13   0.21
                     10                     11                     12
                        a                      a                      a 
 Frequencies --   581.2951               603.6682               788.0841
 Red. masses --     8.8183                11.3928                 7.3050
 Frc consts  --     0.0000                 0.0000                 0.0000
 IR Inten    --   116.3976                62.4675                63.1700
 Raman Activ --     0.0000                 0.0000                 0.0000
 Depolar     --     0.0000                 0.0000                 0.0000
 Atom AN      X      Y      Z        X      Y      Z        X      Y      Z
   1   7     0.00   0.02   0.01    -0.03  -0.04   0.02     0.03   0.17  -0.04
   2   6    -0.07  -0.01  -0.08    -0.01  -0.00  -0.02     0.19  -0.04   0.04
   3   6     0.00  -0.07  -0.04     0.16   0.00  -0.15     0.18  -0.37  -0.07
   4   6     0.09   0.03   0.17     0.07   0.36  -0.08    -0.10  -0.34   0.13
   5   6     0.24   0.13   0.56    -0.23   0.18   0.12    -0.09   0.22  -0.08
   6   8    -0.11  -0.07  -0.34    -0.37  -0.14   0.15    -0.16   0.04   0.06
   7   8    -0.13  -0.03  -0.22     0.46  -0.26  -0.12     0.11   0.21  -0.07
   8   1     0.04  -0.04   0.02    -0.00  -0.01  -0.00    -0.03   0.03   0.03
   9   1    -0.00   0.01  -0.00    -0.03  -0.00  -0.01    -0.04   0.17  -0.02
  10   1     0.01   0.05   0.02    -0.02  -0.03   0.02    -0.03  -0.04   0.06
  11   1    -0.02   0.00   0.02     0.00   0.01   0.09     0.07   0.03   0.23
  12   1    -0.06  -0.00  -0.03    -0.10   0.00  -0.03    -0.12   0.10  -0.03
  13   1    -0.04  -0.02  -0.01     0.17  -0.14  -0.09    -0.16   0.18   0.09
  14   1    -0.00  -0.02  -0.02    -0.04  -0.05   0.13     0.15  -0.03  -0.37
  15   1    -0.04   0.26  -0.18     0.00   0.08   0.02    -0.04  -0.04  -0.01
  16   1    -0.03  -0.29  -0.08     0.11   0.10  -0.02    -0.11  -0.09   0.03
  17   1     0.17   0.11   0.34    -0.26  -0.11   0.15    -0.25  -0.09   0.13
                     13                     14                     15
                        a                      a                      a 
 Frequencies --   840.3475               856.4335               913.7868
 Red. masses --     4.9109                 6.3251                 7.9731
 Frc consts  --     0.0000                 0.0000                 0.0000
 IR Inten    --    22.4461                37.8089                79.1039
 Raman Activ --     0.0000                 0.0000                 0.0000
 Depolar     --     0.0000                 0.0000                 0.0000
 Atom AN      X      Y      Z        X      Y      Z        X      Y      Z
   1   7     0.03  -0.15  -0.07     0.15   0.14   0.04    -0.02   0.34  -0.05
   2   6     0.07  -0.00  -0.24     0.30  -0.04   0.16    -0.03  -0.23   0.14
   3   6    -0.02   0.11   0.12    -0.14  -0.01  -0.19    -0.00  -0.35  -0.02
   4   6     0.09   0.24   0.23    -0.31   0.07  -0.18     0.05   0.45   0.03
   5   6    -0.09  -0.14  -0.23     0.08  -0.05   0.21    -0.01  -0.15  -0.12
   6   8     0.10  -0.01   0.03     0.15  -0.05  -0.09    -0.03  -0.09   0.06
   7   8    -0.01  -0.07   0.09    -0.10  -0.09  -0.01     0.01  -0.15   0.08
   8   1    -0.08  -0.21   0.15    -0.12   0.24  -0.07     0.05   0.10  -0.05
   9   1    -0.07   0.35   0.00    -0.15   0.20  -0.08     0.05  -0.06  -0.00
  10   1    -0.07  -0.16   0.15    -0.09  -0.31   0.08     0.04   0.18  -0.06
  11   1    -0.02  -0.10   0.28     0.05  -0.10   0.25     0.03   0.05  -0.03
  12   1    -0.29   0.19  -0.14    -0.10   0.13  -0.00     0.07  -0.08   0.06
  13   1    -0.10  -0.02   0.00     0.08  -0.09  -0.08    -0.04   0.17   0.10
  14   1    -0.06   0.01   0.04    -0.13  -0.05   0.05    -0.11  -0.10  -0.30
  15   1     0.17   0.16  -0.18    -0.25  -0.04   0.16    -0.05   0.22  -0.05
  16   1    -0.21  -0.10  -0.03     0.08   0.14   0.02    -0.15   0.08  -0.02
  17   1     0.11   0.04  -0.04     0.12   0.03  -0.07     0.26   0.10  -0.13
                     16                     17                     18
                        a                      a                      a 
 Frequencies --   932.3734               990.0776              1020.7083
 Red. masses --     4.6152                 7.1655                 9.9859
 Frc consts  --     0.0000                 0.0000                 0.0000
 IR Inten    --    91.9123                64.6403               250.9202
 Raman Activ --     0.0000                 0.0000                 0.0000
 Depolar     --     0.0000                 0.0000                 0.0000
 Atom AN      X      Y      Z        X      Y      Z        X      Y      Z
   1   7     0.05   0.08   0.23    -0.17  -0.29   0.08     0.08  -0.10   0.08
   2   6     0.08   0.02  -0.01     0.25   0.38  -0.07    -0.04   0.12  -0.05
   3   6    -0.05   0.04  -0.25     0.20  -0.03  -0.11    -0.08  -0.00   0.03
   4   6     0.04  -0.03   0.32    -0.36   0.09   0.03     0.09  -0.09  -0.04
   5   6    -0.11  -0.04  -0.21     0.03  -0.02   0.03     0.28   0.05  -0.08
   6   8     0.08   0.04   0.00     0.04  -0.07  -0.00    -0.49  -0.25   0.26
   7   8    -0.00   0.03   0.05    -0.01  -0.06   0.01     0.18   0.25  -0.14
   8   1    -0.01   0.42  -0.22     0.11  -0.20   0.04    -0.08   0.13  -0.05
   9   1    -0.04  -0.37  -0.05     0.11  -0.26   0.09    -0.07  -0.00  -0.03
  10   1    -0.00  -0.13  -0.11     0.06   0.19  -0.06    -0.02  -0.16   0.02
  11   1     0.04   0.04   0.06     0.14   0.27   0.16    -0.04  -0.05  -0.04
  12   1    -0.11  -0.20  -0.07    -0.07  -0.01  -0.08     0.00   0.03  -0.01
  13   1    -0.14  -0.21  -0.17    -0.07  -0.00  -0.04    -0.12  -0.03  -0.01
  14   1    -0.00  -0.01   0.13     0.10   0.02  -0.04     0.09   0.04   0.03
  15   1     0.09   0.13  -0.15    -0.20   0.05   0.06     0.00  -0.03   0.02
  16   1    -0.12  -0.22  -0.02    -0.20   0.11   0.04    -0.06   0.03   0.01
  17   1    -0.07  -0.03   0.04     0.15   0.05  -0.08     0.42   0.19  -0.23
                     19                     20                     21
                        a                      a                      a 
 Frequencies --  1064.2389              1074.2704              1100.3229
 Red. masses --     7.9105                 5.6720                 7.7922
 Frc consts  --     0.0000                 0.0000                 0.0000
 IR Inten    --    97.7845                22.4568                 5.8908
 Raman Activ --     0.0000                 0.0000                 0.0000
 Depolar     --     0.0000                 0.0000                 0.0000
 Atom AN      X      Y      Z        X      Y      Z        X      Y      Z
   1   7     0.19  -0.28   0.13    -0.03  -0.03  -0.16     0.12   0.07  -0.05
   2   6    -0.20   0.47   0.01     0.05   0.06   0.32    -0.30  -0.21  -0.09
   3   6     0.01  -0.30  -0.04    -0.07   0.05  -0.29     0.50   0.17   0.00
   4   6     0.11   0.16  -0.02    -0.05  -0.09   0.27    -0.34  -0.02   0.18
   5   6    -0.14  -0.03  -0.02    -0.02  -0.04  -0.27    -0.07   0.03  -0.01
   6   8     0.12   0.06  -0.05    -0.06  -0.04   0.07     0.06  -0.06  -0.01
   7   8    -0.05  -0.10   0.05     0.06   0.11   0.01     0.00  -0.01   0.01
   8   1    -0.11   0.11  -0.02     0.01  -0.21   0.10    -0.06   0.08  -0.02
   9   1    -0.10   0.03  -0.04     0.04   0.17   0.03    -0.06   0.11  -0.05
  10   1    -0.04  -0.31   0.07     0.00   0.08   0.05    -0.02  -0.11   0.03
  11   1    -0.12  -0.03  -0.24     0.02   0.04  -0.07    -0.10  -0.09  -0.17
  12   1     0.22   0.18   0.10     0.19   0.08   0.15     0.00  -0.16  -0.01
  13   1    -0.08   0.09   0.05     0.23  -0.07  -0.09     0.24   0.05   0.01
  14   1     0.13  -0.02  -0.17    -0.12  -0.04   0.09     0.32   0.11   0.06
  15   1    -0.11   0.15  -0.00    -0.28   0.23   0.00    -0.19   0.08   0.04
  16   1     0.04   0.00  -0.02     0.25  -0.36  -0.05    -0.20   0.02   0.05
  17   1    -0.08  -0.04   0.05     0.08   0.03  -0.02     0.10   0.03  -0.04
                     22                     23                     24
                        a                      a                      a 
 Frequencies --  1163.1354              1170.1677              1222.1568
 Red. masses --     7.5901                 5.3591                 2.9038
 Frc consts  --     0.0000                 0.0000                 0.0000
 IR Inten    --   132.4072                47.6992                28.4392
 Raman Activ --     0.0000                 0.0000                 0.0000
 Depolar     --     0.0000                 0.0000                 0.0000
 Atom AN      X      Y      Z        X      Y      Z        X      Y      Z
   1   7     0.02  -0.01  -0.08    -0.06   0.02   0.15    -0.03  -0.05   0.12
   2   6    -0.01   0.00   0.16     0.05  -0.05  -0.34    -0.03   0.10  -0.13
   3   6     0.01   0.07  -0.15     0.03   0.04   0.32     0.09  -0.02  -0.12
   4   6     0.05   0.06  -0.00     0.03   0.01  -0.07    -0.18  -0.03   0.17
   5   6     0.56  -0.28  -0.09     0.21  -0.16  -0.18     0.16  -0.04   0.01
   6   8    -0.22   0.17   0.03    -0.11   0.07   0.04    -0.06   0.00   0.01
   7   8    -0.10  -0.06   0.05    -0.03  -0.00   0.03    -0.01   0.05  -0.02
   8   1    -0.04  -0.04   0.03     0.03   0.13  -0.08     0.01   0.09  -0.05
   9   1    -0.01   0.11  -0.01     0.00  -0.18   0.01    -0.00  -0.10   0.02
  10   1    -0.01  -0.00   0.04     0.01   0.02  -0.06     0.01  -0.00  -0.03
  11   1    -0.01  -0.01  -0.05    -0.02  -0.10   0.09    -0.06  -0.09  -0.05
  12   1     0.06  -0.06   0.06    -0.15   0.12  -0.13     0.06   0.28   0.01
  13   1    -0.09  -0.08  -0.09     0.15   0.15   0.15     0.52   0.14   0.05
  14   1     0.04   0.02   0.06    -0.04   0.01  -0.05    -0.44  -0.17  -0.14
  15   1    -0.09   0.09   0.01    -0.45   0.24   0.11     0.32  -0.19  -0.07
  16   1    -0.38   0.21   0.05     0.31  -0.14  -0.05    -0.18  -0.01   0.04
  17   1    -0.36  -0.11   0.18    -0.15  -0.05   0.08    -0.03  -0.01   0.01
                     25                     26                     27
                        a                      a                      a 
 Frequencies --  1254.9400              1315.9861              1329.8766
 Red. masses --     2.5954                 3.5964                 5.5566
 Frc consts  --     0.0000                 0.0000                 0.0000
 IR Inten    --     6.6636                37.0183               118.3414
 Raman Activ --     0.0000                 0.0000                 0.0000
 Depolar     --     0.0000                 0.0000                 0.0000
 Atom AN      X      Y      Z        X      Y      Z        X      Y      Z
   1   7    -0.23   0.10   0.08    -0.05   0.18  -0.09     0.03  -0.09   0.05
   2   6     0.15  -0.11   0.01     0.07   0.27   0.10    -0.02  -0.09  -0.06
   3   6     0.04   0.02  -0.12     0.15   0.04   0.07    -0.16   0.09  -0.04
   4   6     0.04  -0.01   0.01     0.16  -0.16  -0.04     0.41  -0.32  -0.02
   5   6    -0.08   0.04   0.02    -0.10   0.04   0.02    -0.23   0.12   0.06
   6   8     0.03  -0.01  -0.01     0.02  -0.02  -0.00     0.06  -0.02  -0.02
   7   8     0.01  -0.02   0.00     0.02   0.02  -0.01     0.02  -0.03   0.00
   8   1     0.15  -0.05  -0.03     0.15  -0.23   0.09    -0.05   0.11  -0.05
   9   1     0.09  -0.15   0.09     0.08  -0.13   0.01    -0.04   0.06  -0.00
  10   1    -0.01   0.10  -0.08    -0.11  -0.27  -0.00     0.05   0.11  -0.01
  11   1    -0.18  -0.56  -0.05    -0.16  -0.36  -0.12     0.09   0.22   0.05
  12   1     0.13   0.53   0.10    -0.15  -0.37  -0.09     0.03   0.14   0.01
  13   1    -0.14  -0.10  -0.09    -0.05  -0.02  -0.00     0.24   0.04   0.01
  14   1     0.25   0.08   0.07    -0.37  -0.13  -0.10    -0.10  -0.01   0.05
  15   1    -0.04   0.05  -0.02    -0.18   0.07   0.05    -0.30   0.25  -0.02
  16   1    -0.11   0.07   0.02    -0.14   0.08   0.03    -0.38   0.29   0.11
  17   1     0.03   0.01  -0.02     0.04   0.01  -0.01     0.06   0.02  -0.03
                     28                     29                     30
                        a                      a                      a 
 Frequencies --  1348.7602              1366.1127              1390.9107
 Red. masses --     3.4647                 3.1318                 1.8998
 Frc consts  --     0.0000                 0.0000                 0.0000
 IR Inten    --   102.5050               144.5409               141.2780
 Raman Activ --     0.0000                 0.0000                 0.0000
 Depolar     --     0.0000                 0.0000                 0.0000
 Atom AN      X      Y      Z        X      Y      Z        X      Y      Z
   1   7     0.04  -0.17   0.02     0.04   0.18   0.10    -0.14  -0.17   0.12
   2   6    -0.06  -0.03   0.04    -0.20  -0.21  -0.07    -0.01   0.04   0.04
   3   6     0.39   0.12   0.06     0.19   0.12   0.03     0.02  -0.01   0.02
   4   6    -0.05  -0.06  -0.05    -0.03  -0.03  -0.03    -0.01   0.01  -0.00
   5   6    -0.03   0.02  -0.00     0.02  -0.03  -0.00     0.00  -0.01  -0.00
   6   8     0.02  -0.01  -0.01    -0.01  -0.00   0.01    -0.00   0.00   0.00
   7   8     0.01  -0.00   0.00     0.00   0.03  -0.01    -0.00   0.00   0.00
   8   1    -0.25   0.22  -0.05     0.23  -0.24   0.10     0.52   0.15  -0.37
   9   1    -0.12   0.14  -0.05    -0.05  -0.14  -0.05     0.08   0.55   0.18
  10   1     0.13   0.39   0.05    -0.08  -0.43  -0.23     0.05  -0.05  -0.37
  11   1    -0.04  -0.07  -0.08     0.13   0.37   0.06    -0.01   0.01  -0.06
  12   1     0.03   0.11   0.04     0.20   0.31   0.11    -0.07  -0.09  -0.02
  13   1    -0.44  -0.13  -0.08    -0.24  -0.10  -0.07    -0.03  -0.01   0.00
  14   1    -0.43  -0.15  -0.04    -0.20  -0.06  -0.02    -0.03  -0.01  -0.02
  15   1    -0.08   0.01   0.02    -0.04   0.02   0.00     0.00  -0.01   0.01
  16   1     0.07  -0.01  -0.01     0.03   0.01   0.00     0.01  -0.02  -0.01
  17   1     0.01   0.00  -0.01    -0.00  -0.00  -0.00    -0.00  -0.00  -0.00
                     31                     32                     33
                        a                      a                      a 
 Frequencies --  1407.5238              1421.7463              1474.3213
 Red. masses --     1.6178                 1.9469                 1.8741
 Frc consts  --     0.0000                 0.0000                 0.0000
 IR Inten    --    96.7003                56.5801                 6.4537
 Raman Activ --     0.0000                 0.0000                 0.0000
 Depolar     --     0.0000                 0.0000                 0.0000
 Atom AN      X      Y      Z        X      Y      Z        X      Y      Z
   1   7    -0.09  -0.02  -0.15    -0.00   0.00  -0.01     0.00   0.02   0.02
   2   6    -0.08  -0.06  -0.05    -0.01   0.04  -0.01    -0.01   0.01  -0.05
   3   6     0.07   0.02  -0.01     0.01  -0.02   0.01     0.08  -0.13  -0.23
   4   6    -0.01  -0.01  -0.01    -0.19  -0.19   0.08     0.00  -0.01  -0.00
   5   6     0.00   0.00   0.01     0.06  -0.01  -0.03    -0.01  -0.01   0.01
   6   8     0.00  -0.00  -0.00    -0.03  -0.00   0.01    -0.00  -0.00   0.00
   7   8     0.00   0.00  -0.01    -0.01  -0.02   0.01     0.01   0.02  -0.01
   8   1     0.07   0.20  -0.21     0.01  -0.01  -0.00     0.01  -0.03   0.02
   9   1     0.54  -0.04   0.34    -0.00   0.01  -0.00    -0.06   0.01  -0.04
  10   1    -0.18  -0.15   0.59    -0.00  -0.01  -0.01     0.01  -0.01  -0.08
  11   1     0.03   0.12   0.01    -0.02  -0.04   0.05    -0.02  -0.06   0.09
  12   1     0.05   0.07   0.02     0.04  -0.07   0.01     0.07  -0.05   0.01
  13   1    -0.10   0.04   0.01    -0.00  -0.02  -0.00    -0.19   0.60   0.24
  14   1    -0.07  -0.03   0.07     0.00  -0.00  -0.03    -0.09  -0.11   0.64
  15   1    -0.01   0.01  -0.01     0.15   0.35  -0.54     0.00   0.00  -0.01
  16   1     0.02   0.01   0.00     0.41   0.49   0.24     0.00   0.01   0.00
  17   1     0.00   0.00   0.00     0.00   0.00  -0.00     0.00   0.00  -0.00
                     34                     35                     36
                        a                      a                      a 
 Frequencies --  1480.0967              1746.1422              2925.8904
 Red. masses --     1.8430                13.3107                 1.8966
 Frc consts  --     0.0000                 0.0000                 0.0000
 IR Inten    --    12.1183               735.2513                 7.5899
 Raman Activ --     0.0000                 0.0000                 0.0000
 Depolar     --     0.0000                 0.0000                 0.0000
 Atom AN      X      Y      Z        X      Y      Z        X      Y      Z
   1   7     0.02   0.00   0.01    -0.01   0.01   0.00     0.00   0.00  -0.00
   2   6     0.14  -0.10   0.21    -0.00   0.00  -0.00    -0.06   0.01   0.01
   3   6     0.01  -0.03  -0.03     0.00   0.01  -0.00     0.07  -0.26   0.07
   4   6    -0.03  -0.01   0.01     0.01  -0.05   0.01     0.02   0.02   0.01
   5   6     0.01  -0.01   0.00     0.28   0.69  -0.28    -0.00   0.00  -0.00
   6   8    -0.00   0.00   0.00    -0.03  -0.03   0.02     0.00   0.00  -0.00
   7   8    -0.00   0.00  -0.00    -0.24  -0.50   0.22    -0.00  -0.00   0.00
   8   1    -0.01  -0.03   0.03     0.01  -0.00   0.00     0.00   0.00   0.00
   9   1    -0.00  -0.05  -0.01    -0.00  -0.00  -0.00    -0.00  -0.00   0.00
  10   1    -0.01  -0.05   0.01     0.01  -0.05  -0.00    -0.00   0.00  -0.00
  11   1     0.07   0.18  -0.64    -0.00   0.00  -0.00     0.20  -0.08  -0.01
  12   1    -0.58   0.28  -0.15     0.00   0.00   0.00     0.01   0.01  -0.03
  13   1    -0.03   0.09   0.04    -0.00   0.01   0.00     0.03   0.12  -0.33
  14   1     0.01  -0.01   0.09    -0.02  -0.01   0.01    -0.29   0.80   0.08
  15   1     0.02   0.03  -0.05     0.02  -0.03   0.02    -0.05  -0.06  -0.06
  16   1     0.04   0.05   0.02     0.01  -0.05  -0.02    -0.00  -0.01   0.05
  17   1    -0.00  -0.00   0.00     0.06   0.02  -0.03     0.00  -0.00   0.00
                     37                     38                     39
                        a                      a                      a 
 Frequencies --  2934.4398              2938.4591              2957.8857
 Red. masses --     1.9179                 1.9577                 1.5374
 Frc consts  --     0.0000                 0.0000                 0.0000
 IR Inten    --     1.0044                 6.1062                12.0389
 Raman Activ --     0.0000                 0.0000                 0.0000
 Depolar     --     0.0000                 0.0000                 0.0000
 Atom AN      X      Y      Z        X      Y      Z        X      Y      Z
   1   7     0.00  -0.00   0.00    -0.00  -0.00  -0.00    -0.00   0.00   0.00
   2   6     0.02  -0.00  -0.01     0.24  -0.06  -0.14     0.06  -0.04   0.05
   3   6     0.00   0.02  -0.03     0.01  -0.06   0.05     0.04  -0.03  -0.18
   4   6     0.10   0.09   0.25    -0.00   0.00  -0.01    -0.04  -0.07   0.00
   5   6     0.00   0.00   0.01    -0.00  -0.00  -0.00    -0.00  -0.00   0.00
   6   8     0.00  -0.00  -0.00     0.00  -0.00   0.00     0.00   0.00  -0.00
   7   8    -0.00  -0.00   0.00     0.00   0.00   0.00     0.00   0.00  -0.00
   8   1    -0.00  -0.00  -0.00    -0.00  -0.00  -0.00    -0.00  -0.00  -0.00
   9   1     0.00  -0.00  -0.00     0.00   0.00  -0.01    -0.00  -0.00   0.00
  10   1    -0.00   0.00  -0.00     0.03  -0.01   0.00     0.02  -0.01   0.00
  11   1    -0.05   0.02   0.00    -0.70   0.28   0.01    -0.30   0.12   0.02
  12   1    -0.01  -0.00   0.03    -0.15  -0.06   0.50     0.08   0.02  -0.20
  13   1    -0.01  -0.06   0.14     0.01   0.09  -0.22    -0.03  -0.31   0.64
  14   1    -0.00   0.01  -0.01    -0.04   0.10   0.02    -0.14   0.39   0.01
  15   1    -0.40  -0.53  -0.46    -0.00  -0.00  -0.00     0.14   0.17   0.17
  16   1     0.04   0.20  -0.45    -0.00  -0.01   0.03     0.01   0.07  -0.20
  17   1    -0.00   0.00  -0.00    -0.00   0.00   0.00     0.00  -0.00  -0.00
                     40                     41                     42
                        a                      a                      a 
 Frequencies --  2963.1169              2966.8817              3150.7524
 Red. masses --     1.5660                 1.6022                 1.9015
 Frc consts  --     0.0000                 0.0000                 0.0000
 IR Inten    --    10.6017                27.3668               720.9175
 Raman Activ --     0.0000                 0.0000                 0.0000
 Depolar     --     0.0000                 0.0000                 0.0000
 Atom AN      X      Y      Z        X      Y      Z        X      Y      Z
   1   7    -0.00  -0.00  -0.00     0.00   0.00   0.00     0.25  -0.06   0.04
   2   6     0.03  -0.03   0.07    -0.03   0.06  -0.18     0.01  -0.01   0.00
   3   6     0.01   0.02  -0.05     0.01   0.02  -0.11     0.00  -0.00   0.00
   4   6     0.07   0.15  -0.12     0.01   0.03  -0.05     0.00  -0.00  -0.00
   5   6     0.00   0.01  -0.00     0.00   0.00  -0.00     0.01   0.02  -0.01
   6   8     0.00  -0.00   0.00    -0.00  -0.00   0.00    -0.00  -0.00   0.00
   7   8    -0.00  -0.00   0.00    -0.00  -0.00   0.00    -0.01  -0.01   0.00
   8   1     0.00  -0.00   0.00    -0.00  -0.00  -0.00    -0.00  -0.03  -0.04
   9   1    -0.00  -0.00   0.00     0.01   0.00  -0.01    -0.03  -0.01   0.08
  10   1     0.01  -0.00   0.00    -0.02   0.01  -0.00    -0.90   0.28  -0.18
  11   1    -0.20   0.08   0.02     0.38  -0.15  -0.04    -0.04   0.02   0.00
  12   1     0.10   0.03  -0.26    -0.25  -0.07   0.68     0.00  -0.00  -0.01
  13   1    -0.01  -0.08   0.18    -0.02  -0.18   0.39    -0.00   0.00  -0.00
  14   1    -0.01   0.03  -0.00    -0.03   0.09  -0.01    -0.00   0.00   0.00
  15   1    -0.21  -0.27  -0.28    -0.03  -0.03  -0.04     0.00   0.00   0.00
  16   1    -0.03  -0.27   0.72    -0.01  -0.08   0.21     0.00  -0.00   0.00
  17   1    -0.00   0.00   0.00    -0.00   0.00  -0.00    -0.00   0.01  -0.00
                     43                     44                     45
                        a                      a                      a 
 Frequencies --  3286.9860              3300.6048              3615.2912
 Red. masses --     2.0022                 1.5265                 1.8600
 Frc consts  --     0.0000                 0.0000                 0.0000
 IR Inten    --   168.5500                81.5975               210.3387
 Raman Activ --     0.0000                 0.0000                 0.0000
 Depolar     --     0.0000                 0.0000                 0.0000
 Atom AN      X      Y      Z        X      Y      Z        X      Y      Z
   1   7     0.02   0.11   0.25     0.13   0.09  -0.12     0.00  -0.00   0.00
   2   6    -0.00   0.00   0.00     0.00   0.01  -0.01     0.00   0.00  -0.00
   3   6    -0.00  -0.00   0.00    -0.00   0.00   0.00    -0.00   0.00   0.00
   4   6     0.00   0.00   0.00    -0.00   0.00  -0.00     0.00  -0.00  -0.00
   5   6     0.00   0.00   0.00     0.00  -0.00  -0.00    -0.01   0.00   0.00
   6   8    -0.00   0.00  -0.00    -0.00   0.00  -0.00    -0.10   0.22  -0.02
   7   8    -0.00  -0.00  -0.00    -0.00   0.00  -0.00     0.00   0.00  -0.00
   8   1    -0.33  -0.48  -0.66    -0.13  -0.21  -0.31     0.00   0.00   0.00
   9   1     0.22   0.06  -0.30    -0.49  -0.12   0.73     0.00   0.00  -0.00
  10   1     0.02   0.00   0.02     0.12  -0.02   0.01    -0.01   0.00  -0.00
  11   1     0.00  -0.00  -0.00     0.00  -0.00   0.00    -0.00  -0.00   0.00
  12   1     0.00  -0.00  -0.01    -0.01  -0.00   0.01    -0.00  -0.00   0.00
  13   1     0.00   0.00  -0.01     0.00   0.00  -0.00    -0.00   0.00  -0.00
  14   1     0.00  -0.00  -0.00     0.00  -0.00  -0.00    -0.00  -0.00   0.00
  15   1    -0.00  -0.00  -0.00    -0.00  -0.00  -0.00    -0.00  -0.00  -0.00
  16   1     0.00   0.00   0.00    -0.00  -0.00   0.00     0.00  -0.00   0.00
  17   1     0.00  -0.00  -0.00     0.00  -0.00   0.00     0.44  -0.87   0.06
