 Entering Gaussian System
 *********************************************
 Gaussian 98:
 frequency output generated by the xtb code
 *********************************************
                         Standard orientation:
 --------------------------------------------------------------------
  Center     Atomic     Atomic              Coordinates (Angstroms)
  Number     Number      Type              X           Y           Z
 --------------------------------------------------------------------
    1          7             0       -1.294853    1.812176   -0.609679
    2          6             0       -0.116630    1.801831    0.298227
    3          6             0        0.712954    0.582107    0.133607
    4          6             0        0.253177   -0.693161    0.183170
    5          6             0        1.270021   -1.675087   -0.008432
    6          6             0        2.495764   -1.139264   -0.201927
    7         16             0        2.428453    0.585917   -0.153770
    8         17             0       -3.218995   -0.996343    0.273923
    9          1             0       -1.915276    1.010009   -0.409375
   10          1             0       -0.997417    1.731123   -1.593900
   11          1             0       -1.856988    2.678399   -0.516538
   12          1             0       -0.445826    1.878465    1.341278
   13          1             0        0.504215    2.686078    0.112154
   14          1             0       -0.787734   -0.935685    0.339054
   15          1             0        1.075606   -2.738306   -0.000329
   16          1             0        3.400780   -1.695089   -0.365999
 --------------------------------------------------------------------
     1 basis functions        1 primitive gaussians
     1 alpha electrons        1 beta electrons

 Harmonic frequencies (cm**-1), IR intensities (km*mol⁻¹),
 Raman scattering activities (A**4/amu), Raman depolarization ratios,
 reduced masses (AMU), force constants (mDyne/A) and normal coordinates:
                      1                      2                      3
                        a                      a                      a 
 Frequencies --  -135.0973               -28.8866                88.9002
 Red. masses --    19.8506                18.8617                25.7650
 Frc consts  --     0.0000                 0.0000                 0.0000
 IR Inten    --   123.0874                 6.0290                40.7350
 Raman Activ --     0.0000                 0.0000                 0.0000
 Depolar     --     0.0000                 0.0000                 0.0000
 Atom AN      X      Y      Z        X      Y      Z        X      Y      Z
   1   7    -0.35  -0.49   0.21    -0.07  -0.02  -0.03    -0.03   0.13   0.01
   2   6    -0.13  -0.12  -0.07     0.09   0.11  -0.25     0.01   0.16  -0.04
   3   6    -0.02  -0.06  -0.03     0.03   0.05  -0.19    -0.10   0.08   0.01
   4   6     0.03  -0.08  -0.06    -0.07   0.07  -0.47    -0.23   0.13   0.01
   5   6     0.08  -0.04  -0.04    -0.07   0.04  -0.33    -0.33   0.03   0.01
   6   6     0.06   0.02   0.02     0.02  -0.02   0.09    -0.27  -0.10   0.02
   7  16    -0.02   0.03   0.07     0.18  -0.03   0.49    -0.15  -0.16   0.04
   8  17     0.29   0.53  -0.10    -0.12  -0.12   0.29     0.74  -0.13  -0.04
   9   1    -0.07  -0.15   0.13    -0.02   0.02   0.07     0.04  -0.00  -0.01
  10   1    -0.15  -0.17   0.04    -0.07  -0.07  -0.02    -0.02   0.07  -0.00
  11   1    -0.11  -0.14   0.04    -0.00   0.01  -0.03    -0.04   0.01   0.03
  12   1     0.03   0.01  -0.00     0.09   0.09  -0.06     0.02   0.07  -0.01
  13   1    -0.08  -0.02  -0.10     0.03   0.01  -0.15     0.01   0.03  -0.04
  14   1     0.01  -0.03  -0.03    -0.03   0.03  -0.20    -0.08   0.06  -0.00
  15   1     0.03  -0.01  -0.02    -0.04   0.01  -0.14    -0.13   0.01   0.00
  16   1     0.03   0.02   0.02     0.01  -0.01   0.09    -0.09  -0.06   0.01
                      4                      5                      6
                        a                      a                      a 
 Frequencies --   125.2263               177.4410               262.9895
 Red. masses --    15.9189                11.2181                10.9427
 Frc consts  --     0.0000                 0.0000                 0.0000
 IR Inten    --    13.7860                12.2215                 2.2836
 Raman Activ --     0.0000                 0.0000                 0.0000
 Depolar     --     0.0000                 0.0000                 0.0000
 Atom AN      X      Y      Z        X      Y      Z        X      Y      Z
   1   7     0.19   0.07  -0.42     0.17  -0.44  -0.17     0.05   0.11   0.06
   2   6    -0.22  -0.22   0.12     0.01   0.11   0.05     0.28   0.14  -0.27
   3   6    -0.14  -0.15   0.08     0.14   0.16   0.35    -0.14  -0.20   0.21
   4   6    -0.02  -0.20  -0.10    -0.02   0.21   0.21     0.01  -0.25   0.21
   5   6     0.08  -0.08  -0.20    -0.19   0.12  -0.16     0.14  -0.09  -0.03
   6   6     0.03   0.07  -0.11    -0.16   0.00  -0.34     0.03   0.08  -0.22
   7  16    -0.22   0.10   0.22     0.15   0.01   0.10    -0.33   0.09   0.15
   8  17     0.24   0.22   0.24    -0.11  -0.05  -0.00     0.02  -0.01  -0.06
   9   1    -0.02   0.07  -0.15     0.05  -0.10   0.02    -0.04   0.10   0.14
  10   1     0.16  -0.02  -0.08     0.10  -0.23  -0.02    -0.07  -0.12   0.00
  11   1     0.09   0.05  -0.18     0.02  -0.12  -0.18     0.10   0.09  -0.05
  12   1    -0.20  -0.16  -0.00    -0.05   0.08  -0.00     0.18   0.29  -0.06
  13   1    -0.04  -0.05   0.19    -0.03   0.05  -0.02     0.18  -0.07  -0.30
  14   1    -0.00  -0.08  -0.04    -0.01   0.08   0.09     0.01  -0.11   0.06
  15   1     0.05  -0.03  -0.09    -0.09   0.04  -0.09     0.08  -0.04  -0.05
  16   1     0.02   0.05  -0.05    -0.08  -0.03  -0.17     0.02   0.07  -0.12
                      7                      8                      9
                        a                      a                      a 
 Frequencies --   297.7813               341.1386               444.7891
 Red. masses --     5.6631                11.6835                12.8208
 Frc consts  --     0.0000                 0.0000                 0.0000
 IR Inten    --     1.7869                 7.0120                 3.6743
 Raman Activ --     0.0000                 0.0000                 0.0000
 Depolar     --     0.0000                 0.0000                 0.0000
 Atom AN      X      Y      Z        X      Y      Z        X      Y      Z
   1   7    -0.15   0.07  -0.13     0.39  -0.29   0.06     0.20  -0.13   0.10
   2   6    -0.06   0.00  -0.19     0.25   0.05   0.09     0.16  -0.12   0.02
   3   6     0.01  -0.01   0.02    -0.04  -0.08   0.08    -0.03  -0.06  -0.63
   4   6     0.09  -0.03   0.19    -0.14  -0.05  -0.24    -0.09  -0.00   0.04
   5   6     0.06  -0.03  -0.02    -0.04   0.02  -0.07    -0.06   0.02   0.33
   6   6     0.02  -0.03  -0.26    -0.02   0.10   0.27    -0.19   0.09  -0.34
   7  16     0.10  -0.05   0.23    -0.30   0.17  -0.17    -0.04   0.17   0.26
   8  17    -0.04   0.05   0.05    -0.05   0.03   0.03    -0.01  -0.00  -0.01
   9   1     0.19  -0.23  -0.32     0.28  -0.25  -0.13     0.05  -0.03   0.04
  10   1    -0.05   0.51  -0.08     0.15   0.17   0.01     0.07  -0.07   0.03
  11   1    -0.28  -0.18   0.33    -0.11  -0.23   0.14     0.05  -0.03  -0.01
  12   1    -0.02   0.02  -0.06     0.09   0.08   0.03     0.08  -0.16   0.02
  13   1    -0.02  -0.00  -0.07     0.10  -0.01  -0.03     0.02  -0.00   0.08
  14   1     0.03  -0.02   0.09    -0.04  -0.03  -0.09    -0.03   0.03   0.04
  15   1     0.01  -0.01  -0.02     0.01   0.00  -0.01     0.01   0.00   0.17
  16   1    -0.01  -0.01  -0.14     0.01   0.04   0.14    -0.06   0.02  -0.14
                     10                     11                     12
                        a                      a                      a 
 Frequencies --   528.0117               555.8870               708.7903
 Red. masses --    11.5753                15.3466                15.0151
 Frc consts  --     0.0000                 0.0000                 0.0000
 IR Inten    --     0.6520                 4.7578                12.0944
 Raman Activ --     0.0000                 0.0000                 0.0000
 Depolar     --     0.0000                 0.0000                 0.0000
 Atom AN      X      Y      Z        X      Y      Z        X      Y      Z
   1   7    -0.01   0.00  -0.01     0.08  -0.04   0.02    -0.02   0.04   0.01
   2   6    -0.10   0.24   0.11    -0.05   0.32   0.11    -0.18   0.34   0.21
   3   6    -0.07   0.14   0.23    -0.16   0.23  -0.38    -0.40  -0.09  -0.12
   4   6     0.04   0.06  -0.46     0.21   0.09   0.23    -0.14  -0.25   0.04
   5   6     0.22   0.01   0.42     0.15   0.06  -0.24     0.00  -0.24  -0.03
   6   6     0.13  -0.08  -0.35     0.27  -0.10   0.09    -0.08  -0.06   0.02
   7  16    -0.14  -0.24   0.04    -0.34  -0.33   0.08     0.48   0.18  -0.07
   8  17    -0.00   0.00   0.01    -0.01  -0.00  -0.00    -0.00   0.01  -0.00
   9   1     0.04  -0.03  -0.00     0.08  -0.06   0.04     0.09  -0.07  -0.02
  10   1     0.05  -0.01   0.01     0.09  -0.07   0.03     0.17  -0.06   0.06
  11   1    -0.06  -0.03  -0.05    -0.07  -0.06  -0.10    -0.15  -0.06  -0.18
  12   1    -0.04   0.11   0.03    -0.00   0.01   0.04     0.02   0.23   0.07
  13   1    -0.03   0.06   0.01    -0.04   0.12   0.07     0.02   0.02  -0.07
  14   1     0.01  -0.04  -0.25     0.09  -0.04   0.17    -0.02  -0.15   0.04
  15   1     0.05   0.00   0.27    -0.02   0.03  -0.12     0.06  -0.08   0.00
  16   1     0.05  -0.01  -0.07     0.09   0.01  -0.01    -0.03  -0.04   0.00
                     13                     14                     15
                        a                      a                      a 
 Frequencies --   724.7256               762.6206               821.0342
 Red. masses --    14.8303                 2.6293                11.7234
 Frc consts  --     0.0000                 0.0000                 0.0000
 IR Inten    --     1.0554                17.4984                13.6216
 Raman Activ --     0.0000                 0.0000                 0.0000
 Depolar     --     0.0000                 0.0000                 0.0000
 Atom AN      X      Y      Z        X      Y      Z        X      Y      Z
   1   7     0.01  -0.02   0.01     0.01  -0.01  -0.00    -0.02   0.04  -0.04
   2   6     0.00  -0.10   0.01    -0.01   0.01  -0.01     0.05   0.14  -0.01
   3   6    -0.21  -0.15   0.00    -0.01  -0.00  -0.02     0.09   0.05   0.01
   4   6    -0.43  -0.02   0.09    -0.02   0.00  -0.04     0.17  -0.10  -0.04
   5   6     0.08   0.57  -0.00     0.02   0.00   0.13    -0.02  -0.23   0.01
   6   6     0.20   0.32  -0.03     0.06  -0.02   0.35    -0.37   0.61   0.07
   7  16     0.19  -0.37  -0.04     0.00   0.01  -0.03     0.06  -0.34  -0.02
   8  17     0.00   0.01   0.00    -0.00   0.00   0.01    -0.00   0.00  -0.00
   9   1    -0.01   0.00  -0.02    -0.00   0.00   0.01     0.09  -0.03   0.11
  10   1     0.01   0.01   0.00    -0.00   0.00  -0.00    -0.10  -0.04  -0.03
  11   1     0.02   0.00   0.01     0.01  -0.00   0.01    -0.08  -0.04  -0.01
  12   1     0.01   0.02   0.00    -0.01  -0.00  -0.00    -0.08  -0.06  -0.02
  13   1     0.04  -0.06  -0.03    -0.00   0.00   0.00    -0.01   0.07   0.12
  14   1    -0.11  -0.10   0.00    -0.03  -0.00  -0.20     0.04   0.01  -0.01
  15   1     0.14   0.14  -0.02    -0.04   0.01  -0.23     0.16  -0.09  -0.05
  16   1     0.01   0.02   0.00    -0.14   0.02  -0.86     0.00   0.35   0.00
                     16                     17                     18
                        a                      a                      a 
 Frequencies --   835.3469               872.7673               904.6922
 Red. masses --     3.7134                 2.9082                 3.4848
 Frc consts  --     0.0000                 0.0000                 0.0000
 IR Inten    --    45.5368                12.4765                 4.3596
 Raman Activ --     0.0000                 0.0000                 0.0000
 Depolar     --     0.0000                 0.0000                 0.0000
 Atom AN      X      Y      Z        X      Y      Z        X      Y      Z
   1   7    -0.05  -0.08   0.08    -0.00   0.02  -0.02     0.00   0.01  -0.00
   2   6    -0.15  -0.18   0.15     0.05   0.03  -0.03     0.00   0.00  -0.02
   3   6     0.07   0.07  -0.08     0.01  -0.02   0.06    -0.00  -0.02   0.05
   4   6     0.16   0.08  -0.09    -0.06  -0.02  -0.13    -0.08   0.00  -0.39
   5   6    -0.03  -0.03  -0.06    -0.05   0.02  -0.34     0.04   0.01   0.24
   6   6    -0.10   0.17   0.06     0.04  -0.02   0.14     0.01  -0.01  -0.00
   7  16    -0.03  -0.13   0.02     0.01   0.02   0.04     0.01   0.00   0.01
   8  17     0.01  -0.00   0.01    -0.00  -0.00  -0.01     0.00  -0.00  -0.01
   9   1    -0.27   0.08  -0.39     0.05  -0.01   0.08     0.02  -0.00   0.02
  10   1     0.36   0.12   0.12    -0.11  -0.04  -0.04    -0.04  -0.02  -0.01
  11   1     0.15   0.10  -0.06    -0.03  -0.01   0.02     0.00   0.00   0.00
  12   1     0.24   0.27   0.10    -0.06  -0.04  -0.03    -0.03   0.01  -0.01
  13   1    -0.05  -0.12  -0.37     0.02   0.02   0.08     0.02  -0.01   0.02
  14   1     0.05   0.10   0.13     0.05  -0.02   0.36     0.12  -0.00   0.78
  15   1     0.03  -0.01   0.14     0.13  -0.02   0.75    -0.06   0.01  -0.37
  16   1    -0.00   0.12  -0.08    -0.05  -0.01  -0.28    -0.01  -0.01  -0.03
                     19                     20                     21
                        a                      a                      a 
 Frequencies --   964.7861              1019.3579              1030.1981
 Red. masses --     9.1152                 5.2694                 7.0124
 Frc consts  --     0.0000                 0.0000                 0.0000
 IR Inten    --    40.3229                16.3150                17.8041
 Raman Activ --     0.0000                 0.0000                 0.0000
 Depolar     --     0.0000                 0.0000                 0.0000
 Atom AN      X      Y      Z        X      Y      Z        X      Y      Z
   1   7     0.47  -0.14   0.23    -0.06  -0.15   0.12    -0.11  -0.27  -0.31
   2   6    -0.41   0.01  -0.30     0.10   0.34  -0.20     0.32   0.12   0.40
   3   6    -0.27   0.13   0.02     0.15  -0.05   0.07    -0.17   0.08  -0.09
   4   6     0.07   0.05  -0.00    -0.31  -0.10   0.04    -0.02   0.01   0.01
   5   6     0.01  -0.06  -0.02     0.06  -0.13  -0.02     0.02  -0.07   0.01
   6   6    -0.05   0.01   0.01     0.06  -0.04  -0.01     0.00  -0.03  -0.00
   7  16     0.10  -0.02  -0.02    -0.02   0.03   0.00     0.04   0.01  -0.00
   8  17     0.00  -0.00  -0.00     0.01  -0.00   0.00     0.01  -0.00   0.00
   9   1    -0.03   0.08   0.08    -0.24   0.07  -0.24    -0.27   0.12  -0.08
  10   1    -0.11   0.08  -0.02     0.19   0.10   0.08    -0.35   0.14  -0.19
  11   1     0.33   0.07   0.33     0.16   0.08   0.01     0.26   0.08   0.30
  12   1    -0.20   0.05  -0.11     0.06  -0.28  -0.01    -0.09   0.16   0.04
  13   1    -0.09   0.00  -0.05    -0.31   0.36   0.12     0.07   0.03   0.03
  14   1     0.04  -0.08   0.00    -0.11   0.06   0.03    -0.00  -0.02  -0.01
  15   1    -0.03  -0.01   0.02     0.24  -0.08  -0.04     0.00  -0.02  -0.01
  16   1     0.02   0.05   0.01     0.05   0.03  -0.00     0.04   0.05   0.01
                     22                     23                     24
                        a                      a                      a 
 Frequencies --  1072.0883              1085.6381              1166.5576
 Red. masses --     4.0566                 2.5496                 8.2684
 Frc consts  --     0.0000                 0.0000                 0.0000
 IR Inten    --    14.9244                 1.4717                11.3928
 Raman Activ --     0.0000                 0.0000                 0.0000
 Depolar     --     0.0000                 0.0000                 0.0000
 Atom AN      X      Y      Z        X      Y      Z        X      Y      Z
   1   7     0.05   0.06  -0.01     0.09   0.04  -0.04    -0.12  -0.06   0.09
   2   6    -0.09  -0.10   0.04    -0.17  -0.02   0.11     0.27  -0.14  -0.19
   3   6     0.03  -0.00  -0.03     0.17   0.02  -0.08    -0.56   0.20   0.14
   4   6    -0.32   0.18   0.06    -0.09   0.05   0.02     0.11   0.27  -0.01
   5   6     0.04  -0.22  -0.01     0.10  -0.07  -0.02     0.11  -0.13  -0.02
   6   6     0.18  -0.16  -0.03    -0.00   0.02   0.00    -0.05  -0.01   0.01
   7  16     0.03   0.01  -0.01    -0.09  -0.01   0.01     0.07  -0.02  -0.01
   8  17    -0.00  -0.00  -0.00    -0.00  -0.00  -0.00    -0.00  -0.00   0.00
   9   1     0.08  -0.02   0.08     0.07   0.00   0.10    -0.07  -0.03  -0.12
  10   1    -0.05  -0.04  -0.02    -0.12  -0.02  -0.05     0.15   0.00   0.07
  11   1    -0.07  -0.04  -0.01    -0.01  -0.02   0.06    -0.02   0.01  -0.09
  12   1    -0.02   0.09   0.00    -0.08   0.20   0.00     0.01  -0.24  -0.05
  13   1     0.07  -0.10  -0.04     0.02  -0.07  -0.08     0.29  -0.15   0.19
  14   1    -0.18   0.40   0.03    -0.12   0.40   0.01    -0.01   0.22  -0.00
  15   1    -0.03  -0.06   0.00     0.62  -0.13  -0.11     0.18  -0.06  -0.03
  16   1     0.41   0.55  -0.05    -0.23  -0.39   0.03    -0.06  -0.08   0.00
                     25                     26                     27
                        a                      a                      a 
 Frequencies --  1198.4582              1227.1053              1310.3825
 Red. masses --     3.8317                 3.1209                 7.1419
 Frc consts  --     0.0000                 0.0000                 0.0000
 IR Inten    --    12.7298                20.3219                10.0808
 Raman Activ --     0.0000                 0.0000                 0.0000
 Depolar     --     0.0000                 0.0000                 0.0000
 Atom AN      X      Y      Z        X      Y      Z        X      Y      Z
   1   7    -0.02  -0.06   0.07     0.11   0.06  -0.20     0.02   0.12   0.09
   2   6    -0.01   0.17  -0.03    -0.07  -0.07   0.08     0.25  -0.29   0.04
   3   6    -0.03  -0.23  -0.02    -0.24   0.01   0.11    -0.01   0.19  -0.02
   4   6     0.10  -0.23  -0.02     0.01   0.04  -0.01    -0.27   0.22   0.05
   5   6     0.07  -0.02  -0.01     0.11  -0.10  -0.02     0.22  -0.34  -0.04
   6   6     0.15   0.26  -0.02     0.03   0.11  -0.00     0.10   0.21  -0.01
   7  16     0.00  -0.03  -0.00     0.03  -0.02  -0.00    -0.01  -0.03   0.00
   8  17    -0.00  -0.01   0.00    -0.00  -0.00  -0.00     0.00   0.00  -0.00
   9   1    -0.06   0.01  -0.06     0.10   0.02   0.15     0.06  -0.03  -0.09
  10   1     0.03   0.02   0.02    -0.17  -0.04  -0.10    -0.02  -0.10   0.02
  11   1     0.03   0.01  -0.01    -0.02  -0.03   0.09    -0.07  -0.02  -0.07
  12   1    -0.20   0.07  -0.07     0.61  -0.28   0.24    -0.30   0.17  -0.12
  13   1     0.06   0.02   0.10    -0.32   0.15  -0.18    -0.32   0.16  -0.16
  14   1    -0.13   0.58   0.01    -0.04   0.18   0.02    -0.03  -0.20   0.00
  15   1    -0.49   0.09   0.08    -0.15   0.01   0.03    -0.21  -0.05   0.03
  16   1    -0.12  -0.20   0.02    -0.07  -0.10   0.00    -0.11  -0.18   0.01
                     28                     29                     30
                        a                      a                      a 
 Frequencies --  1326.3110              1374.5094              1403.6411
 Red. masses --     6.2386                 2.7446                 1.5746
 Frc consts  --     0.0000                 0.0000                 0.0000
 IR Inten    --    19.2597               131.7798                73.2369
 Raman Activ --     0.0000                 0.0000                 0.0000
 Depolar     --     0.0000                 0.0000                 0.0000
 Atom AN      X      Y      Z        X      Y      Z        X      Y      Z
   1   7     0.12   0.11   0.08    -0.29  -0.04  -0.11     0.06  -0.11  -0.14
   2   6     0.24  -0.16   0.03     0.10  -0.11   0.01     0.06  -0.06  -0.03
   3   6    -0.25  -0.07   0.03    -0.08   0.00  -0.00    -0.02  -0.00  -0.00
   4   6     0.29  -0.18  -0.05     0.06  -0.05  -0.01    -0.01   0.04  -0.00
   5   6    -0.19   0.28   0.04    -0.04   0.05   0.01     0.02  -0.02  -0.00
   6   6    -0.09  -0.19   0.01    -0.01  -0.03  -0.00    -0.00   0.01   0.00
   7  16     0.03   0.02  -0.00     0.01   0.00  -0.00    -0.00  -0.00  -0.00
   8  17    -0.00   0.00   0.00    -0.01   0.00  -0.00     0.00  -0.00  -0.01
   9   1    -0.05   0.06  -0.12     0.41  -0.26   0.36    -0.31   0.37   0.55
  10   1    -0.11  -0.11  -0.01     0.30   0.21   0.08     0.35   0.37   0.06
  11   1    -0.18  -0.10  -0.06     0.43   0.29   0.01    -0.31  -0.22   0.06
  12   1    -0.21   0.10  -0.08    -0.07   0.11  -0.03    -0.06   0.06  -0.03
  13   1    -0.41   0.26  -0.14    -0.18   0.12  -0.01    -0.06   0.04  -0.00
  14   1     0.02   0.24  -0.01    -0.01   0.08   0.01     0.01  -0.02   0.02
  15   1     0.20   0.04  -0.04     0.05   0.00  -0.00    -0.02  -0.00   0.01
  16   1     0.09   0.15  -0.01     0.02   0.03  -0.01    -0.01  -0.02   0.00
                     31                     32                     33
                        a                      a                      a 
 Frequencies --  1445.4586              1465.2589              1477.4590
 Red. masses --     2.0512                 1.9009                11.4315
 Frc consts  --     0.0000                 0.0000                 0.0000
 IR Inten    --    76.2137                23.7934                20.9361
 Raman Activ --     0.0000                 0.0000                 0.0000
 Depolar     --     0.0000                 0.0000                 0.0000
 Atom AN      X      Y      Z        X      Y      Z        X      Y      Z
   1   7    -0.10   0.14  -0.19     0.03  -0.03   0.03     0.03  -0.02   0.03
   2   6     0.02  -0.03  -0.05    -0.05  -0.20  -0.17     0.01  -0.10  -0.04
   3   6    -0.00   0.06  -0.00    -0.01  -0.03  -0.01    -0.01   0.43   0.02
   4   6     0.00  -0.06  -0.00    -0.00   0.04   0.01    -0.01  -0.33  -0.01
   5   6    -0.06  -0.01   0.01     0.05   0.01  -0.01    -0.58  -0.14   0.09
   6   6     0.05   0.01  -0.01    -0.04  -0.01   0.01     0.49   0.19  -0.08
   7  16     0.00   0.00  -0.00    -0.00  -0.00  -0.00     0.01   0.01  -0.00
   8  17    -0.00   0.00   0.00     0.00   0.00   0.00     0.00  -0.00  -0.00
   9   1    -0.01   0.02  -0.05    -0.04   0.00  -0.06    -0.01   0.01   0.01
  10   1     0.35  -0.54   0.14    -0.11   0.07  -0.04    -0.04   0.07  -0.02
  11   1    -0.05  -0.09   0.66    -0.01   0.00  -0.13    -0.01  -0.00  -0.09
  12   1     0.04   0.11  -0.00     0.34   0.55   0.06     0.08  -0.00   0.02
  13   1     0.01   0.04   0.15    -0.09   0.19   0.64     0.04  -0.04   0.03
  14   1    -0.01   0.01   0.00     0.01  -0.01  -0.00    -0.03  -0.01   0.00
  15   1     0.01  -0.01  -0.00    -0.01   0.01  -0.00     0.07  -0.09  -0.01
  16   1     0.01  -0.01   0.00    -0.01   0.00   0.00     0.07  -0.09  -0.02
                     34                     35                     36
                        a                      a                      a 
 Frequencies --  1579.1484              2921.5404              2947.9254
 Red. masses --    11.4173                 1.9872                 1.9403
 Frc consts  --     0.0000                 0.0000                 0.0000
 IR Inten    --     3.5909              1187.8811                33.1775
 Raman Activ --     0.0000                 0.0000                 0.0000
 Depolar     --     0.0000                 0.0000                 0.0000
 Atom AN      X      Y      Z        X      Y      Z        X      Y      Z
   1   7    -0.01   0.00  -0.01    -0.15  -0.21   0.06    -0.03  -0.05   0.01
   2   6    -0.02   0.10   0.02     0.04   0.05  -0.04    -0.14  -0.09   0.23
   3   6    -0.09  -0.59  -0.00     0.00   0.00  -0.00    -0.01   0.00   0.00
   4   6     0.16   0.52  -0.01     0.03   0.01  -0.00     0.01   0.00  -0.00
   5   6    -0.37  -0.16   0.06    -0.00  -0.00   0.00    -0.00  -0.00   0.00
   6   6     0.30   0.16  -0.05     0.00  -0.00  -0.00     0.00  -0.00  -0.00
   7  16    -0.01   0.00   0.00    -0.00  -0.00   0.00     0.00  -0.00   0.00
   8  17    -0.00   0.00   0.00     0.00   0.01  -0.00     0.00   0.00  -0.00
   9   1     0.00  -0.01  -0.01     0.55   0.72  -0.19     0.11   0.15  -0.04
  10   1     0.00  -0.02   0.00     0.00  -0.02  -0.03    -0.00  -0.00   0.01
  11   1     0.01   0.01   0.02    -0.03   0.03   0.01    -0.01   0.01   0.00
  12   1    -0.03   0.02  -0.00    -0.03   0.01   0.09     0.25  -0.05  -0.78
  13   1    -0.06   0.06   0.01    -0.12  -0.17   0.04     0.25   0.37  -0.06
  14   1     0.11  -0.10  -0.02    -0.08  -0.02   0.01    -0.03  -0.01   0.01
  15   1     0.10  -0.09  -0.02     0.00   0.01   0.00     0.00   0.00  -0.00
  16   1     0.04  -0.05  -0.01    -0.00   0.00   0.00    -0.00   0.00   0.00
                     37                     38                     39
                        a                      a                      a 
 Frequencies --  2977.9776              3042.1993              3079.0782
 Red. masses --     1.5420                 1.9154                 1.8632
 Frc consts  --     0.0000                 0.0000                 0.0000
 IR Inten    --     7.3425               502.7555                 5.0762
 Raman Activ --     0.0000                 0.0000                 0.0000
 Depolar     --     0.0000                 0.0000                 0.0000
 Atom AN      X      Y      Z        X      Y      Z        X      Y      Z
   1   7    -0.03  -0.03   0.01     0.01   0.02  -0.01     0.00   0.00  -0.00
   2   6    -0.08  -0.18  -0.08     0.00   0.00  -0.00     0.00   0.00   0.00
   3   6     0.00  -0.01  -0.00     0.01  -0.01  -0.00    -0.00  -0.00  -0.00
   4   6     0.01   0.00  -0.00     0.27   0.07  -0.04     0.03   0.01  -0.00
   5   6     0.00   0.00  -0.00    -0.01  -0.02   0.00     0.05   0.27  -0.00
   6   6    -0.00   0.00   0.00    -0.00   0.00   0.00     0.02  -0.01  -0.00
   7  16     0.00  -0.00  -0.00    -0.00  -0.00   0.00    -0.00  -0.00  -0.00
   8  17     0.00   0.00  -0.00    -0.00   0.00  -0.00    -0.00  -0.00  -0.00
   9   1     0.08   0.10  -0.03    -0.06  -0.07   0.02    -0.00  -0.00   0.00
  10   1     0.00  -0.00  -0.02    -0.00   0.00   0.01     0.00   0.00  -0.00
  11   1    -0.01   0.00  -0.00     0.00  -0.01  -0.00    -0.00   0.00   0.00
  12   1    -0.17  -0.00   0.47    -0.00   0.00   0.01     0.00   0.00  -0.00
  13   1     0.47   0.66  -0.17    -0.01  -0.01   0.00    -0.00  -0.00   0.00
  14   1    -0.02  -0.00   0.00    -0.91  -0.23   0.14    -0.08  -0.02   0.01
  15   1    -0.00  -0.00  -0.00     0.02   0.08  -0.00    -0.17  -0.93   0.01
  16   1     0.00   0.00  -0.00     0.01  -0.00  -0.00    -0.10   0.06   0.02
                     40                     41                     42
                        a                      a                      a 
 Frequencies --  3133.7148              3146.1426              3211.9400
 Red. masses --     1.8898                 1.7789                 1.7376
 Frc consts  --     0.0000                 0.0000                 0.0000
 IR Inten    --     4.5549                34.3564                33.1337
 Raman Activ --     0.0000                 0.0000                 0.0000
 Depolar     --     0.0000                 0.0000                 0.0000
 Atom AN      X      Y      Z        X      Y      Z        X      Y      Z
   1   7     0.00  -0.00   0.00     0.14  -0.19  -0.04    -0.06   0.02   0.23
   2   6    -0.00   0.00   0.00     0.00  -0.00   0.00     0.00   0.00   0.01
   3   6     0.00  -0.00  -0.00     0.00   0.00   0.00     0.00  -0.00  -0.00
   4   6     0.00  -0.00  -0.00     0.00   0.00   0.00     0.00   0.00  -0.00
   5   6     0.01   0.04  -0.00    -0.00  -0.00   0.00    -0.00  -0.00  -0.00
   6   6    -0.24   0.13   0.04     0.00  -0.00  -0.00     0.00  -0.00  -0.00
   7  16    -0.00  -0.00   0.00    -0.00   0.00   0.00    -0.00   0.00   0.00
   8  17    -0.00   0.00   0.00    -0.00  -0.00   0.00     0.00   0.00  -0.00
   9   1     0.00   0.00  -0.00    -0.02  -0.06   0.01    -0.04  -0.04   0.03
  10   1     0.00  -0.00  -0.00     0.00  -0.02   0.03     0.30  -0.08  -0.92
  11   1    -0.01   0.01   0.00    -0.51   0.81   0.11    -0.03   0.04   0.03
  12   1     0.00  -0.00  -0.00    -0.00   0.00   0.00     0.01  -0.00  -0.02
  13   1    -0.00  -0.00   0.00    -0.00   0.00  -0.00    -0.00  -0.00  -0.00
  14   1    -0.00   0.00   0.00    -0.00  -0.00   0.00    -0.01  -0.00   0.00
  15   1    -0.02  -0.11   0.00     0.00   0.00   0.00     0.00   0.00  -0.00
  16   1     0.81  -0.48  -0.15    -0.01   0.01   0.00    -0.00   0.00   0.00
