 Entering Gaussian System
 *********************************************
 Gaussian 98:
 frequency output generated by the xtb code
 *********************************************
                         Standard orientation:
 --------------------------------------------------------------------
  Center     Atomic     Atomic              Coordinates (Angstroms)
  Number     Number      Type              X           Y           Z
 --------------------------------------------------------------------
    1          7             0       -3.388236    1.217487   -0.531570
    2          6             0       -2.214680    1.819562    0.159705
    3          6             0       -0.968825    1.056865   -0.094048
    4          6             0        0.228759    1.440680    0.341307
    5          6             0        1.466274    0.685143    0.125414
    6          6             0        1.454016   -0.690278   -0.107624
    7          6             0        2.630932   -1.383934   -0.304777
    8          6             0        3.841616   -0.719741   -0.270622
    9          6             0        3.873684    0.641030   -0.035355
   10          6             0        2.698448    1.337176    0.162688
   11         17             0       -3.045241   -2.155914    0.260554
   12          1             0       -4.275583    1.688252   -0.289898
   13          1             0       -3.473890    0.215298   -0.277588
   14          1             0       -3.275489    1.261065   -1.556841
   15          1             0       -2.400546    1.860355    1.240125
   16          1             0       -2.084896    2.860181   -0.161638
   17          1             0       -1.057522    0.142064   -0.654847
   18          1             0        0.306576    2.367600    0.885355
   19          1             0        0.514893   -1.218303   -0.115330
   20          1             0        2.605566   -2.447715   -0.482735
   21          1             0        4.760722   -1.263286   -0.424654
   22          1             0        4.818737    1.160565   -0.006459
   23          1             0        2.723184    2.399267    0.344266
 --------------------------------------------------------------------
     1 basis functions        1 primitive gaussians
     1 alpha electrons        1 beta electrons

 Harmonic frequencies (cm**-1), IR intensities (km*mol⁻¹),
 Raman scattering activities (A**4/amu), Raman depolarization ratios,
 reduced masses (AMU), force constants (mDyne/A) and normal coordinates:
                      1                      2                      3
                        a                      a                      a 
 Frequencies --  -159.6538              -111.6131                23.1551
 Red. masses --    16.1352                11.9123                12.1242
 Frc consts  --     0.0000                 0.0000                 0.0000
 IR Inten    --   106.3452                33.8877                 2.3488
 Raman Activ --     0.0000                 0.0000                 0.0000
 Depolar     --     0.0000                 0.0000                 0.0000
 Atom AN      X      Y      Z        X      Y      Z        X      Y      Z
   1   7     0.02  -0.58   0.19    -0.01  -0.16   0.02    -0.04  -0.05   0.06
   2   6    -0.03  -0.14  -0.09    -0.07  -0.17   0.15     0.04   0.10  -0.20
   3   6     0.08   0.08  -0.17    -0.12  -0.30   0.36    -0.02  -0.03  -0.07
   4   6    -0.00  -0.04   0.16     0.01   0.07  -0.32     0.00  -0.04  -0.11
   5   6     0.02   0.01   0.04    -0.00  -0.00  -0.11     0.01  -0.03  -0.06
   6   6     0.00   0.02   0.02     0.04  -0.02  -0.05     0.05   0.03  -0.41
   7   6    -0.01   0.00  -0.00     0.06  -0.00   0.02     0.09   0.07  -0.37
   8   6    -0.00  -0.01  -0.02     0.05   0.01   0.07     0.09   0.06   0.03
   9   6     0.01  -0.01  -0.02     0.02   0.01   0.07     0.05  -0.00   0.38
  10   6     0.02   0.00   0.01    -0.00   0.00  -0.04     0.01  -0.05   0.32
  11  17    -0.07   0.51  -0.08     0.01   0.39  -0.12    -0.18  -0.04   0.28
  12   1    -0.02  -0.24   0.10    -0.01  -0.07   0.01    -0.00   0.02  -0.00
  13   1     0.13  -0.19   0.06     0.02  -0.06  -0.03    -0.02   0.01   0.10
  14   1    -0.06  -0.15   0.05     0.01  -0.01   0.01    -0.03  -0.10   0.01
  15   1     0.04   0.00  -0.02    -0.07  -0.04   0.04     0.03   0.13  -0.06
  16   1    -0.09  -0.05  -0.08     0.02  -0.05   0.04     0.02  -0.00  -0.15
  17   1     0.08   0.11  -0.20    -0.10  -0.24   0.37    -0.02  -0.02   0.01
  18   1    -0.03  -0.08   0.17     0.05   0.16  -0.34     0.01   0.00  -0.06
  19   1    -0.00   0.01   0.01     0.02  -0.02  -0.03     0.02   0.00  -0.20
  20   1    -0.01   0.00  -0.00     0.02  -0.00   0.01     0.03   0.03  -0.19
  21   1    -0.00  -0.00  -0.01     0.02   0.00   0.04     0.03   0.03   0.02
  22   1     0.00  -0.00  -0.01     0.00   0.01   0.04     0.01  -0.00   0.20
  23   1     0.01   0.00   0.00    -0.01   0.00  -0.02    -0.00  -0.03   0.17
                      4                      5                      6
                        a                      a                      a 
 Frequencies --    53.2851                73.6438               103.3229
 Red. masses --    26.0105                11.0932                12.7185
 Frc consts  --     0.0000                 0.0000                 0.0000
 IR Inten    --    21.2399                 7.1665                 7.4132
 Raman Activ --     0.0000                 0.0000                 0.0000
 Depolar     --     0.0000                 0.0000                 0.0000
 Atom AN      X      Y      Z        X      Y      Z        X      Y      Z
   1   7    -0.06   0.00   0.00    -0.05  -0.05   0.25    -0.20   0.27   0.11
   2   6    -0.07   0.15  -0.10    -0.03  -0.05   0.22    -0.02  -0.08   0.10
   3   6    -0.09   0.07   0.02     0.04   0.21  -0.20    -0.11  -0.12  -0.26
   4   6    -0.08   0.05   0.00     0.07   0.21  -0.27    -0.13  -0.33  -0.04
   5   6    -0.12  -0.02   0.03     0.04   0.17  -0.29    -0.07  -0.20  -0.13
   6   6    -0.20  -0.01  -0.05    -0.07   0.15  -0.20     0.11  -0.20  -0.12
   7   6    -0.23  -0.06  -0.08    -0.12  -0.01   0.11     0.23  -0.06   0.07
   8   6    -0.19  -0.14  -0.02    -0.04  -0.16   0.34     0.14   0.09   0.19
   9   6    -0.12  -0.16   0.09     0.06  -0.13   0.17    -0.05   0.12   0.05
  10   6    -0.08  -0.10   0.11     0.11   0.04  -0.16    -0.16  -0.03  -0.09
  11  17     0.78   0.13   0.01     0.00  -0.20  -0.07     0.19   0.29   0.03
  12   1    -0.03  -0.03   0.01    -0.02  -0.06   0.13    -0.03   0.09   0.08
  13   1     0.04  -0.00   0.01     0.03  -0.03   0.00    -0.08   0.07  -0.02
  14   1    -0.04  -0.01  -0.00    -0.05   0.06   0.07    -0.08   0.12   0.03
  15   1    -0.02   0.10  -0.03     0.04  -0.12   0.08     0.04  -0.10   0.04
  16   1    -0.02   0.02  -0.09    -0.07   0.02   0.15     0.01  -0.00   0.11
  17   1    -0.04   0.00   0.04     0.02   0.09  -0.10    -0.04   0.03  -0.18
  18   1    -0.01   0.03  -0.02     0.02   0.04  -0.04    -0.06  -0.16   0.10
  19   1    -0.06   0.01  -0.03    -0.04   0.07  -0.09     0.04  -0.08  -0.06
  20   1    -0.08  -0.01  -0.05    -0.06  -0.01   0.06     0.11  -0.02   0.04
  21   1    -0.06  -0.05  -0.01    -0.02  -0.08   0.18     0.07   0.06   0.10
  22   1    -0.03  -0.06   0.04     0.04  -0.07   0.09    -0.04   0.07   0.03
  23   1    -0.01  -0.03   0.05     0.06   0.01  -0.08    -0.09  -0.00  -0.05
                      7                      8                      9
                        a                      a                      a 
 Frequencies --   136.0736               233.7676               300.7226
 Red. masses --    10.4689                 9.3773                 5.5948
 Frc consts  --     0.0000                 0.0000                 0.0000
 IR Inten    --    11.9936                 3.0334                 2.7228
 Raman Activ --     0.0000                 0.0000                 0.0000
 Depolar     --     0.0000                 0.0000                 0.0000
 Atom AN      X      Y      Z        X      Y      Z        X      Y      Z
   1   7     0.14  -0.01  -0.46     0.20  -0.10  -0.10     0.05  -0.05  -0.18
   2   6    -0.10  -0.34   0.24    -0.05   0.20   0.04    -0.17   0.18   0.05
   3   6     0.05   0.01  -0.04    -0.05   0.12   0.36    -0.06   0.33   0.06
   4   6    -0.01   0.01   0.11     0.01  -0.06   0.33     0.04   0.10  -0.03
   5   6     0.00   0.07  -0.01    -0.07  -0.08  -0.13    -0.06  -0.15  -0.01
   6   6    -0.06   0.09  -0.14    -0.02  -0.04  -0.32     0.07  -0.17  -0.02
   7   6    -0.09   0.04  -0.17     0.05  -0.02  -0.03     0.16  -0.06  -0.01
   8   6    -0.06  -0.02  -0.05     0.04  -0.02   0.33     0.12   0.03  -0.08
   9   6     0.00  -0.05   0.07    -0.06   0.05  -0.08    -0.01   0.02   0.00
  10   6     0.03   0.01   0.09    -0.11   0.01  -0.33    -0.07  -0.13   0.08
  11  17     0.05   0.16   0.25    -0.01  -0.03  -0.02    -0.05  -0.06   0.09
  12   1     0.03   0.03  -0.22     0.03  -0.01  -0.17    -0.08  -0.33   0.23
  13   1    -0.05   0.00  -0.15     0.04  -0.00   0.07     0.30  -0.12  -0.34
  14   1     0.18   0.03  -0.10     0.16  -0.14  -0.02    -0.14   0.37  -0.05
  15   1    -0.10  -0.34   0.07    -0.08   0.15  -0.00    -0.08  -0.02   0.01
  16   1    -0.05  -0.03   0.30    -0.00   0.03  -0.08    -0.10   0.08   0.07
  17   1     0.06   0.04  -0.08    -0.01   0.06   0.06    -0.03   0.07   0.06
  18   1    -0.03  -0.04   0.11     0.06  -0.06   0.15     0.09   0.04  -0.04
  19   1    -0.02   0.04  -0.05    -0.00  -0.02  -0.15     0.03  -0.07  -0.02
  20   1    -0.04   0.02  -0.07     0.03  -0.01  -0.00     0.07  -0.02   0.01
  21   1    -0.02  -0.02  -0.01     0.03  -0.02   0.22     0.04   0.03  -0.04
  22   1     0.01  -0.03   0.05    -0.03   0.03  -0.03    -0.02   0.04   0.00
  23   1     0.02  -0.00   0.05    -0.05   0.01  -0.14    -0.04  -0.04   0.04
                     10                     11                     12
                        a                      a                      a 
 Frequencies --   310.4263               322.5267               365.4222
 Red. masses --     7.3024                10.3930                 8.8590
 Frc consts  --     0.0000                 0.0000                 0.0000
 IR Inten    --     6.1047                10.9564                 0.1052
 Raman Activ --     0.0000                 0.0000                 0.0000
 Depolar     --     0.0000                 0.0000                 0.0000
 Atom AN      X      Y      Z        X      Y      Z        X      Y      Z
   1   7    -0.18   0.12  -0.08    -0.47  -0.01  -0.07     0.01   0.01   0.00
   2   6     0.06  -0.14  -0.20    -0.39   0.02  -0.03     0.03  -0.03  -0.01
   3   6     0.04  -0.32   0.14    -0.16   0.19   0.12     0.01  -0.06   0.01
   4   6    -0.05  -0.12   0.26    -0.06   0.06   0.09    -0.00  -0.02  -0.01
   5   6     0.10   0.17   0.10     0.09   0.08   0.02     0.01   0.04  -0.01
   6   6     0.00   0.21  -0.10     0.20   0.07   0.02    -0.04   0.11  -0.42
   7   6    -0.10   0.07  -0.12     0.17  -0.03   0.03    -0.01  -0.06   0.41
   8   6    -0.02  -0.09   0.16     0.24  -0.17  -0.06    -0.03  -0.00   0.00
   9   6     0.08  -0.06  -0.04     0.22  -0.17  -0.06    -0.03   0.07  -0.40
  10   6     0.15   0.11  -0.14     0.23  -0.10   0.01     0.04  -0.04   0.41
  11  17    -0.01   0.00   0.05     0.04   0.03  -0.03    -0.00   0.00   0.00
  12   1    -0.04  -0.11   0.27    -0.10   0.10  -0.12     0.01  -0.00   0.01
  13   1     0.09  -0.04  -0.25    -0.21   0.04   0.09     0.01  -0.00  -0.01
  14   1    -0.25   0.32  -0.03    -0.06  -0.14  -0.02    -0.01   0.01  -0.00
  15   1     0.00   0.05  -0.06    -0.14   0.01  -0.02     0.01   0.00  -0.00
  16   1     0.09  -0.07  -0.12    -0.14   0.01  -0.02     0.02  -0.01  -0.01
  17   1     0.04  -0.08   0.01    -0.03   0.06   0.01    -0.00  -0.02   0.00
  18   1    -0.08  -0.04   0.09     0.00  -0.00   0.06    -0.01  -0.01   0.00
  19   1    -0.01   0.08  -0.04     0.06   0.02  -0.01    -0.02   0.05  -0.26
  20   1    -0.07   0.03  -0.06     0.01  -0.01   0.02    -0.00  -0.04   0.26
  21   1    -0.02  -0.06   0.11     0.06  -0.06  -0.03    -0.01  -0.01  -0.00
  22   1     0.04  -0.05  -0.02     0.06  -0.04  -0.03    -0.01   0.03  -0.25
  23   1     0.08   0.04  -0.09     0.12  -0.03   0.01     0.03  -0.04   0.27
                     13                     14                     15
                        a                      a                      a 
 Frequencies --   450.5911               487.8816               579.9481
 Red. masses --     9.1394                 9.5427                10.8705
 Frc consts  --     0.0000                 0.0000                 0.0000
 IR Inten    --     2.4992                 6.2448                 1.9345
 Raman Activ --     0.0000                 0.0000                 0.0000
 Depolar     --     0.0000                 0.0000                 0.0000
 Atom AN      X      Y      Z        X      Y      Z        X      Y      Z
   1   7     0.21  -0.01  -0.02    -0.23   0.03  -0.04    -0.13  -0.04  -0.06
   2   6    -0.04   0.19   0.12     0.04  -0.21  -0.13    -0.14   0.10   0.05
   3   6    -0.27  -0.17   0.08     0.27   0.05   0.25    -0.02   0.10   0.05
   4   6    -0.19  -0.28  -0.03     0.26   0.15   0.16     0.23  -0.33  -0.14
   5   6     0.04   0.19  -0.41    -0.00  -0.06  -0.42     0.39  -0.14   0.00
   6   6     0.06   0.13   0.06    -0.11  -0.13  -0.07    -0.02  -0.14   0.05
   7   6    -0.01  -0.01   0.18    -0.03  -0.05   0.18    -0.16  -0.23  -0.10
   8   6    -0.01  -0.01  -0.28    -0.11   0.14  -0.21    -0.36   0.15   0.13
   9   6     0.07  -0.08   0.20    -0.02   0.06   0.21     0.08   0.20  -0.04
  10   6     0.11   0.08   0.00    -0.07  -0.01  -0.05     0.21   0.31   0.11
  11  17    -0.01  -0.01   0.01     0.01   0.02  -0.00     0.00   0.00   0.00
  12   1    -0.01  -0.10  -0.04     0.01   0.10   0.06    -0.05  -0.03  -0.03
  13   1     0.14  -0.02  -0.03    -0.14   0.02  -0.02    -0.01  -0.01  -0.01
  14   1     0.11   0.04   0.00    -0.13   0.02  -0.02    -0.02  -0.02  -0.01
  15   1    -0.04   0.15   0.02    -0.01  -0.00  -0.04    -0.07   0.02   0.01
  16   1     0.04   0.02  -0.05     0.02  -0.07  -0.08    -0.07   0.03   0.02
  17   1    -0.13   0.05  -0.12     0.18   0.04   0.01    -0.10   0.04   0.00
  18   1    -0.10  -0.16   0.13     0.15  -0.01   0.11     0.12  -0.10  -0.04
  19   1     0.01   0.05   0.12    -0.02  -0.06   0.08    -0.07   0.07   0.01
  20   1    -0.03  -0.02   0.16     0.05  -0.04   0.17     0.03  -0.06  -0.08
  21   1    -0.01  -0.01  -0.13    -0.03   0.05  -0.08    -0.09   0.05   0.04
  22   1     0.04  -0.06   0.17     0.00  -0.00   0.18     0.08  -0.05  -0.07
  23   1     0.07   0.01   0.08    -0.06  -0.02   0.09    -0.01   0.09   0.01
                     16                     17                     18
                        a                      a                      a 
 Frequencies --   588.8624               654.9925               698.8401
 Red. masses --    11.1391                 9.5293                 4.9378
 Frc consts  --     0.0000                 0.0000                 0.0000
 IR Inten    --     0.0517                 1.0099                33.7279
 Raman Activ --     0.0000                 0.0000                 0.0000
 Depolar     --     0.0000                 0.0000                 0.0000
 Atom AN      X      Y      Z        X      Y      Z        X      Y      Z
   1   7     0.00   0.00   0.01    -0.00  -0.01   0.01    -0.00  -0.02   0.03
   2   6     0.03  -0.02  -0.02    -0.01   0.04  -0.02     0.02   0.07  -0.09
   3   6     0.05   0.04  -0.00     0.00   0.06  -0.12     0.03   0.15  -0.29
   4   6    -0.00   0.09   0.05    -0.01  -0.10   0.09    -0.07  -0.23   0.36
   5   6     0.03   0.16   0.00     0.07  -0.08   0.40     0.00   0.03  -0.10
   6   6     0.43   0.10  -0.03    -0.03   0.04  -0.31    -0.01   0.03  -0.03
   7   6     0.15  -0.44  -0.06    -0.00  -0.07   0.35    -0.03   0.04  -0.09
   8   6    -0.05  -0.17  -0.06    -0.06   0.07  -0.29    -0.01   0.01  -0.05
   9   6    -0.49  -0.14   0.03     0.07  -0.04   0.36     0.04   0.02  -0.12
  10   6    -0.17   0.37   0.05     0.02   0.08  -0.31     0.03   0.02  -0.07
  11  17     0.00   0.00  -0.00    -0.00  -0.00   0.00    -0.01  -0.00  -0.00
  12   1     0.01   0.01   0.01    -0.01  -0.01   0.00    -0.00  -0.01   0.01
  13   1    -0.01   0.00   0.00     0.01   0.00   0.02     0.03   0.01   0.05
  14   1    -0.01  -0.00   0.00    -0.01  -0.02   0.00    -0.03  -0.05   0.00
  15   1     0.01  -0.02  -0.00     0.02  -0.07   0.00     0.05  -0.16  -0.01
  16   1     0.00  -0.00   0.01    -0.04   0.04   0.06    -0.07   0.07   0.13
  17   1     0.04  -0.01   0.03    -0.06  -0.08   0.13    -0.09  -0.22   0.37
  18   1     0.00   0.04  -0.01    -0.00   0.05  -0.10     0.04   0.12  -0.23
  19   1     0.10   0.07   0.01    -0.02   0.04  -0.24     0.02  -0.03   0.23
  20   1    -0.03  -0.12   0.00     0.00  -0.01   0.03     0.01  -0.03   0.22
  21   1     0.07   0.09   0.01    -0.03   0.04  -0.22     0.01  -0.06   0.26
  22   1    -0.12  -0.08   0.02     0.02  -0.01   0.02     0.03  -0.05   0.24
  23   1     0.03   0.10   0.02    -0.01   0.05  -0.24     0.03  -0.04   0.28
                     19                     20                     21
                        a                      a                      a 
 Frequencies --   766.2171               838.8663               841.6264
 Red. masses --     5.8337                 4.9209                 8.5027
 Frc consts  --     0.0000                 0.0000                 0.0000
 IR Inten    --     6.8643                26.1086                12.2647
 Raman Activ --     0.0000                 0.0000                 0.0000
 Depolar     --     0.0000                 0.0000                 0.0000
 Atom AN      X      Y      Z        X      Y      Z        X      Y      Z
   1   7     0.01  -0.01  -0.00    -0.03   0.05  -0.10     0.11   0.09   0.01
   2   6     0.04   0.02  -0.08     0.06   0.16  -0.18     0.01   0.03  -0.16
   3   6     0.04   0.10  -0.10     0.02  -0.08   0.23    -0.11  -0.13   0.03
   4   6    -0.01  -0.18   0.25     0.17  -0.15  -0.17    -0.29   0.36   0.10
   5   6    -0.04   0.09  -0.43     0.04  -0.03   0.06    -0.07   0.05  -0.06
   6   6     0.01   0.03   0.17    -0.03   0.10   0.03     0.05  -0.19  -0.01
   7   6    -0.01   0.06   0.08    -0.01   0.21   0.05     0.03  -0.37  -0.04
   8   6     0.04  -0.05   0.18     0.12  -0.07  -0.04    -0.20   0.12   0.07
   9   6    -0.03  -0.04   0.07    -0.18  -0.08  -0.03     0.30   0.15  -0.00
  10   6    -0.01  -0.04   0.19    -0.08   0.02  -0.03     0.13  -0.02  -0.03
  11  17    -0.00  -0.00   0.00    -0.00  -0.01  -0.01    -0.00  -0.01  -0.00
  12   1     0.02   0.01   0.04    -0.01  -0.08   0.12     0.01  -0.05   0.08
  13   1     0.01   0.01   0.04     0.23   0.07   0.29     0.19   0.06   0.19
  14   1    -0.06  -0.04  -0.01    -0.32  -0.27  -0.07    -0.14  -0.15  -0.02
  15   1     0.02  -0.11  -0.01    -0.13  -0.32  -0.05    -0.05  -0.20  -0.04
  16   1    -0.03   0.04   0.08     0.05   0.14   0.31     0.07   0.06   0.18
  17   1    -0.05  -0.12   0.23    -0.02   0.08  -0.11     0.06  -0.02  -0.02
  18   1     0.07   0.03  -0.08     0.08  -0.11   0.06    -0.19   0.07   0.09
  19   1    -0.01   0.03  -0.19    -0.01   0.04  -0.02     0.01  -0.05  -0.04
  20   1    -0.05   0.07  -0.30    -0.07   0.06  -0.00     0.11  -0.10  -0.08
  21   1    -0.02   0.05  -0.39     0.03  -0.03   0.03    -0.05   0.05  -0.05
  22   1    -0.03   0.06  -0.32    -0.07   0.01   0.07     0.12  -0.03  -0.01
  23   1    -0.01   0.04  -0.24    -0.00  -0.01   0.06     0.01  -0.01   0.05
                     22                     23                     24
                        a                      a                      a 
 Frequencies --   872.3018               900.0196               924.5981
 Red. masses --     3.3261                 3.6912                 3.9704
 Frc consts  --     0.0000                 0.0000                 0.0000
 IR Inten    --     2.9783                 0.6126                 2.3602
 Raman Activ --     0.0000                 0.0000                 0.0000
 Depolar     --     0.0000                 0.0000                 0.0000
 Atom AN      X      Y      Z        X      Y      Z        X      Y      Z
   1   7     0.00  -0.01  -0.00    -0.03   0.01  -0.01    -0.06   0.01  -0.01
   2   6    -0.01  -0.04   0.03    -0.01   0.03   0.02    -0.00   0.03   0.03
   3   6     0.01   0.02  -0.01     0.01  -0.02  -0.00     0.03  -0.03  -0.02
   4   6     0.01  -0.02   0.01     0.03  -0.00  -0.03     0.02   0.02  -0.00
   5   6     0.01  -0.01   0.01     0.02  -0.02   0.08     0.01  -0.01   0.06
   6   6     0.01  -0.02   0.21    -0.03   0.03  -0.23    -0.03   0.03  -0.23
   7   6     0.01  -0.01   0.20     0.00   0.02  -0.06     0.01  -0.02   0.11
   8   6     0.01  -0.02   0.08     0.04  -0.06   0.27     0.02  -0.04   0.22
   9   6    -0.02   0.02  -0.15    -0.01  -0.04   0.17    -0.03   0.06  -0.33
  10   6    -0.02   0.06  -0.30    -0.02   0.05  -0.24     0.01  -0.02   0.15
  11  17     0.00   0.00   0.01    -0.00   0.00  -0.00    -0.00  -0.00   0.00
  12   1     0.01   0.01  -0.01    -0.03  -0.03  -0.03    -0.06  -0.05  -0.05
  13   1    -0.04  -0.01  -0.04     0.02   0.00   0.00     0.04   0.00   0.01
  14   1     0.04   0.06   0.01     0.02  -0.01   0.00     0.03  -0.01   0.00
  15   1     0.02   0.05   0.01     0.00   0.01   0.01     0.01   0.02   0.01
  16   1    -0.01  -0.03  -0.05     0.01   0.01   0.00     0.02   0.00   0.00
  17   1    -0.01   0.03  -0.04     0.02   0.01  -0.03     0.03  -0.02   0.01
  18   1     0.01   0.02  -0.04    -0.00   0.00  -0.01    -0.00  -0.00   0.02
  19   1    -0.03   0.05  -0.39     0.03  -0.06   0.47     0.02  -0.04   0.31
  20   1    -0.04   0.08  -0.42     0.00  -0.01   0.05    -0.01   0.02  -0.13
  21   1    -0.01   0.02  -0.13    -0.02   0.07  -0.43    -0.02   0.07  -0.41
  22   1     0.01  -0.05   0.30    -0.03   0.07  -0.37     0.03  -0.10   0.58
  23   1     0.04  -0.10   0.56     0.03  -0.07   0.44    -0.02   0.05  -0.28
                     25                     26                     27
                        a                      a                      a 
 Frequencies --   932.4962               938.3639               969.4348
 Red. masses --     3.5383                 5.2270                 2.1992
 Frc consts  --     0.0000                 0.0000                 0.0000
 IR Inten    --     8.4325                54.9939                25.5033
 Raman Activ --     0.0000                 0.0000                 0.0000
 Depolar     --     0.0000                 0.0000                 0.0000
 Atom AN      X      Y      Z        X      Y      Z        X      Y      Z
   1   7     0.12  -0.04   0.02     0.37  -0.09   0.06     0.04   0.03   0.02
   2   6    -0.01  -0.06  -0.06    -0.07  -0.15  -0.18    -0.05  -0.02  -0.03
   3   6    -0.06   0.07   0.05    -0.19   0.20   0.12    -0.04  -0.07   0.13
   4   6    -0.02  -0.03  -0.03    -0.08  -0.08  -0.09    -0.04  -0.14   0.23
   5   6     0.00  -0.01   0.06    -0.01  -0.01   0.03    -0.03   0.02  -0.03
   6   6     0.02  -0.01   0.17     0.00   0.04  -0.11     0.00  -0.00  -0.02
   7   6    -0.03   0.06  -0.32     0.01  -0.03   0.11     0.00  -0.03  -0.00
   8   6     0.00  -0.04   0.20    -0.00  -0.00  -0.02     0.01   0.00   0.00
   9   6     0.01   0.01  -0.04     0.03   0.01  -0.02     0.02   0.01   0.00
  10   6    -0.00   0.01  -0.06     0.02   0.01   0.02     0.01  -0.01   0.03
  11  17     0.00   0.00   0.00     0.01   0.00  -0.00     0.00   0.00  -0.00
  12   1     0.13   0.12   0.11     0.37   0.34   0.31     0.01   0.01   0.00
  13   1    -0.10  -0.00  -0.02    -0.28  -0.01  -0.06     0.02   0.01   0.01
  14   1    -0.07   0.03  -0.01    -0.19   0.08  -0.01     0.01  -0.00   0.00
  15   1    -0.03  -0.03  -0.02    -0.10  -0.07  -0.06     0.01  -0.01  -0.00
  16   1    -0.05  -0.00  -0.01    -0.15  -0.01  -0.03    -0.03   0.00   0.01
  17   1    -0.06   0.03   0.00    -0.13   0.07   0.02     0.12   0.29  -0.49
  18   1    -0.00  -0.02   0.01     0.01  -0.05   0.03     0.10   0.36  -0.63
  19   1    -0.02   0.05  -0.36     0.00   0.00   0.24    -0.01   0.02   0.02
  20   1     0.03  -0.10   0.61    -0.02   0.03  -0.21     0.01  -0.01   0.01
  21   1    -0.03   0.06  -0.40     0.00  -0.02   0.06     0.00   0.01  -0.01
  22   1     0.02  -0.03   0.16     0.01  -0.00   0.01     0.00   0.01   0.00
  23   1    -0.00   0.00  -0.00     0.01   0.00  -0.00     0.01   0.01  -0.06
                     28                     29                     30
                        a                      a                      a 
 Frequencies --   988.2582              1027.5496              1045.5244
 Red. masses --    10.6326                 9.4673                 4.6578
 Frc consts  --     0.0000                 0.0000                 0.0000
 IR Inten    --     0.8458                12.4634                 7.8417
 Raman Activ --     0.0000                 0.0000                 0.0000
 Depolar     --     0.0000                 0.0000                 0.0000
 Atom AN      X      Y      Z        X      Y      Z        X      Y      Z
   1   7    -0.08  -0.06  -0.06    -0.24  -0.34  -0.27     0.06   0.09  -0.22
   2   6     0.10   0.06   0.06     0.50   0.32   0.27    -0.01  -0.23   0.37
   3   6     0.04   0.02   0.02    -0.00  -0.04   0.03    -0.00   0.17  -0.20
   4   6     0.08  -0.11  -0.06    -0.08   0.05   0.03    -0.02  -0.04   0.03
   5   6    -0.11   0.05   0.04    -0.05   0.05  -0.01    -0.01   0.00   0.02
   6   6     0.43   0.38   0.03    -0.10  -0.09  -0.01    -0.01  -0.00  -0.01
   7   6    -0.05  -0.13  -0.02     0.02  -0.07  -0.01     0.00  -0.01  -0.00
   8   6    -0.31   0.18   0.05     0.07  -0.02  -0.01     0.01  -0.00  -0.00
   9   6     0.11   0.12   0.01     0.03   0.00  -0.00     0.01   0.00  -0.00
  10   6    -0.12  -0.52  -0.09     0.02   0.07   0.02     0.00   0.01   0.00
  11  17     0.00   0.00   0.00     0.01   0.01   0.00    -0.00  -0.00  -0.01
  12   1    -0.01   0.00  -0.00     0.07   0.10   0.07     0.06  -0.02   0.18
  13   1    -0.04  -0.01  -0.02    -0.29  -0.07  -0.10     0.15   0.08   0.21
  14   1    -0.04  -0.01  -0.02    -0.22  -0.02  -0.08    -0.32  -0.21  -0.10
  15   1     0.02   0.01   0.01     0.10   0.01   0.07    -0.33   0.33   0.03
  16   1     0.01   0.02   0.01     0.03   0.10   0.09     0.35  -0.19  -0.19
  17   1    -0.03   0.02  -0.01    -0.17   0.06  -0.07    -0.02  -0.01   0.04
  18   1     0.10  -0.05  -0.00    -0.15   0.05  -0.04     0.03   0.04  -0.08
  19   1     0.08   0.18   0.04    -0.04  -0.01   0.01    -0.00  -0.00   0.01
  20   1    -0.13  -0.03  -0.00     0.05  -0.02  -0.02     0.00  -0.00   0.01
  21   1    -0.09   0.04   0.01     0.03   0.01   0.00     0.00  -0.00   0.00
  22   1    -0.02   0.11   0.02     0.01  -0.00   0.00     0.00  -0.00  -0.00
  23   1    -0.10  -0.15  -0.01     0.03   0.02   0.00     0.01   0.00  -0.01
                     31                     32                     33
                        a                      a                      a 
 Frequencies --  1090.9364              1122.2920              1152.9304
 Red. masses --     6.6749                 4.4654                 7.3500
 Frc consts  --     0.0000                 0.0000                 0.0000
 IR Inten    --     0.3413                 0.2063                 1.0085
 Raman Activ --     0.0000                 0.0000                 0.0000
 Depolar     --     0.0000                 0.0000                 0.0000
 Atom AN      X      Y      Z        X      Y      Z        X      Y      Z
   1   7     0.00  -0.02  -0.02     0.04   0.03   0.02     0.12  -0.04  -0.01
   2   6     0.00   0.04   0.02    -0.10   0.01  -0.01    -0.34   0.29   0.13
   3   6    -0.01  -0.02  -0.01     0.08  -0.07  -0.04     0.29  -0.35  -0.17
   4   6    -0.02   0.01   0.01     0.08   0.02   0.04     0.15   0.12   0.10
   5   6     0.01   0.01  -0.00     0.16   0.12  -0.00     0.18  -0.04  -0.06
   6   6     0.12  -0.06  -0.02    -0.24  -0.01   0.02     0.09  -0.02  -0.01
   7   6     0.14   0.31   0.05    -0.01  -0.18  -0.03    -0.02   0.08   0.02
   8   6    -0.37   0.24   0.07     0.12   0.15   0.02    -0.03  -0.02  -0.00
   9   6    -0.25  -0.28  -0.03    -0.18  -0.06   0.00    -0.04  -0.02   0.00
  10   6     0.13  -0.12  -0.03     0.08  -0.26  -0.05    -0.06  -0.05   0.00
  11  17     0.00   0.00  -0.00    -0.00  -0.00   0.00     0.00   0.00  -0.00
  12   1     0.02   0.02   0.02     0.01  -0.00   0.01     0.11   0.10   0.10
  13   1    -0.03  -0.00  -0.01     0.01   0.01   0.01    -0.09   0.01   0.01
  14   1    -0.02   0.00  -0.01     0.00   0.01   0.00    -0.10   0.02  -0.02
  15   1    -0.01   0.01   0.01    -0.07   0.01  -0.01    -0.26   0.09   0.00
  16   1    -0.01   0.01   0.01    -0.06   0.01  -0.01    -0.24   0.09   0.01
  17   1     0.03   0.00  -0.02    -0.14  -0.02   0.01     0.04  -0.09  -0.05
  18   1    -0.00   0.01  -0.01    -0.13   0.02   0.01    -0.32   0.09  -0.02
  19   1     0.16  -0.23  -0.03    -0.25   0.33   0.04     0.07  -0.08  -0.03
  20   1     0.37   0.09  -0.01     0.20  -0.06  -0.02    -0.09   0.03   0.01
  21   1    -0.09   0.10   0.02     0.23   0.37   0.05    -0.05  -0.07  -0.01
  22   1     0.06  -0.32  -0.06    -0.21   0.26   0.06    -0.01  -0.01  -0.00
  23   1     0.36  -0.04  -0.03     0.32  -0.08  -0.04    -0.28  -0.01   0.01
                     34                     35                     36
                        a                      a                      a 
 Frequencies --  1182.3315              1189.8219              1215.3438
 Red. masses --     1.3633                 2.9383                 2.9379
 Frc consts  --     0.0000                 0.0000                 0.0000
 IR Inten    --     0.0234                 1.5000                11.3834
 Raman Activ --     0.0000                 0.0000                 0.0000
 Depolar     --     0.0000                 0.0000                 0.0000
 Atom AN      X      Y      Z        X      Y      Z        X      Y      Z
   1   7     0.00  -0.01  -0.00    -0.03   0.06   0.01    -0.01  -0.16   0.15
   2   6     0.00   0.01   0.01     0.11  -0.17  -0.06    -0.07   0.21  -0.06
   3   6    -0.02  -0.00  -0.00    -0.03   0.13   0.08     0.01  -0.09  -0.12
   4   6    -0.01  -0.01  -0.01    -0.01   0.06   0.04    -0.03  -0.01  -0.00
   5   6    -0.05  -0.05  -0.00     0.19  -0.08  -0.04    -0.11   0.02   0.03
   6   6    -0.08   0.05   0.01     0.02   0.06   0.00    -0.07   0.09   0.03
   7   6    -0.03  -0.01   0.00     0.09   0.10   0.01     0.05  -0.04  -0.01
   8   6     0.05   0.07   0.01    -0.00   0.00   0.00     0.05  -0.03  -0.01
   9   6     0.02  -0.03  -0.01    -0.04  -0.13  -0.02     0.05  -0.01  -0.01
  10   6     0.08  -0.04  -0.01    -0.09  -0.06  -0.00    -0.05   0.03   0.00
  11  17    -0.00   0.00  -0.00    -0.00  -0.00   0.00     0.00   0.00   0.00
  12   1     0.01   0.01   0.00    -0.06  -0.07  -0.04     0.04   0.09  -0.05
  13   1    -0.01  -0.00  -0.00     0.07   0.01   0.02    -0.14  -0.08  -0.13
  14   1    -0.00   0.00  -0.00     0.04  -0.02   0.01     0.08   0.12   0.05
  15   1     0.00   0.00   0.00     0.07  -0.03  -0.01    -0.42  -0.04  -0.08
  16   1     0.01   0.00   0.00     0.01  -0.05  -0.04     0.42   0.05   0.17
  17   1     0.05  -0.01   0.00    -0.30   0.08  -0.01     0.24  -0.07   0.00
  18   1     0.04  -0.01  -0.00    -0.28   0.07  -0.03     0.31  -0.05   0.02
  19   1     0.05  -0.12  -0.02    -0.17   0.34   0.07    -0.14   0.23   0.02
  20   1    -0.44   0.00   0.03     0.29   0.03  -0.02     0.27  -0.02  -0.02
  21   1     0.38   0.61   0.08    -0.00   0.00   0.00     0.02   0.00  -0.00
  22   1     0.22  -0.39  -0.08     0.14  -0.31  -0.07     0.11  -0.17  -0.03
  23   1    -0.13  -0.01   0.01    -0.51  -0.01   0.03    -0.12   0.01   0.02
                     37                     38                     39
                        a                      a                      a 
 Frequencies --  1221.3966              1249.3489              1275.7525
 Red. masses --     3.4365                 6.9755                 4.3524
 Frc consts  --     0.0000                 0.0000                 0.0000
 IR Inten    --     9.2347                 6.0784                 2.7373
 Raman Activ --     0.0000                 0.0000                 0.0000
 Depolar     --     0.0000                 0.0000                 0.0000
 Atom AN      X      Y      Z        X      Y      Z        X      Y      Z
   1   7    -0.07  -0.07   0.18    -0.01   0.08   0.08     0.02   0.00  -0.00
   2   6     0.14  -0.06  -0.17     0.04  -0.07  -0.05    -0.03   0.01   0.01
   3   6    -0.03   0.17   0.04     0.26  -0.03   0.01     0.02  -0.17  -0.10
   4   6     0.01   0.03   0.03     0.28  -0.13  -0.04    -0.05   0.24   0.12
   5   6     0.19  -0.07  -0.04    -0.44   0.26   0.06    -0.02  -0.31  -0.06
   6   6     0.10  -0.10  -0.03    -0.08   0.02   0.01     0.14  -0.13  -0.03
   7   6    -0.05   0.08   0.02     0.02  -0.15  -0.02     0.11   0.10   0.01
   8   6    -0.06   0.04   0.01     0.05  -0.01  -0.00     0.04   0.11   0.02
   9   6    -0.08  -0.01   0.00     0.16   0.07   0.00    -0.06   0.09   0.02
  10   6     0.06  -0.05  -0.01    -0.14   0.07   0.02    -0.08   0.04   0.01
  11  17     0.00  -0.00   0.00    -0.00  -0.00   0.00     0.00  -0.00   0.00
  12   1    -0.05  -0.00  -0.11    -0.06  -0.06  -0.05    -0.00  -0.01  -0.00
  13   1    -0.05  -0.06  -0.12     0.03   0.01  -0.00    -0.02   0.01   0.02
  14   1     0.15   0.09   0.07     0.05   0.01   0.02    -0.01   0.01  -0.00
  15   1    -0.38  -0.08  -0.11    -0.29   0.02  -0.07    -0.02   0.01  -0.00
  16   1     0.41  -0.02   0.11    -0.19   0.00  -0.03    -0.02  -0.00  -0.00
  17   1    -0.23   0.09  -0.03    -0.43   0.07  -0.05    -0.33   0.01  -0.07
  18   1    -0.34   0.08  -0.05    -0.08  -0.03  -0.00     0.25   0.02   0.05
  19   1     0.12  -0.19  -0.02     0.06  -0.15  -0.02    -0.18   0.36   0.07
  20   1    -0.29   0.03   0.02     0.12  -0.04  -0.02    -0.36   0.04   0.03
  21   1    -0.03  -0.01  -0.00    -0.00  -0.04  -0.01    -0.12  -0.17  -0.02
  22   1    -0.12   0.17   0.04     0.16  -0.18  -0.04     0.10  -0.19  -0.04
  23   1     0.06  -0.02  -0.01     0.15   0.02  -0.00     0.34   0.01  -0.02
                     40                     41                     42
                        a                      a                      a 
 Frequencies --  1304.1140              1324.6008              1338.7763
 Red. masses --     3.5253                 5.0626                10.7774
 Frc consts  --     0.0000                 0.0000                 0.0000
 IR Inten    --     5.1443                11.7193                 1.4902
 Raman Activ --     0.0000                 0.0000                 0.0000
 Depolar     --     0.0000                 0.0000                 0.0000
 Atom AN      X      Y      Z        X      Y      Z        X      Y      Z
   1   7    -0.03  -0.01  -0.00    -0.01  -0.15  -0.09     0.02   0.05   0.03
   2   6    -0.00   0.03   0.02    -0.42   0.08  -0.03     0.14  -0.03   0.00
   3   6     0.05   0.19   0.11     0.08  -0.01   0.00    -0.08  -0.02  -0.03
   4   6     0.04  -0.22  -0.13     0.17  -0.01   0.02    -0.08   0.02   0.01
   5   6    -0.09  -0.00  -0.01    -0.01   0.19   0.03     0.25   0.33   0.05
   6   6     0.05  -0.11  -0.02     0.03  -0.09  -0.02     0.19  -0.33  -0.07
   7   6     0.01  -0.03  -0.00    -0.11  -0.04   0.00    -0.37   0.03   0.03
   8   6     0.12   0.15   0.02     0.08   0.10   0.01     0.18   0.30   0.04
   9   6     0.04   0.03   0.00     0.08  -0.07  -0.02     0.17  -0.33  -0.07
  10   6    -0.21  -0.00   0.01    -0.17  -0.00   0.01    -0.35   0.01   0.02
  11  17    -0.00   0.00  -0.00     0.00  -0.00  -0.00     0.00   0.00   0.00
  12   1     0.02   0.05   0.01     0.12   0.15   0.06    -0.05  -0.07  -0.02
  13   1     0.04  -0.01  -0.03     0.05  -0.00   0.13    -0.05   0.00  -0.05
  14   1     0.00  -0.02   0.00     0.01   0.14  -0.01    -0.01  -0.06   0.00
  15   1     0.01   0.00   0.01     0.47  -0.05   0.09    -0.13   0.01  -0.03
  16   1    -0.00   0.01   0.00     0.50  -0.04   0.06    -0.14   0.01  -0.02
  17   1     0.48  -0.04   0.11    -0.23   0.03  -0.02     0.02  -0.01  -0.01
  18   1    -0.50   0.01  -0.06    -0.04   0.01   0.01     0.23  -0.02   0.02
  19   1    -0.14   0.24   0.03     0.04  -0.07  -0.01     0.01  -0.01   0.00
  20   1    -0.14  -0.01   0.01     0.01  -0.01  -0.00    -0.02   0.01  -0.00
  21   1    -0.07  -0.13  -0.02    -0.01  -0.02  -0.00     0.01   0.02   0.00
  22   1     0.13  -0.21  -0.04     0.04  -0.05  -0.01    -0.01   0.01   0.00
  23   1     0.28  -0.01  -0.02     0.02   0.00  -0.00    -0.06   0.00   0.01
                     43                     44                     45
                        a                      a                      a 
 Frequencies --  1367.8810              1405.3554              1436.3181
 Red. masses --     2.5762                 1.6974                 8.8561
 Frc consts  --     0.0000                 0.0000                 0.0000
 IR Inten    --   146.3894                82.2443                 0.5009
 Raman Activ --     0.0000                 0.0000                 0.0000
 Depolar     --     0.0000                 0.0000                 0.0000
 Atom AN      X      Y      Z        X      Y      Z        X      Y      Z
   1   7     0.26   0.17   0.04    -0.03   0.11   0.16     0.00  -0.00   0.01
   2   6    -0.13   0.06  -0.01    -0.08   0.04   0.04    -0.03   0.02   0.01
   3   6     0.03   0.01   0.02     0.01  -0.03  -0.01     0.09   0.00   0.02
   4   6     0.04  -0.02  -0.01     0.03   0.02   0.02    -0.00   0.03  -0.00
   5   6    -0.03  -0.01  -0.00     0.01   0.02   0.00    -0.22  -0.35  -0.06
   6   6    -0.01   0.02   0.00    -0.02   0.01   0.00     0.30  -0.02  -0.02
   7   6     0.01  -0.01  -0.00     0.01  -0.02  -0.00    -0.27   0.22   0.06
   8   6    -0.00  -0.02  -0.00     0.01   0.01   0.00    -0.17  -0.26  -0.03
   9   6     0.00   0.02   0.00    -0.02   0.02   0.00     0.33  -0.15  -0.05
  10   6    -0.01   0.00   0.00     0.00  -0.02  -0.00    -0.13   0.26   0.06
  11  17     0.01   0.01   0.00    -0.00  -0.00   0.01    -0.00  -0.00   0.00
  12   1    -0.23  -0.51   0.08     0.09   0.27  -0.13     0.01   0.03  -0.03
  13   1    -0.60   0.05  -0.18     0.27  -0.19  -0.64     0.03  -0.01  -0.02
  14   1    -0.14  -0.28  -0.03    -0.18  -0.52  -0.03    -0.03  -0.01  -0.00
  15   1     0.13  -0.09   0.02     0.09  -0.05   0.03     0.01  -0.02   0.01
  16   1     0.18  -0.03  -0.03     0.05  -0.02  -0.05     0.02  -0.01  -0.02
  17   1    -0.00   0.01   0.00    -0.07   0.00  -0.01    -0.01   0.01  -0.00
  18   1    -0.06   0.00  -0.00     0.02  -0.00   0.01    -0.11   0.02  -0.01
  19   1     0.00  -0.01  -0.00     0.01  -0.02  -0.01    -0.00   0.15   0.03
  20   1     0.00  -0.00  -0.00    -0.00  -0.00  -0.01     0.20   0.06  -0.00
  21   1    -0.00  -0.01  -0.00    -0.01  -0.01  -0.01     0.18   0.30   0.04
  22   1     0.01  -0.01   0.00     0.00  -0.01   0.00    -0.05   0.22   0.04
  23   1     0.02   0.00   0.00    -0.01  -0.01   0.01     0.13   0.07   0.00
                     46                     47                     48
                        a                      a                      a 
 Frequencies --  1450.1073              1461.3232              1474.2731
 Red. masses --     1.8439                 1.9120                 9.0019
 Frc consts  --     0.0000                 0.0000                 0.0000
 IR Inten    --    51.5261                48.7514                 0.2488
 Raman Activ --     0.0000                 0.0000                 0.0000
 Depolar     --     0.0000                 0.0000                 0.0000
 Atom AN      X      Y      Z        X      Y      Z        X      Y      Z
   1   7    -0.17   0.06  -0.13     0.11  -0.04   0.08    -0.00  -0.00  -0.00
   2   6    -0.01  -0.07  -0.09    -0.02  -0.20  -0.13     0.03  -0.02  -0.01
   3   6     0.00  -0.02  -0.01    -0.00   0.00  -0.00    -0.07  -0.01  -0.01
   4   6     0.02   0.01   0.01     0.02  -0.01  -0.00    -0.07   0.08   0.04
   5   6    -0.02  -0.01  -0.00    -0.02   0.01   0.00     0.36  -0.23  -0.06
   6   6     0.02  -0.01  -0.00     0.01  -0.01  -0.00    -0.02   0.32   0.05
   7   6    -0.00   0.01   0.00     0.01   0.01   0.00    -0.34  -0.10   0.01
   8   6    -0.01  -0.01  -0.00    -0.01  -0.00   0.00     0.22  -0.13  -0.04
   9   6     0.01  -0.01  -0.00     0.00  -0.01  -0.00    -0.05   0.33   0.06
  10   6     0.00   0.01   0.00     0.01   0.01  -0.00    -0.31  -0.11   0.00
  11  17    -0.00   0.00   0.00     0.00   0.00   0.00     0.00   0.00   0.00
  12   1     0.12  -0.05   0.57    -0.08   0.01  -0.32    -0.00  -0.00   0.00
  13   1    -0.01  -0.01  -0.10    -0.05  -0.02  -0.03    -0.00   0.00   0.00
  14   1     0.51  -0.31   0.03    -0.33   0.09  -0.03     0.00   0.00   0.00
  15   1     0.01   0.31  -0.01     0.11   0.58  -0.00    -0.00   0.03  -0.00
  16   1    -0.01   0.11   0.33    -0.04   0.17   0.56    -0.01   0.01   0.03
  17   1    -0.02  -0.00  -0.01     0.01  -0.00   0.01    -0.02   0.00  -0.02
  18   1    -0.00   0.00   0.00    -0.02   0.00   0.00    -0.01   0.03   0.00
  19   1    -0.00   0.01   0.00    -0.01   0.01   0.00     0.16  -0.20  -0.03
  20   1     0.00   0.00  -0.00    -0.01   0.00  -0.00     0.24  -0.04  -0.02
  21   1     0.01   0.01   0.00    -0.00   0.00  -0.00     0.07  -0.03  -0.01
  22   1    -0.01   0.01   0.00    -0.00   0.01   0.00     0.15  -0.19  -0.04
  23   1    -0.00   0.00   0.00    -0.01   0.00   0.00     0.26  -0.04  -0.03
                     49                     50                     51
                        a                      a                      a 
 Frequencies --  1589.5644              1600.9771              1680.3126
 Red. masses --    11.4653                11.4939                11.6634
 Frc consts  --     0.0000                 0.0000                 0.0000
 IR Inten    --     0.0527                 1.2717                 2.6273
 Raman Activ --     0.0000                 0.0000                 0.0000
 Depolar     --     0.0000                 0.0000                 0.0000
 Atom AN      X      Y      Z        X      Y      Z        X      Y      Z
   1   7     0.00  -0.00  -0.00     0.00  -0.00  -0.00     0.01  -0.01  -0.00
   2   6     0.01  -0.00  -0.00     0.01  -0.00  -0.00     0.09  -0.02  -0.00
   3   6    -0.08  -0.00  -0.02    -0.07  -0.01  -0.02    -0.66  -0.10  -0.17
   4   6     0.05  -0.02   0.01     0.10   0.00   0.01     0.64   0.12   0.18
   5   6     0.19   0.39   0.06    -0.25   0.06   0.02    -0.07  -0.04  -0.01
   6   6     0.05  -0.34  -0.06     0.31  -0.26  -0.06    -0.03   0.07   0.02
   7   6     0.19   0.22   0.02    -0.48   0.07   0.05     0.05  -0.02  -0.01
   8   6    -0.27  -0.50  -0.07     0.23  -0.03  -0.02    -0.01   0.04   0.01
   9   6     0.02   0.37   0.06    -0.31   0.28   0.07     0.05  -0.07  -0.02
  10   6    -0.21  -0.16  -0.02     0.46  -0.10  -0.05    -0.07   0.04   0.01
  11  17    -0.00   0.00  -0.00     0.00  -0.00  -0.00     0.00   0.00  -0.00
  12   1    -0.00  -0.00  -0.00     0.00  -0.00  -0.00     0.00  -0.00   0.00
  13   1    -0.00   0.00   0.00    -0.00   0.00   0.00    -0.01   0.00   0.01
  14   1     0.00   0.00   0.00    -0.00   0.00  -0.00    -0.00   0.01  -0.00
  15   1    -0.00  -0.01  -0.00     0.00  -0.01   0.00     0.00  -0.02   0.00
  16   1    -0.00  -0.00  -0.00    -0.00  -0.00  -0.01    -0.01  -0.00  -0.02
  17   1     0.02  -0.01   0.01     0.01  -0.01  -0.00     0.08  -0.08  -0.03
  18   1     0.04  -0.00   0.01    -0.02   0.00   0.01    -0.09   0.07   0.05
  19   1    -0.07   0.07   0.01    -0.01   0.09   0.01     0.00  -0.00  -0.01
  20   1    -0.03   0.06   0.01     0.11   0.02  -0.01    -0.00  -0.01  -0.00
  21   1     0.08   0.12   0.02     0.04  -0.05  -0.01    -0.01   0.00  -0.00
  22   1     0.08  -0.03  -0.01     0.02  -0.10  -0.02    -0.01   0.02   0.00
  23   1     0.06  -0.04  -0.01    -0.10  -0.02   0.00     0.02   0.01  -0.00
                     52                     53                     54
                        a                      a                      a 
 Frequencies --  2864.3413              2929.9318              2961.4372
 Red. masses --     1.9783                 1.9736                 1.4993
 Frc consts  --     0.0000                 0.0000                 0.0000
 IR Inten    --  1408.6308                 0.8274                 3.1354
 Raman Activ --     0.0000                 0.0000                 0.0000
 Depolar     --     0.0000                 0.0000                 0.0000
 Atom AN      X      Y      Z        X      Y      Z        X      Y      Z
   1   7    -0.01  -0.26   0.08    -0.00  -0.03   0.01    -0.00  -0.02   0.01
   2   6    -0.00   0.03  -0.02    -0.05  -0.18   0.23     0.01  -0.16  -0.14
   3   6    -0.00   0.00   0.00    -0.00  -0.00   0.00     0.01   0.00   0.00
   4   6    -0.00  -0.00  -0.00     0.00   0.00  -0.00    -0.00   0.00   0.00
   5   6     0.00   0.00   0.00     0.00   0.00  -0.00     0.00  -0.00  -0.00
   6   6     0.00   0.00   0.00    -0.00  -0.00  -0.00    -0.00   0.00   0.00
   7   6    -0.00  -0.00  -0.00     0.00  -0.00  -0.00     0.00   0.00  -0.00
   8   6     0.00  -0.00  -0.00     0.00  -0.00   0.00     0.00  -0.00  -0.00
   9   6     0.00   0.00  -0.00     0.00   0.00   0.00     0.00  -0.00  -0.00
  10   6    -0.00  -0.00  -0.00     0.00   0.00   0.00    -0.00   0.00  -0.00
  11  17    -0.00   0.01  -0.00    -0.00   0.00  -0.00    -0.00   0.00   0.00
  12   1    -0.02  -0.00   0.01    -0.00   0.00   0.00    -0.00  -0.00   0.00
  13   1     0.10   0.91  -0.25     0.01   0.10  -0.03     0.00   0.05  -0.02
  14   1     0.00  -0.02  -0.03    -0.00  -0.00   0.01     0.00  -0.00  -0.03
  15   1    -0.00   0.01   0.02     0.10  -0.04  -0.62    -0.12  -0.01   0.73
  16   1    -0.01  -0.11   0.04     0.09   0.68  -0.20     0.09   0.59  -0.22
  17   1    -0.00  -0.00  -0.01    -0.00  -0.01  -0.00    -0.00  -0.03  -0.02
  18   1     0.00   0.00   0.00    -0.00  -0.00   0.00     0.00  -0.01  -0.01
  19   1    -0.00   0.00  -0.00    -0.00   0.00  -0.00     0.00   0.00  -0.00
  20   1     0.00   0.00   0.00     0.00   0.00  -0.00    -0.00   0.00   0.00
  21   1    -0.00   0.00  -0.00    -0.00   0.00   0.00    -0.00   0.00   0.00
  22   1    -0.00  -0.00  -0.00    -0.00  -0.00   0.00    -0.00  -0.00  -0.00
  23   1    -0.00   0.00  -0.00     0.00  -0.00   0.00     0.00  -0.00  -0.00
                     55                     56                     57
                        a                      a                      a 
 Frequencies --  3088.6324              3094.6237              3100.4810
 Red. masses --     1.7513                 1.8013                 1.8138
 Frc consts  --     0.0000                 0.0000                 0.0000
 IR Inten    --     1.4360                18.3786                 3.6982
 Raman Activ --     0.0000                 0.0000                 0.0000
 Depolar     --     0.0000                 0.0000                 0.0000
 Atom AN      X      Y      Z        X      Y      Z        X      Y      Z
   1   7     0.00   0.00  -0.00     0.00  -0.00  -0.00     0.00  -0.00  -0.00
   2   6     0.00  -0.00  -0.00     0.00   0.00   0.00     0.00   0.00   0.00
   3   6    -0.00  -0.00  -0.00    -0.00   0.00   0.00     0.02   0.05   0.04
   4   6     0.00   0.01   0.01     0.00   0.02   0.01    -0.03  -0.20  -0.12
   5   6     0.00  -0.00  -0.00    -0.00  -0.00  -0.00    -0.01  -0.00  -0.00
   6   6     0.01   0.00  -0.00    -0.03  -0.01   0.00    -0.01  -0.01  -0.00
   7   6    -0.00  -0.08  -0.01     0.00   0.18   0.03     0.00   0.07   0.01
   8   6    -0.14   0.08   0.02     0.08  -0.05  -0.01    -0.03   0.02   0.01
   9   6     0.16   0.09   0.00     0.12   0.06   0.00     0.04   0.02   0.00
  10   6     0.00  -0.06  -0.01    -0.00  -0.10  -0.02     0.00   0.08   0.01
  11  17     0.00   0.00  -0.00     0.00  -0.00  -0.00    -0.00  -0.00   0.00
  12   1     0.00  -0.00  -0.00    -0.00   0.00   0.00    -0.00   0.00   0.00
  13   1    -0.00  -0.00   0.00    -0.00   0.00  -0.00    -0.00  -0.00   0.00
  14   1    -0.00  -0.00   0.00    -0.00   0.00   0.00     0.00  -0.00  -0.00
  15   1     0.00  -0.00   0.00     0.00   0.00  -0.00    -0.00   0.00   0.00
  16   1     0.00   0.00  -0.00     0.00  -0.00   0.00    -0.00   0.00  -0.00
  17   1     0.00   0.01   0.00     0.00   0.00  -0.00    -0.02  -0.21  -0.13
  18   1    -0.00  -0.03  -0.02    -0.01  -0.09  -0.05     0.07   0.71   0.42
  19   1    -0.03  -0.02  -0.00     0.12   0.06   0.00     0.06   0.03   0.00
  20   1     0.01   0.29   0.05    -0.02  -0.64  -0.11    -0.01  -0.24  -0.04
  21   1     0.51  -0.30  -0.09    -0.30   0.17   0.05     0.12  -0.07  -0.02
  22   1    -0.57  -0.32  -0.02    -0.42  -0.23  -0.01    -0.12  -0.07  -0.00
  23   1     0.00   0.23   0.04     0.01   0.36   0.06    -0.01  -0.28  -0.05
                     58                     59                     60
                        a                      a                      a 
 Frequencies --  3103.8072              3109.4358              3121.6468
 Red. masses --     1.8492                 1.8916                 1.8682
 Frc consts  --     0.0000                 0.0000                 0.0000
 IR Inten    --    89.7521                53.8966                 3.9173
 Raman Activ --     0.0000                 0.0000                 0.0000
 Depolar     --     0.0000                 0.0000                 0.0000
 Atom AN      X      Y      Z        X      Y      Z        X      Y      Z
   1   7    -0.00  -0.00   0.00    -0.00   0.00  -0.00    -0.00   0.00   0.00
   2   6    -0.00   0.00  -0.00    -0.00  -0.00  -0.00    -0.00  -0.00  -0.00
   3   6    -0.01  -0.02  -0.02    -0.01  -0.03  -0.02    -0.01  -0.08  -0.05
   4   6     0.01   0.09   0.05     0.01   0.04   0.02    -0.00  -0.03  -0.02
   5   6    -0.00   0.01   0.00    -0.00   0.01   0.00     0.01  -0.00  -0.00
   6   6    -0.03  -0.02  -0.00     0.02   0.01   0.00     0.22   0.12   0.00
   7   6     0.00   0.15   0.03    -0.00  -0.05  -0.01     0.00   0.07   0.01
   8   6    -0.13   0.08   0.02     0.09  -0.06  -0.02    -0.02   0.01   0.00
   9   6    -0.03  -0.02  -0.00     0.13   0.07   0.00    -0.01  -0.01  -0.00
  10   6     0.00   0.12   0.02     0.00   0.19   0.03    -0.00  -0.01  -0.00
  11  17     0.00  -0.00  -0.00     0.00   0.00  -0.00     0.00   0.00  -0.00
  12   1     0.00  -0.00  -0.00     0.00  -0.00  -0.00     0.01  -0.00  -0.00
  13   1     0.00   0.00  -0.00    -0.00  -0.00   0.00     0.00   0.00  -0.00
  14   1     0.00   0.00  -0.00    -0.00   0.00   0.00     0.00   0.00  -0.00
  15   1     0.00   0.00  -0.00    -0.00  -0.00   0.00    -0.00  -0.00   0.01
  16   1     0.00  -0.00   0.00     0.00   0.00  -0.00     0.00   0.01  -0.00
  17   1     0.01   0.09   0.05     0.01   0.11   0.07     0.02   0.28   0.17
  18   1    -0.03  -0.31  -0.18    -0.01  -0.13  -0.08     0.01   0.09   0.06
  19   1     0.14   0.08   0.00    -0.09  -0.05  -0.00    -0.75  -0.42  -0.01
  20   1    -0.01  -0.52  -0.09     0.00   0.18   0.03    -0.01  -0.22  -0.04
  21   1     0.45  -0.27  -0.08    -0.32   0.19   0.05     0.06  -0.04  -0.01
  22   1     0.10   0.05   0.00    -0.43  -0.23  -0.01     0.02   0.01   0.00
  23   1    -0.01  -0.43  -0.07    -0.02  -0.67  -0.11     0.00   0.04   0.01
                     61                     62                     63
                        a                      a                      a 
 Frequencies --  3127.2232              3189.2857              3203.4703
 Red. masses --     1.8337                 1.8889                 1.6437
 Frc consts  --     0.0000                 0.0000                 0.0000
 IR Inten    --    19.2822                36.2076                28.7173
 Raman Activ --     0.0000                 0.0000                 0.0000
 Depolar     --     0.0000                 0.0000                 0.0000
 Atom AN      X      Y      Z        X      Y      Z        X      Y      Z
   1   7    -0.01   0.00   0.00     0.21  -0.10  -0.11     0.01  -0.02   0.22
   2   6    -0.00  -0.01  -0.00     0.00  -0.00  -0.00     0.00   0.00   0.01
   3   6    -0.02  -0.21  -0.13    -0.00  -0.01  -0.00    -0.00  -0.00   0.00
   4   6    -0.00  -0.07  -0.04    -0.00  -0.00  -0.00    -0.00   0.00   0.00
   5   6    -0.00  -0.00  -0.00     0.00   0.00   0.00    -0.00  -0.00  -0.00
   6   6    -0.09  -0.05  -0.00    -0.00  -0.00   0.00    -0.00  -0.00  -0.00
   7   6    -0.00  -0.02  -0.00    -0.00  -0.00  -0.00    -0.00  -0.00  -0.00
   8   6     0.00   0.00   0.00     0.00  -0.00  -0.00     0.00  -0.00  -0.00
   9   6    -0.00  -0.00  -0.00     0.00   0.00   0.00     0.00   0.00   0.00
  10   6    -0.00  -0.02  -0.00     0.00   0.00   0.00     0.00   0.00   0.00
  11  17    -0.00  -0.00  -0.00    -0.00   0.00   0.00     0.00   0.00  -0.00
  12   1     0.02  -0.01  -0.01    -0.80   0.44   0.23    -0.18   0.09   0.08
  13   1     0.00   0.01  -0.00     0.02  -0.03  -0.01    -0.00  -0.05   0.03
  14   1     0.00  -0.00  -0.01    -0.01  -0.02   0.20     0.13   0.04  -0.94
  15   1    -0.01  -0.00   0.02    -0.00   0.00   0.01     0.00   0.00  -0.02
  16   1     0.00   0.02  -0.01    -0.00  -0.00   0.00    -0.00  -0.01   0.00
  17   1     0.07   0.73   0.44     0.00   0.02   0.01     0.00  -0.00  -0.00
  18   1     0.02   0.23   0.14     0.00   0.00   0.00    -0.00  -0.00  -0.00
  19   1     0.30   0.17   0.00     0.00   0.00   0.00     0.00   0.00  -0.00
  20   1     0.00   0.05   0.01    -0.00   0.00   0.00    -0.00   0.00   0.00
  21   1    -0.00   0.00   0.00    -0.00   0.00   0.00    -0.00   0.00   0.00
  22   1     0.02   0.01   0.00    -0.00  -0.00   0.00    -0.00  -0.00  -0.00
  23   1     0.00   0.06   0.01     0.00  -0.00  -0.00    -0.00  -0.00  -0.00
