      -----------------------------------------------------------      
     |                   =====================                   |     
     |                           x T B                           |     
     |                   =====================                   |     
     |                         S. Grimme                         |     
     |          Mulliken Center for Theoretical Chemistry        |     
     |                    University of Bonn                     |     
      -----------------------------------------------------------      

   * xtb version 6.5.1 (fef0646) compiled by 'conda@b96dff2e9fd6' on 2023-01-04

   xtb is free software: you can redistribute it and/or modify it under
   the terms of the GNU Lesser General Public License as published by
   the Free Software Foundation, either version 3 of the License, or
   (at your option) any later version.
   
   xtb is distributed in the hope that it will be useful,
   but WITHOUT ANY WARRANTY; without even the implied warranty of
   MERCHANTABILITY or FITNESS FOR A PARTICULAR PURPOSE.  See the
   GNU Lesser General Public License for more details.
   
   Cite this work as:
   * C. Bannwarth, E. Caldeweyher, S. Ehlert, A. Hansen, P. Pracht,
     J. Seibert, S. Spicher, S. Grimme, WIREs Comput. Mol. Sci., 2020, 11,
     e01493. DOI: 10.1002/wcms.1493
   
   for GFN2-xTB:
   * C. Bannwarth, S. Ehlert and S. Grimme., J. Chem. Theory Comput., 2019,
     15, 1652-1671. DOI: 10.1021/acs.jctc.8b01176
   for GFN1-xTB:
   * S. Grimme, C. Bannwarth, P. Shushkov, J. Chem. Theory Comput., 2017,
     13, 1989-2009. DOI: 10.1021/acs.jctc.7b00118
   for GFN0-xTB:
   * P. Pracht, E. Caldeweyher, S. Ehlert, S. Grimme, ChemRxiv, 2019, preprint.
     DOI: 10.26434/chemrxiv.8326202.v1
   for GFN-FF:
   * S. Spicher and S. Grimme, Angew. Chem. Int. Ed., 2020, 59, 15665-15673.
     DOI: 10.1002/anie.202004239
   
   for ALPB and GBSA implicit solvation:
   * S. Ehlert, M. Stahn, S. Spicher, S. Grimme, J. Chem. Theory Comput.,
     2021, 17, 4250-4261. DOI: 10.1021/acs.jctc.1c00471
   
   for DFT-D4:
   * E. Caldeweyher, C. Bannwarth and S. Grimme, J. Chem. Phys., 2017,
     147, 034112. DOI: 10.1063/1.4993215
   * E. Caldeweyher, S. Ehlert, A. Hansen, H. Neugebauer, S. Spicher,
     C. Bannwarth and S. Grimme, J. Chem. Phys., 2019, 150, 154122.
     DOI: 10.1063/1.5090222
   * E. Caldeweyher, J.-M. Mewes, S. Ehlert and S. Grimme, Phys. Chem. Chem. Phys.
     2020, 22, 8499-8512. DOI: 10.1039/D0CP00502A
   
   for sTDA-xTB:
   * S. Grimme and C. Bannwarth, J. Chem. Phys., 2016, 145, 054103.
     DOI: 10.1063/1.4959605
   
   in the mass-spec context:
   * V. Asgeirsson, C. Bauer and S. Grimme, Chem. Sci., 2017, 8, 4879.
     DOI: 10.1039/c7sc00601b
   * J. Koopman and S. Grimme, ACS Omega 2019, 4, 12, 15120-15133.
     DOI: 10.1021/acsomega.9b02011
   
   for metadynamics refer to:
   * S. Grimme, J. Chem. Theory Comput., 2019, 155, 2847-2862
     DOI: 10.1021/acs.jctc.9b00143
   
   for SPH calculations refer to:
   * S. Spicher and S. Grimme, J. Chem. Theory Comput., 2021, 17, 1701-1714
     DOI: 10.1021/acs.jctc.0c01306
   
   with help from (in alphabetical order)
   P. Atkinson, C. Bannwarth, F. Bohle, G. Brandenburg, E. Caldeweyher
   M. Checinski, S. Dohm, S. Ehlert, S. Ehrlich, I. Gerasimov, C. Hölzer
   A. Katbashev, J. Koopman, C. Lavigne, S. Lehtola, F. März, M. Müller,
   F. Musil, H. Neugebauer, J. Pisarek, C. Plett, P. Pracht, F. Pultar,
   J. Seibert, P. Shushkov, S. Spicher, M. Stahn, M. Steiner, T. Strunk,
   J. Stückrath, T. Rose, and J. Unsleber
   
 * started run on 2023/01/24 at 14:55:53.291     

           -------------------------------------------------
          |                Calculation Setup                |
           -------------------------------------------------

          program call               : xtb init.xyz --opt -c 0 -u 0 -P 16 --alpb water
          hostname                   : gpg-woodward
          coordinate file            : init.xyz
          omp threads                :                    16

   ID    Z sym.   atoms
    1    7 N      1
    2    6 C      2-7
    3   17 Cl     8
    4    1 H      9-22

molecular fragmentation (1/2 indicates fragments):
1111111211111111111111
# atoms in fragment 1/2:    21     1
 fragment masses (1/2) :      100.18       35.45
CMA distance (Bohr)    :   7.836
constraining FC (au)   :  0.0500

           -------------------------------------------------
          |                 G F N 2 - x T B                 |
           -------------------------------------------------

        Reference                      10.1021/acs.jctc.8b01176
      * Hamiltonian:
        H0-scaling (s, p, d)           1.850000    2.230000    2.230000
        zeta-weighting                 0.500000
      * Dispersion:
        s8                             2.700000
        a1                             0.520000
        a2                             5.000000
        s9                             5.000000
      * Repulsion:
        kExp                           1.500000    1.000000
        rExp                           1.000000
      * Coulomb:
        alpha                          2.000000
        third order                    shell-resolved
        anisotropic                    true
        a3                             3.000000
        a5                             4.000000
        cn-shift                       1.200000
        cn-exp                         4.000000
        max-rad                        5.000000

      * Solvation model:               ALPB
        Solvent                        water
        Parameter file                 internal GFN2-xTB/ALPB
        Dielectric constant                8.0200E+01
        Reference state                gsolv [1 M gas/solution]
        Free energy shift                  1.0808E-03 Eh       6.7819E-01 kcal/mol
        Temperature                        2.9815E+02 K
        Density                            1.0000E+00 kg/L
        Solvent mass                       1.8000E+01 g/mol
        Interaction kernel             P16
        Born radius scaling (c1)           1.4744E+00
        Born radii integrator          GBOBC
        Born offset                        0.0000E+00 a0       0.0000E+00 AA
        H-bond correction              true
        Ion screening                  false
        Surface tension                    1.0000E-05 Eh       1.5569E+01 dyn/cm
        Grid points                               230 per atom

          ...................................................
          :                      SETUP                      :
          :.................................................:
          :  # basis functions                  52          :
          :  # atomic orbitals                  51          :
          :  # shells                           31          :
          :  # electrons                        50          :
          :  max. iterations                   250          :
          :  Hamiltonian                  GFN2-xTB          :
          :  restarted?                      false          :
          :  GBSA solvation                   true          :
          :  PC potential                    false          :
          :  electronic temp.          300.0000000     K    :
          :  accuracy                    1.0000000          :
          :  -> integral cutoff          0.2500000E+02      :
          :  -> integral neglect         0.1000000E-07      :
          :  -> SCF convergence          0.1000000E-05 Eh   :
          :  -> wf. convergence          0.1000000E-03 e    :
          :  Broyden damping             0.4000000          :
          ...................................................

 iter      E             dE          RMSdq      gap      omega  full diag
   1    -27.7122319 -0.277122E+02  0.336E+00   11.48       0.0  T
   2    -27.8160408 -0.103809E+00  0.177E+00    9.65       1.0  T
   3    -27.8196039 -0.356307E-02  0.103E+00    9.14       1.0  T
   4    -27.8201219 -0.517989E-03  0.146E-01    9.15       1.0  T
   5    -27.8201775 -0.555852E-04  0.104E-01    9.18       1.0  T
   6    -27.8202254 -0.478975E-04  0.466E-02    9.21       1.0  T
   7    -27.8202351 -0.971495E-05  0.276E-02    9.22       1.0  T
   8    -27.8202393 -0.423774E-05  0.901E-03    9.22       2.4  T
   9    -27.8202396 -0.253151E-06  0.460E-03    9.22       4.6  T
  10    -27.8202396 -0.733477E-07  0.999E-04    9.22      21.3  T
  11    -27.8202396 -0.437169E-08  0.361E-04    9.22      59.1  T

   *** convergence criteria satisfied after 11 iterations ***

         #    Occupation            Energy/Eh            Energy/eV
      -------------------------------------------------------------
         1        2.0000           -0.9913443             -26.9759
       ...           ...                  ...                  ...
        19        2.0000           -0.4333199             -11.7912
        20        2.0000           -0.4196021             -11.4180
        21        2.0000           -0.4190657             -11.4034
        22        2.0000           -0.4143669             -11.2755
        23        2.0000           -0.3942395             -10.7278
        24        2.0000           -0.3936859             -10.7127
        25        2.0000           -0.3934005             -10.7050 (HOMO)
        26                         -0.0546895              -1.4882 (LUMO)
        27                          0.0322355               0.8772
        28                          0.0679531               1.8491
        29                          0.0745473               2.0285
        30                          0.0863584               2.3499
       ...                                ...                  ...
        51                          0.3084231               8.3926
      -------------------------------------------------------------
                  HL-Gap            0.3387110 Eh            9.2168 eV
             Fermi-level           -0.2240450 Eh           -6.0966 eV

 SCC (total)                   0 d,  0 h,  0 min,  0.025 sec
 SCC setup                      ...        0 min,  0.000 sec (  1.518%)
 Dispersion                     ...        0 min,  0.000 sec (  1.239%)
 classical contributions        ...        0 min,  0.000 sec (  0.341%)
 integral evaluation            ...        0 min,  0.001 sec (  4.773%)
 iterations                     ...        0 min,  0.020 sec ( 79.875%)
 molecular gradient             ...        0 min,  0.003 sec ( 10.554%)
 printout                       ...        0 min,  0.000 sec (  0.570%)

         :::::::::::::::::::::::::::::::::::::::::::::::::::::
         ::                     SUMMARY                     ::
         :::::::::::::::::::::::::::::::::::::::::::::::::::::
         :: total energy             -27.502437674564 Eh    ::
         :: total w/o Gsasa/hb       -27.494287128409 Eh    ::
         :: gradient norm              0.026742267314 Eh/a0 ::
         :: HOMO-LUMO gap              9.216794625041 eV    ::
         ::.................................................::
         :: SCC energy               -27.820239642920 Eh    ::
         :: -> isotropic ES            0.187516661885 Eh    ::
         :: -> anisotropic ES         -0.019234270145 Eh    ::
         :: -> anisotropic XC          0.013793438859 Eh    ::
         :: -> dispersion             -0.015492476350 Eh    ::
         :: -> Gsolv                  -0.128365462767 Eh    ::
         ::    -> Gelec               -0.120214916611 Eh    ::
         ::    -> Gsasa               -0.000898063245 Eh    ::
         ::    -> Ghb                 -0.008333242609 Eh    ::
         ::    -> Gshift               0.001080759698 Eh    ::
         :: repulsion energy           0.317665927883 Eh    ::
         :: add. restraining           0.000000000000 Eh    ::
         :: total charge               0.000000000000 e     ::
         :::::::::::::::::::::::::::::::::::::::::::::::::::::

      ----------------------------------------------------------- 
     |                   =====================                   |
     |                        A N C O P T                        |
     |                   =====================                   |
     |               Approximate Normal Coordinate               |
     |                Rational Function Optimizer                |
      ----------------------------------------------------------- 

          ...................................................
          :                      SETUP                      :
          :.................................................:
          :   optimization level            normal          :
          :   max. optcycles                   200          :
          :   ANC micro-cycles                  20          :
          :   degrees of freedom                60          :
          :.................................................:
          :   RF solver                   davidson          :
          :   write xtbopt.log                true          :
          :   linear?                        false          :
          :   energy convergence         0.5000000E-05 Eh   :
          :   grad. convergence          0.1000000E-02 Eh/α :
          :   maximium RF displ.         1.0000000          :
          :   Hlow (freq-cutoff)         0.1000000E-01      :
          :   Hmax (freq-cutoff)         5.0000000          :
          :   S6 in model hess.         20.0000000          :
          ...................................................

generating ANC from model Hessian ...
Using Lindh-Hessian (1995)
 Shifting diagonal of input Hessian by    1.0112811071926782E-002
 Lowest  eigenvalues of input Hessian
    0.010000    0.000000    0.000000    0.000000    0.000000    0.000000
    0.000000    0.010419    0.012309    0.014931    0.016997    0.021947
    0.022013    0.025243    0.027884    0.031405    0.037216    0.054681
 Highest eigenvalues
    1.245824    1.286645    1.294352    1.381927    1.408952    1.429066


........................................................................
.............................. CYCLE    1 ..............................
........................................................................
   1    -27.8202396 -0.278202E+02  0.828E-05    9.22       0.0  T
   2    -27.8202396 -0.245528E-10  0.535E-05    9.22     398.5  T
   3    -27.8202396 -0.605382E-11  0.344E-05    9.22     619.0  T
     SCC iter.                  ...        0 min,  0.005 sec
     gradient                   ...        0 min,  0.002 sec
 * total energy  :   -27.5024377 Eh     change       -0.1779341E-09 Eh
   gradient norm :     0.0267417 Eh/α   predicted     0.0000000E+00 (-100.00%)
   displ. norm   :     0.2817362 α      lambda       -0.4243841E-02
   maximum displ.:     0.2253744 α      in ANC's #9, #23, #12, ...

........................................................................
.............................. CYCLE    2 ..............................
........................................................................
   1    -27.8259261 -0.278259E+02  0.207E-01    9.26       0.0  T
   2    -27.8259439 -0.177021E-04  0.118E-01    9.28       1.0  T
   3    -27.8259443 -0.402170E-06  0.201E-02    9.28       1.1  T
   4    -27.8259466 -0.236629E-05  0.728E-03    9.28       2.9  T
   5    -27.8259468 -0.143460E-06  0.503E-03    9.28       4.2  T
   6    -27.8259469 -0.140331E-06  0.205E-03    9.28      10.4  T
   7    -27.8259469 -0.246853E-07  0.774E-04    9.28      27.6  T
   8    -27.8259469 -0.316820E-08  0.175E-04    9.28     121.9  T
     SCC iter.                  ...        0 min,  0.013 sec
     gradient                   ...        0 min,  0.002 sec
 * total energy  :   -27.5051936 Eh     change       -0.2755956E-02 Eh
   gradient norm :     0.0095563 Eh/α   predicted    -0.2290375E-02 ( -16.89%)
   displ. norm   :     0.2527619 α      lambda       -0.1402649E-02
   maximum displ.:     0.2285594 α      in ANC's #9, #4, #12, ...

........................................................................
.............................. CYCLE    3 ..............................
........................................................................
   1    -27.8282019 -0.278282E+02  0.926E-02    9.38       0.0  T
   2    -27.8282100 -0.809970E-05  0.528E-02    9.38       1.0  T
   3    -27.8282107 -0.667252E-06  0.127E-02    9.39       1.7  T
   4    -27.8282112 -0.546636E-06  0.528E-03    9.39       4.0  T
   5    -27.8282113 -0.795931E-07  0.366E-03    9.39       5.8  T
   6    -27.8282114 -0.734594E-07  0.163E-03    9.39      13.1  T
   7    -27.8282114 -0.149023E-07  0.740E-04    9.39      28.8  T
   8    -27.8282114 -0.316811E-08  0.115E-04    9.39     185.7  T
     SCC iter.                  ...        0 min,  0.013 sec
     gradient                   ...        0 min,  0.002 sec
 * total energy  :   -27.5061134 Eh     change       -0.9198077E-03 Eh
   gradient norm :     0.0062268 Eh/α   predicted    -0.7461370E-03 ( -18.88%)
   displ. norm   :     0.1846573 α      lambda       -0.4918368E-03
   maximum displ.:     0.1593651 α      in ANC's #9, #4, #7, ...

........................................................................
.............................. CYCLE    4 ..............................
........................................................................
   1    -27.8292670 -0.278293E+02  0.546E-02    9.43       0.0  T
   2    -27.8292690 -0.199347E-05  0.323E-02    9.44       1.0  T
   3    -27.8292692 -0.190491E-06  0.491E-03    9.44       4.3  T
   4    -27.8292693 -0.100019E-06  0.252E-03    9.44       8.5  T
   5    -27.8292693 -0.173831E-07  0.169E-03    9.44      12.6  T
   6    -27.8292693 -0.151404E-07  0.836E-04    9.44      25.5  T
   7    -27.8292693 -0.388335E-08  0.388E-04    9.44      55.0  T
     SCC iter.                  ...        0 min,  0.011 sec
     gradient                   ...        0 min,  0.002 sec
 * total energy  :   -27.5064478 Eh     change       -0.3343689E-03 Eh
   gradient norm :     0.0049335 Eh/α   predicted    -0.2543140E-03 ( -23.94%)
   displ. norm   :     0.1371496 α      lambda       -0.2160139E-03
   maximum displ.:     0.0885816 α      in ANC's #9, #4, #7, ...

........................................................................
.............................. CYCLE    5 ..............................
........................................................................
   1    -27.8301233 -0.278301E+02  0.496E-02    9.44       0.0  T
   2    -27.8301238 -0.503495E-06  0.290E-02    9.44       1.0  T
   3    -27.8301238 -0.692808E-07  0.251E-03    9.44       8.5  T
   4    -27.8301239 -0.395317E-07  0.130E-03    9.44      16.4  T
   5    -27.8301239 -0.421931E-08  0.792E-04    9.44      26.9  T
   6    -27.8301239 -0.287114E-08  0.425E-04    9.44      50.2  T
     SCC iter.                  ...        0 min,  0.009 sec
     gradient                   ...        0 min,  0.002 sec
 * total energy  :   -27.5065845 Eh     change       -0.1366662E-03 Eh
   gradient norm :     0.0024001 Eh/α   predicted    -0.1100407E-03 ( -19.48%)
   displ. norm   :     0.0714986 α      lambda       -0.4872179E-04
   maximum displ.:     0.0605463 α      in ANC's #4, #9, #7, ...

........................................................................
.............................. CYCLE    6 ..............................
........................................................................
   1    -27.8303481 -0.278303E+02  0.244E-02    9.42       0.0  T
   2    -27.8303482 -0.174420E-06  0.140E-02    9.42       1.5  T
   3    -27.8303482 -0.591929E-08  0.177E-03    9.42      12.0  T
   4    -27.8303483 -0.227123E-07  0.599E-04    9.42      35.6  T
   5    -27.8303483 -0.950209E-09  0.366E-04    9.42      58.2  T
     SCC iter.                  ...        0 min,  0.007 sec
     gradient                   ...        0 min,  0.002 sec
 * total energy  :   -27.5066168 Eh     change       -0.3234833E-04 Eh
   gradient norm :     0.0012558 Eh/α   predicted    -0.2448569E-04 ( -24.31%)
   displ. norm   :     0.0680280 α      lambda       -0.1798348E-04
   maximum displ.:     0.0598516 α      in ANC's #4, #1, #5, ...

........................................................................
.............................. CYCLE    7 ..............................
........................................................................
   1    -27.8303019 -0.278303E+02  0.199E-02    9.40       0.0  T
   2    -27.8303021 -0.195661E-06  0.114E-02    9.40       1.9  T
   3    -27.8303021 -0.171080E-08  0.172E-03    9.40      12.4  T
   4    -27.8303021 -0.181630E-07  0.408E-04    9.40      52.2  T
   5    -27.8303021 -0.452658E-09  0.230E-04    9.40      92.8  T
     SCC iter.                  ...        0 min,  0.007 sec
     gradient                   ...        0 min,  0.002 sec
 * total energy  :   -27.5066342 Eh     change       -0.1735812E-04 Eh
   gradient norm :     0.0009522 Eh/α   predicted    -0.9035362E-05 ( -47.95%)
   displ. norm   :     0.0677894 α      lambda        0.7605719E-05
   maximum displ.:     0.0596612 α      in ANC's #4, #1, #5, ...

........................................................................
.............................. CYCLE    8 ..............................
........................................................................
   1    -27.8301925 -0.278302E+02  0.199E-02    9.38       0.0  T
   2    -27.8301927 -0.204456E-06  0.114E-02    9.38       1.9  T
   3    -27.8301927 -0.142159E-08  0.177E-03    9.38      12.0  T
   4    -27.8301927 -0.187173E-07  0.415E-04    9.38      51.4  T
   5    -27.8301927 -0.479730E-09  0.236E-04    9.38      90.2  T
     SCC iter.                  ...        0 min,  0.007 sec
     gradient                   ...        0 min,  0.002 sec
 * total energy  :   -27.5066318 Eh     change        0.2421526E-05 Eh
   gradient norm :     0.0022405 Eh/α   predicted     0.3810528E-05 (  57.36%)
   displ. norm   :     0.0173062 α      lambda       -0.1372701E-04
   maximum displ.:     0.0111371 α      in ANC's #7, #4, #1, ...

........................................................................
.............................. CYCLE    9 ..............................
........................................................................
   1    -27.8301539 -0.278302E+02  0.735E-03    9.39       0.0  T
   2    -27.8301540 -0.539591E-07  0.413E-03    9.39       5.2  T
   3    -27.8301540 -0.375952E-09  0.112E-03    9.39      19.0  T
   4    -27.8301540 -0.464090E-08  0.238E-04    9.39      89.6  T
   5    -27.8301540 -0.162210E-09  0.152E-04    9.39     140.3  T
     SCC iter.                  ...        0 min,  0.007 sec
     gradient                   ...        0 min,  0.002 sec
 * total energy  :   -27.5066428 Eh     change       -0.1099808E-04 Eh
   gradient norm :     0.0013460 Eh/α   predicted    -0.6870848E-05 ( -37.53%)
   displ. norm   :     0.0557173 α      lambda       -0.1628493E-04
   maximum displ.:     0.0361017 α      in ANC's #1, #7, #3, ...

........................................................................
.............................. CYCLE   10 ..............................
........................................................................
   1    -27.8301825 -0.278302E+02  0.155E-02    9.42       0.0  T
   2    -27.8301829 -0.344866E-06  0.866E-03    9.42       2.5  T
   3    -27.8301829 -0.123682E-07  0.274E-03    9.42       7.8  T
   4    -27.8301829 -0.204130E-07  0.756E-04    9.42      28.2  T
   5    -27.8301829 -0.165062E-08  0.526E-04    9.42      40.6  T
     SCC iter.                  ...        0 min,  0.007 sec
     gradient                   ...        0 min,  0.002 sec
 * total energy  :   -27.5066524 Eh     change       -0.9655683E-05 Eh
   gradient norm :     0.0009768 Eh/α   predicted    -0.8154134E-05 ( -15.55%)
   displ. norm   :     0.0268125 α      lambda       -0.3548956E-05
   maximum displ.:     0.0186960 α      in ANC's #1, #4, #9, ...

........................................................................
.............................. CYCLE   11 ..............................
........................................................................
   1    -27.8301955 -0.278302E+02  0.727E-03    9.42       0.0  T
   2    -27.8301955 -0.123482E-07  0.418E-03    9.42       5.1  T
   3    -27.8301955 -0.193623E-08  0.475E-04    9.42      44.9  T
   4    -27.8301955 -0.132580E-08  0.247E-04    9.42      86.3  T
     SCC iter.                  ...        0 min,  0.006 sec
     gradient                   ...        0 min,  0.002 sec
 * total energy  :   -27.5066567 Eh     change       -0.4302506E-05 Eh
   gradient norm :     0.0003707 Eh/α   predicted    -0.1777610E-05 ( -58.68%)
   displ. norm   :     0.0414555 α      lambda       -0.3421531E-05
   maximum displ.:     0.0329977 α      in ANC's #1, #4, #2, ...

   *** GEOMETRY OPTIMIZATION CONVERGED AFTER 11 ITERATIONS ***

------------------------------------------------------------------------
 total energy gain   :        -0.0042190 Eh       -2.6475 kcal/mol
 total RMSD          :         0.1864581 a0        0.0987 Å
 total power (kW/mol):        -1.0070081 (step)  -64.7932 (real)
------------------------------------------------------------------------

 ANCopt (total)                0 d,  0 h,  0 min,  0.171 sec
 optimizer setup                ...        0 min,  0.000 sec (  0.082%)
 model hessian                  ...        0 min,  0.030 sec ( 17.417%)
 ANC generation                 ...        0 min,  0.001 sec (  0.841%)
 coordinate transformation      ...        0 min,  0.000 sec (  0.160%)
 single point calculation       ...        0 min,  0.135 sec ( 78.889%)
 optimization log               ...        0 min,  0.002 sec (  0.941%)
 hessian update                 ...        0 min,  0.000 sec (  0.207%)
 rational function              ...        0 min,  0.001 sec (  0.615%)

================
 final structure:
================
22
 xtb: 6.5.1 (fef0646)
N           -1.86169091867884        0.15994422024043        0.89001214771892
C           -1.06878911742441        0.08628626812216       -0.37442808079329
C           -0.13844197277152        1.29039189334486       -0.47919951265928
C            0.97633096703257        1.25343571822201        0.56494203463204
C            1.75967506107811       -0.05070109685672        0.44621460472143
C            0.83696690630138       -1.25269181582215        0.62578441079894
C           -0.27670782857560       -1.21630785708818       -0.41942326822863
Cl           1.17872785358577       -0.13803255291620       -3.80864915741949
H           -2.39917099714377        1.03283601333083        0.92424743610356
H           -1.21132144802081        0.13726438303560        1.68410609803098
H           -2.49973818177465       -0.64004833775685        0.95895318525880
H           -1.76152747868023        0.10444024346028       -1.21821416572154
H           -0.70194246502831        2.22135371529745       -0.40450993407276
H            0.31298506569631        1.26025209921671       -1.47361490290157
H            0.57990728286981        1.35759366497275        1.57705004642324
H            1.64850683551925        2.09505788282724        0.39315302025510
H            2.56614808186097       -0.07758306560621        1.18172718434875
H            2.21204726604797       -0.10020501227613       -0.54791666330839
H            0.43360082461652       -1.26269495118823        1.64052673102530
H            1.41116436622725       -2.17114416110266        0.49754489185113
H           -0.93891399529825       -2.07522767577496       -0.30342482400250
H            0.17371389256082       -1.28290957568176       -1.41248128206061

 Bond Distances (Angstroems)
 ---------------------------
N1-C2=1.4943         N1-H9=1.0257         N1-H10=1.0267        N1-H11=1.0256        C2-N1=1.4943         C2-C3=1.5253         
C2-C7=1.5252         C2-H12=1.0919        C3-C2=1.5253         C3-C4=1.5278         C3-H13=1.0908        C3-H14=1.0925        
C4-C3=1.5278         C4-C5=1.5259         C4-H15=1.0920        C4-H16=1.0907        C5-C4=1.5259         C5-C6=1.5259         
C5-H17=1.0918        C5-H18=1.0933        C6-C5=1.5259         C6-C7=1.5278         C6-H19=1.0920        C6-H20=1.0907        
C7-C2=1.5252         C7-C6=1.5278         C7-H21=1.0907        C7-H22=1.0925        H9-N1=1.0257         H10-N1=1.0267        
H11-N1=1.0256        H12-C2=1.0919        H13-C3=1.0908        H14-C3=1.0925        H15-C4=1.0920        H16-C4=1.0907        
H17-C5=1.0918        H18-C5=1.0933        H19-C6=1.0920        H20-C6=1.0907        H21-C7=1.0907        H22-C7=1.0925        
 C  H  Rav=1.0917 sigma=0.0008  Rmin=1.0907  Rmax=1.0933    11
 C  C  Rav=1.5263 sigma=0.0011  Rmin=1.5252  Rmax=1.5278     6
 N  H  Rav=1.0260 sigma=0.0005  Rmin=1.0256  Rmax=1.0267     3
 N  C  Rav=1.4943 sigma=0.0000  Rmin=1.4943  Rmax=1.4943     1

 selected bond angles (degree)
 --------------------
H9-N1-C2=110.38                H10-N1-C2=108.50               H10-N1-H9=108.96               H11-N1-C2=110.40               
H11-N1-H9=109.61               H11-N1-H10=108.96              C3-C2-N1=110.05                C7-C2-N1=110.04                
C7-C2-C3=110.82                H12-C2-N1=108.45               H12-C2-C3=108.71               H12-C2-C7=108.72               
C4-C3-C2=112.27                H13-C3-C2=110.73               H13-C3-C4=110.54               H14-C3-C2=107.02               
H14-C3-C4=108.66               H14-C3-H13=107.42              C5-C4-C3=110.00                H15-C4-C3=111.48               
H15-C4-C5=109.88               H16-C4-C3=108.87               H16-C4-C5=109.32               H16-C4-H15=107.22              
C6-C5-C4=110.71                H17-C5-C4=110.35               H17-C5-C6=110.36               H18-C5-C4=108.77               
H18-C5-C6=108.76               H18-C5-H17=107.81              C7-C6-C5=109.97                H19-C6-C5=109.87               
H19-C6-C7=111.51               H20-C6-C5=109.34               H20-C6-C7=108.87               H20-C6-H19=107.22              
C6-C7-C2=112.26                H21-C7-C2=110.74               H21-C7-C6=110.55               H22-C7-C2=107.04               
H22-C7-C6=108.66               H22-C7-H21=107.40              

 selected dihedral angles (degree)
 ---------------------------------
C3-C2-N1-H9= 57.79            C3-C2-N1-H10=298.47           C3-C2-N1-H11=179.13           C7-C2-N1-H9=180.20            
C7-C2-N1-H10= 60.87           C7-C2-N1-H11=301.53           H12-C2-N1-H9=298.99           H12-C2-N1-H10=179.67          
H12-C2-N1-H11= 60.33          C4-C3-C2-N1= 68.41            C4-C3-C2-C7=306.47            C4-C3-C2-H12=187.05           
H13-C3-C2-N1=304.33           H13-C3-C2-C7=182.39           H13-C3-C2-H12= 62.97          H14-C3-C2-N1=187.55           
H14-C3-C2-C7= 65.61           H14-C3-C2-H12=306.19          C5-C4-C3-C2= 56.03            C5-C4-C3-H13=180.22           
C5-C4-C3-H14=297.85           H15-C4-C3-C2=293.88           H15-C4-C3-H13= 58.07          H15-C4-C3-H14=175.70          
H16-C4-C3-C2=175.80           H16-C4-C3-H13=299.98          H16-C4-C3-H14= 57.62          C6-C5-C4-C3=301.76            
C6-C5-C4-H15= 64.86           C6-C5-C4-H16=182.27           H17-C5-C4-C3=179.28           H17-C5-C4-H15=302.38          
H17-C5-C4-H16= 59.79          H18-C5-C4-C3= 61.21           H18-C5-C4-H15=184.30          H18-C5-C4-H16=301.72          
C7-C6-C5-C4= 58.29            C7-C6-C5-H17=180.77           C7-C6-C5-H18=298.83           H19-C6-C5-C4=295.18           
H19-C6-C5-H17= 57.66          H19-C6-C5-H18=175.73          H20-C6-C5-C4=177.77           H20-C6-C5-H17=300.25          
H20-C6-C5-H18= 58.31          C6-C7-C2-N1=291.64            C6-C7-C2-C3= 53.59            C6-C7-C2-H12=173.01           
H21-C7-C2-N1= 55.74           H21-C7-C2-C3=177.68           H21-C7-C2-H12=297.10          H22-C7-C2-N1=172.51           
H22-C7-C2-C3=294.45           H22-C7-C2-H12= 53.87          C2-C7-C6-C5=303.86            C2-C7-C6-H19= 65.99           
C2-C7-C6-H20=184.09           H21-C7-C6-C5=179.66           H21-C7-C6-H19=301.80          H21-C7-C6-H20= 59.89          
H22-C7-C6-C5= 62.04           H22-C7-C6-H19=184.18          H22-C7-C6-H20=302.27          

 CMA Distance (Angstroems)
 ---------------------------
R(CMA):  4.1886
           -------------------------------------------------
          |                Final Singlepoint                |
           -------------------------------------------------

          ...................................................
          :                      SETUP                      :
          :.................................................:
          :  # basis functions                  52          :
          :  # atomic orbitals                  51          :
          :  # shells                           31          :
          :  # electrons                        50          :
          :  max. iterations                   250          :
          :  Hamiltonian                  GFN2-xTB          :
          :  restarted?                      false          :
          :  GBSA solvation                   true          :
          :  PC potential                    false          :
          :  electronic temp.          300.0000000     K    :
          :  accuracy                    1.0000000          :
          :  -> integral cutoff          0.2500000E+02      :
          :  -> integral neglect         0.1000000E-07      :
          :  -> SCF convergence          0.1000000E-05 Eh   :
          :  -> wf. convergence          0.1000000E-03 e    :
          :  Broyden damping             0.4000000          :
          ...................................................

 iter      E             dE          RMSdq      gap      omega  full diag
   1    -27.8301955 -0.278302E+02  0.152E-04    9.42       0.0  T
   2    -27.8301955 -0.530278E-10  0.122E-04    9.42     175.1  T
   3    -27.8301955 -0.856133E-10  0.468E-05    9.42     455.2  T

   *** convergence criteria satisfied after 3 iterations ***

         #    Occupation            Energy/Eh            Energy/eV
      -------------------------------------------------------------
         1        2.0000           -0.9931649             -27.0254
       ...           ...                  ...                  ...
        19        2.0000           -0.4345806             -11.8255
        20        2.0000           -0.4199486             -11.4274
        21        2.0000           -0.4160837             -11.3222
        22        2.0000           -0.4158298             -11.3153
        23        2.0000           -0.3955005             -10.7621
        24        2.0000           -0.3950707             -10.7504
        25        2.0000           -0.3947142             -10.7407 (HOMO)
        26                         -0.0487086              -1.3254 (LUMO)
        27                          0.0378898               1.0310
        28                          0.0764283               2.0797
        29                          0.0803256               2.1858
        30                          0.0935756               2.5463
       ...                                ...                  ...
        51                          0.3155704               8.5871
      -------------------------------------------------------------
                  HL-Gap            0.3460055 Eh            9.4153 eV
             Fermi-level           -0.2217114 Eh           -6.0331 eV

 SCC (total)                   0 d,  0 h,  0 min,  0.008 sec
 SCC setup                      ...        0 min,  0.000 sec (  2.418%)
 Dispersion                     ...        0 min,  0.000 sec (  1.934%)
 classical contributions        ...        0 min,  0.000 sec (  0.313%)
 integral evaluation            ...        0 min,  0.001 sec ( 11.394%)
 iterations                     ...        0 min,  0.004 sec ( 56.229%)
 molecular gradient             ...        0 min,  0.002 sec ( 24.513%)
 printout                       ...        0 min,  0.000 sec (  1.533%)

         :::::::::::::::::::::::::::::::::::::::::::::::::::::
         ::                     SUMMARY                     ::
         :::::::::::::::::::::::::::::::::::::::::::::::::::::
         :: total energy             -27.506656715217 Eh    ::
         :: total w/o Gsasa/hb       -27.498361027151 Eh    ::
         :: gradient norm              0.000371879352 Eh/a0 ::
         :: HOMO-LUMO gap              9.415289868851 eV    ::
         ::.................................................::
         :: SCC energy               -27.830195542536 Eh    ::
         :: -> isotropic ES            0.187331694296 Eh    ::
         :: -> anisotropic ES         -0.021694518009 Eh    ::
         :: -> anisotropic XC          0.013407108547 Eh    ::
         :: -> dispersion             -0.015596082428 Eh    ::
         :: -> Gsolv                  -0.128338378839 Eh    ::
         ::    -> Gelec               -0.120042690773 Eh    ::
         ::    -> Gsasa               -0.000914085579 Eh    ::
         ::    -> Ghb                 -0.008462362185 Eh    ::
         ::    -> Gshift               0.001080759698 Eh    ::
         :: repulsion energy           0.323411263886 Eh    ::
         :: add. restraining           0.000000000000 Eh    ::
         :: total charge              -0.000000000000 e     ::
         :::::::::::::::::::::::::::::::::::::::::::::::::::::

           -------------------------------------------------
          |                Property Printout                |
           -------------------------------------------------

    * Orbital Energies and Occupations

         #    Occupation            Energy/Eh            Energy/eV
      -------------------------------------------------------------
         1        2.0000           -0.9931649             -27.0254
       ...           ...                  ...                  ...
        13        2.0000           -0.4949934             -13.4695
        14        2.0000           -0.4941495             -13.4465
        15        2.0000           -0.4763162             -12.9612
        16        2.0000           -0.4688853             -12.7590
        17        2.0000           -0.4666087             -12.6971
        18        2.0000           -0.4560766             -12.4105
        19        2.0000           -0.4345806             -11.8255
        20        2.0000           -0.4199486             -11.4274
        21        2.0000           -0.4160837             -11.3222
        22        2.0000           -0.4158298             -11.3153
        23        2.0000           -0.3955005             -10.7621
        24        2.0000           -0.3950707             -10.7504
        25        2.0000           -0.3947142             -10.7407 (HOMO)
        26                         -0.0487086              -1.3254 (LUMO)
        27                          0.0378898               1.0310
        28                          0.0764283               2.0797
        29                          0.0803256               2.1858
        30                          0.0935756               2.5463
        31                          0.1041783               2.8348
        32                          0.1046539               2.8478
        33                          0.1192381               3.2446
        34                          0.1333586               3.6289
        35                          0.1336969               3.6381
        36                          0.1348752               3.6701
       ...                                ...                  ...
        51                          0.3155704               8.5871
      -------------------------------------------------------------
                  HL-Gap            0.3460055 Eh            9.4153 eV
             Fermi-level           -0.2217114 Eh           -6.0331 eV

     #   Z          covCN         q      C6AA      α(0)
     1   7 N        3.486    -0.166    24.569     7.362
     2   6 C        3.783     0.031    20.062     6.380
     3   6 C        3.808    -0.076    21.946     6.669
     4   6 C        3.804    -0.066    21.770     6.643
     5   6 C        3.806    -0.059    21.630     6.621
     6   6 C        3.804    -0.066    21.769     6.642
     7   6 C        3.808    -0.076    21.947     6.669
     8  17 Cl       0.000    -0.996   126.844    17.140
     9   1 H        0.859     0.312     0.680     1.292
    10   1 H        0.859     0.300     0.714     1.323
    11   1 H        0.859     0.312     0.680     1.292
    12   1 H        0.924     0.087     1.910     2.161
    13   1 H        0.924     0.060     2.195     2.317
    14   1 H        0.924     0.056     2.249     2.345
    15   1 H        0.924     0.059     2.215     2.328
    16   1 H        0.924     0.032     2.553     2.499
    17   1 H        0.924     0.029     2.596     2.520
    18   1 H        0.924     0.020     2.728     2.583
    19   1 H        0.924     0.059     2.217     2.328
    20   1 H        0.924     0.032     2.554     2.499
    21   1 H        0.924     0.060     2.197     2.318
    22   1 H        0.924     0.056     2.245     2.343

 Mol. C6AA /au·bohr⁶  :       3999.195844
 Mol. C8AA /au·bohr⁸  :      97558.796865
 Mol. α(0) /au        :         94.273198


Wiberg/Mayer (AO) data.
largest (>0.10) Wiberg bond orders for each atom

 ---------------------------------------------------------------------------
     #   Z sym  total        # sym  WBO       # sym  WBO       # sym  WBO
 ---------------------------------------------------------------------------
     1   7 N    3.654 --     2 C    0.946    11 H    0.889     9 H    0.889
                            10 H    0.884
     2   6 C    3.941 --     7 C    0.999     3 C    0.999    12 H    0.961
                             1 N    0.946
     3   6 C    3.990 --     4 C    1.007     2 C    0.999    13 H    0.971
                            14 H    0.968
     4   6 C    3.996 --     5 C    1.009     3 C    1.007    16 H    0.977
                            15 H    0.971
     5   6 C    3.997 --     6 C    1.009     4 C    1.009    18 H    0.978
                            17 H    0.977
     6   6 C    3.996 --     5 C    1.009     7 C    1.007    20 H    0.977
                            19 H    0.970
     7   6 C    3.990 --     6 C    1.007     2 C    0.999    21 H    0.972
                            22 H    0.968
     8  17 Cl   0.008
     9   1 H    0.903 --     1 N    0.889
    10   1 H    0.910 --     1 N    0.884
    11   1 H    0.903 --     1 N    0.889
    12   1 H    0.992 --     2 C    0.961
    13   1 H    0.996 --     3 C    0.971
    14   1 H    0.997 --     3 C    0.968
    15   1 H    0.997 --     4 C    0.971
    16   1 H    0.999 --     4 C    0.977
    17   1 H    0.999 --     5 C    0.977
    18   1 H    1.000 --     5 C    0.978
    19   1 H    0.997 --     6 C    0.970
    20   1 H    0.999 --     6 C    0.977
    21   1 H    0.996 --     7 C    0.972
    22   1 H    0.997 --     7 C    0.968
 ---------------------------------------------------------------------------

Topologies differ in total number of bonds
Writing topology from bond orders to xtbtopo.mol

molecular dipole:
                 x           y           z       tot (Debye)
 q only:       -5.532       0.549       8.730
   full:       -5.331       0.527       8.360      25.238
molecular quadrupole (traceless):
                xx          xy          yy          xz          yz          zz
 q only:       30.137      -0.537      21.756      15.861      -2.105     -51.893
  q+dip:       29.232      -0.698      19.008      12.954      -1.808     -48.240
   full:       29.415      -0.699      19.133      13.042      -1.824     -48.548

           -------------------------------------------------
          |                Geometry Summary                 |
           -------------------------------------------------

      molecular mass/u    :      135.6352267
   center of mass at/Å    :        0.2995396      -0.0053340      -0.8454011
  moments of inertia/u·Å² :        0.2506293E+03   0.6116560E+03   0.6574246E+03
rotational constants/cm⁻¹ :        0.6726121E-01   0.2756064E-01   0.2564193E-01

 * 21 selected distances

     #   Z          #   Z                                           value/Å
     1   7 N        2   6 C                                       1.4942986
     2   6 C        3   6 C                                       1.5252520
     3   6 C        4   6 C                                       1.5278470 (max)
     4   6 C        5   6 C                                       1.5259415
     5   6 C        6   6 C                                       1.5259154
     2   6 C        7   6 C                                       1.5251784
     6   6 C        7   6 C                                       1.5277613
     1   7 N        9   1 H                                       1.0256691
     1   7 N       10   1 H                                       1.0266841
     1   7 N       11   1 H                                       1.0255952 (min)
     2   6 C       12   1 H                                       1.0918751
     3   6 C       13   1 H                                       1.0907802
     3   6 C       14   1 H                                       1.0925003
     4   6 C       15   1 H                                       1.0919540
     4   6 C       16   1 H                                       1.0907153
     5   6 C       17   1 H                                       1.0918335
     5   6 C       18   1 H                                       1.0933382
     6   6 C       19   1 H                                       1.0920194
     6   6 C       20   1 H                                       1.0907351
     7   6 C       21   1 H                                       1.0907411
     7   6 C       22   1 H                                       1.0924651

 * 4 distinct bonds (by element types)

   Z      Z             #   av. dist./Å        max./Å        min./Å
   1 H    6 C          11     1.0917234     1.0933382     1.0907153
   6 C    6 C           6     1.5263159     1.5278470     1.5251784
   1 H    7 N           3     1.0259828     1.0266841     1.0255952
   6 C    7 N           1     1.4942986     1.4942986     1.4942986


optimized geometry written to: xtbopt.xyz


           -------------------------------------------------
          | TOTAL ENERGY              -27.506656715217 Eh   |
          | GRADIENT NORM               0.000371879352 Eh/α |
          | HOMO-LUMO GAP               9.415289868851 eV   |
           -------------------------------------------------

------------------------------------------------------------------------
 * finished run on 2023/01/24 at 14:55:53.513     
------------------------------------------------------------------------
 total:
 * wall-time:     0 d,  0 h,  0 min,  0.222 sec
 *  cpu-time:     0 d,  0 h,  0 min, 24.253 sec
 * ratio c/w:   109.403 speedup
 SCF:
 * wall-time:     0 d,  0 h,  0 min,  0.026 sec
 *  cpu-time:     0 d,  0 h,  0 min,  3.602 sec
 * ratio c/w:   139.985 speedup
 ANC optimizer:
 * wall-time:     0 d,  0 h,  0 min,  0.180 sec
 *  cpu-time:     0 d,  0 h,  0 min, 18.770 sec
 * ratio c/w:   104.031 speedup

