13
 energy: -20.383230105344 gnorm: 0.000258171136 xtb: 6.5.1 (fef0646)
N            0.91879152132802        0.15146224712484       -0.25005999751670
C            2.35749008978991        0.17687032482532        0.06812208247401
C            2.93413988227060        1.59195937743227       -0.03592771600353
C            2.44018390573009        2.46576313395934        0.99519128145712
N            2.04390430661676        3.16371852649781        1.81182385608129
Cl           0.05144443442509       -2.73650120578324       -0.07993963587553
H            0.56854591136902       -0.84500595557641       -0.19471915772879
H            0.73733991551263        0.48456858113049       -1.20063084419946
H            0.37558949436167        0.70566744201049        0.41653062506640
H            2.87442942791351       -0.47881406606471       -0.63180581886078
H            2.49837749078288       -0.22255628035517        1.07261223600219
H            2.70097220755086        2.03762183985623       -1.00565177445733
H            4.02063141234939        1.54850603494371        0.06375486356039
