19
 energy: -24.348974733381 gnorm: 0.000407134908 xtb: 6.5.1 (fef0646)
N            1.89246034878882        0.13577631689906        0.17375579066575
C            0.71026515265808        0.15202564770633       -0.72080391790810
C           -0.08626585888709       -1.14941746058665       -0.56978795865175
C           -1.21557094049122       -0.79111650874472        0.39305263184225
C           -1.60226380592185        0.61116690716650       -0.06388525025273
C           -0.24636107153680        1.28178315158310       -0.30032472618355
Cl           1.36116048916809       -0.00080883466402        3.18369120071184
H            2.51021211501197       -0.65130788291928       -0.03845453690587
H            1.60484575597241        0.04296600536667        1.18262907955130
H            2.42061244425924        1.00902761075451        0.10412515409411
H            1.06657816199047        0.28191908879187       -1.74419886721520
H            0.52620520596390       -1.96503583600213       -0.19422530934741
H           -0.50636261064839       -1.44281924845526       -1.53091902668919
H           -0.83667155758365       -0.75540017618640        1.41574930170353
H           -2.04479709214128       -1.49450255269608        0.35569951380198
H           -2.20026046528655        1.14248887839379        0.67363474934263
H           -2.17042388491774        0.55385256883328       -0.99328686550389
H            0.09986104164652        1.70828370276250        0.64063295069415
H           -0.30888342804486        2.07508862199708       -1.04102391374985
