17
 energy: -17.168510778227 gnorm: 0.000382279457 xtb: 6.5.1 (fef0646)
N            0.92875916079406       -0.06066097970546        0.09012615508246
C            2.42758982489077       -0.04279569286731        0.08723266853489
C            2.94413388275001        1.37334812075201       -0.11588092015414
C            4.47632036556892        1.40176026214477       -0.11943389880002
C            4.99855830758133        2.81834713106938       -0.32271647938282
H            0.56233845019517       -1.01107421119453        0.22623046338536
H            0.57648061903369        0.30728253304707       -0.80372403259350
H            0.57685262062733        0.54324943025670        0.84504408814821
H            2.77813504290714       -0.69404382144702       -0.71454682204264
H            2.77851603114532       -0.44257999355922        1.03953418497238
H            2.58404175909298        2.02208011157679        0.68503172884710
H            2.58462057067091        1.77057428263668       -1.06716033217207
H            4.84886128450596        0.75910537153033       -0.91808348839675
H            4.84824808990444        1.00991666755566        0.82806935227851
H            4.65848086831780        3.22284107526899       -1.27258387463362
H            6.08402962938543        2.81846983684354       -0.32240025335403
H            4.65794349262872        3.47377987609164        0.47472146028069
