 Entering Gaussian System
 *********************************************
 Gaussian 98:
 frequency output generated by the xtb code
 *********************************************
                         Standard orientation:
 --------------------------------------------------------------------
  Center     Atomic     Atomic              Coordinates (Angstroms)
  Number     Number      Type              X           Y           Z
 --------------------------------------------------------------------
    1          7             0       -1.877976    1.033569   -0.277805
    2          6             0       -1.852001   -0.370370    0.228907
    3          6             0       -0.472552   -0.854526    0.677663
    4          6             0        0.573394   -0.936594   -0.451760
    5          6             0        1.422270    0.329361   -0.635826
    6          6             0        2.435165    0.548638    0.481341
    7          1             0       -1.475530    1.677609    0.412122
    8          1             0       -2.838045    1.340514   -0.469792
    9          1             0       -1.349678    1.123225   -1.152967
   10          1             0       -2.241278   -1.037219   -0.548950
   11          1             0       -2.559549   -0.450185    1.063630
   12          1             0       -0.582406   -1.842265    1.144485
   13          1             0       -0.102896   -0.205657    1.477491
   14          1             0        0.062219   -1.192003   -1.387528
   15          1             0        1.255030   -1.776467   -0.268261
   16          1             0        0.769904    1.204485   -0.718335
   17          1             0        1.952506    0.278137   -1.595947
   18          1             0        3.039889    1.441265    0.310977
   19          1             0        3.118391   -0.297435    0.564940
   20          1             0        1.949349    0.667822    1.449792
 --------------------------------------------------------------------
     1 basis functions        1 primitive gaussians
     1 alpha electrons        1 beta electrons

 Harmonic frequencies (cm**-1), IR intensities (km*mol⁻¹),
 Raman scattering activities (A**4/amu), Raman depolarization ratios,
 reduced masses (AMU), force constants (mDyne/A) and normal coordinates:
                      1                      2                      3
                        a                      a                      a 
 Frequencies --    71.5344               125.0997               157.6097
 Red. masses --     8.1076                 6.2370                 6.1693
 Frc consts  --     0.0000                 0.0000                 0.0000
 IR Inten    --    10.9851                 9.4537                 5.3708
 Raman Activ --     0.0000                 0.0000                 0.0000
 Depolar     --     0.0000                 0.0000                 0.0000
 Atom AN      X      Y      Z        X      Y      Z        X      Y      Z
   1   7     0.27   0.18   0.23    -0.23   0.16   0.27     0.31   0.06  -0.09
   2   6     0.08   0.06  -0.07    -0.03  -0.06  -0.33    -0.00   0.03  -0.11
   3   6     0.00  -0.18  -0.07    -0.09   0.09   0.01    -0.14  -0.23   0.06
   4   6     0.06  -0.23  -0.01     0.12  -0.13   0.22     0.03  -0.10   0.22
   5   6    -0.03  -0.20  -0.17     0.07  -0.13  -0.03    -0.31   0.13   0.16
   6   6    -0.40   0.33   0.06     0.18   0.05  -0.16     0.09   0.09  -0.20
   7   1     0.17  -0.02   0.07    -0.32   0.01   0.25     0.20  -0.03  -0.05
   8   1     0.08   0.12   0.16    -0.05  -0.06  -0.14     0.09   0.10   0.06
   9   1     0.01   0.07   0.03     0.15   0.22   0.22     0.01  -0.03  -0.07
  10   1     0.01   0.07  -0.06     0.12   0.05  -0.21    -0.00   0.03  -0.05
  11   1     0.01  -0.01  -0.03    -0.10  -0.16  -0.18    -0.03   0.04  -0.06
  12   1    -0.04  -0.06  -0.06    -0.04   0.05   0.04    -0.10  -0.09  -0.05
  13   1     0.01  -0.10   0.01    -0.07   0.07  -0.01    -0.06  -0.13   0.07
  14   1     0.04  -0.12  -0.00     0.08  -0.12   0.06     0.05  -0.11   0.06
  15   1     0.03  -0.04   0.04     0.04  -0.01   0.16     0.07   0.03   0.12
  16   1    -0.03  -0.09  -0.21     0.01  -0.05  -0.02    -0.15   0.00   0.18
  17   1     0.08  -0.14   0.00    -0.01  -0.06  -0.02    -0.19   0.14  -0.02
  18   1    -0.10   0.07  -0.04     0.00   0.04  -0.07    -0.16   0.17   0.02
  19   1    -0.12   0.11   0.19     0.09   0.05  -0.07     0.19   0.14  -0.30
  20   1    -0.20   0.22  -0.04     0.08  -0.01  -0.03     0.13  -0.24   0.03
                      4                      5                      6
                        a                      a                      a 
 Frequencies --   189.7210               231.3166               300.0094
 Red. masses --     4.0382                 3.6797                 7.2783
 Frc consts  --     0.0000                 0.0000                 0.0000
 IR Inten    --    14.4462                 1.4368                 8.6155
 Raman Activ --     0.0000                 0.0000                 0.0000
 Depolar     --     0.0000                 0.0000                 0.0000
 Atom AN      X      Y      Z        X      Y      Z        X      Y      Z
   1   7    -0.35   0.08   0.05     0.12  -0.06   0.02    -0.27   0.13  -0.11
   2   6    -0.04  -0.01  -0.13    -0.10  -0.10  -0.12    -0.09   0.23   0.24
   3   6    -0.01   0.10  -0.08    -0.16  -0.14   0.03    -0.09  -0.33  -0.20
   4   6     0.15  -0.07   0.07    -0.05   0.11   0.11     0.13  -0.14  -0.04
   5   6     0.15  -0.09   0.03    -0.07   0.14   0.12     0.15  -0.09   0.11
   6   6     0.15  -0.01   0.02     0.23   0.06  -0.13     0.22   0.21   0.01
   7   1     0.30  -0.05  -0.15     0.12  -0.07   0.00    -0.19   0.13  -0.05
   8   1    -0.15   0.13   0.49     0.04   0.06   0.07    -0.09  -0.08  -0.14
   9   1    -0.50   0.01  -0.23    -0.01  -0.03  -0.02    -0.01   0.01   0.01
  10   1     0.00   0.00  -0.05    -0.00  -0.00  -0.07    -0.18   0.05   0.16
  11   1     0.00  -0.06  -0.03    -0.07  -0.04  -0.07     0.09   0.15   0.17
  12   1    -0.01   0.04   0.01    -0.05  -0.07  -0.05    -0.13  -0.16  -0.22
  13   1    -0.02   0.06  -0.04    -0.08  -0.08   0.05     0.03  -0.27   0.05
  14   1     0.08  -0.06   0.01     0.00   0.04   0.02     0.09  -0.02  -0.05
  15   1     0.03  -0.01   0.09    -0.00   0.04   0.02     0.03  -0.04   0.01
  16   1     0.02  -0.04  -0.01    -0.01   0.05   0.08     0.02  -0.04   0.03
  17   1     0.05  -0.03   0.01    -0.08   0.04   0.00     0.04  -0.02   0.03
  18   1     0.01   0.02   0.01     0.37  -0.24  -0.31     0.03   0.07  -0.08
  19   1     0.07   0.02  -0.01    -0.23  -0.19   0.20     0.10   0.09   0.04
  20   1     0.05  -0.04   0.01     0.12   0.48  -0.07     0.08   0.11   0.01
                      7                      8                      9
                        a                      a                      a 
 Frequencies --   308.3127               425.0940               463.0815
 Red. masses --     7.5658                 6.6164                 6.5039
 Frc consts  --     0.0000                 0.0000                 0.0000
 IR Inten    --     6.8221                 3.2058                10.1600
 Raman Activ --     0.0000                 0.0000                 0.0000
 Depolar     --     0.0000                 0.0000                 0.0000
 Atom AN      X      Y      Z        X      Y      Z        X      Y      Z
   1   7     0.17  -0.17   0.10    -0.01  -0.05   0.03    -0.12   0.10  -0.12
   2   6    -0.32  -0.15   0.02    -0.16   0.00   0.09     0.32   0.05  -0.10
   3   6    -0.28   0.00   0.01    -0.12  -0.05  -0.04     0.06  -0.26   0.37
   4   6    -0.21   0.21  -0.01     0.27   0.23   0.24    -0.20   0.23   0.14
   5   6     0.33  -0.11  -0.06     0.13   0.25  -0.34     0.07  -0.00  -0.11
   6   6     0.23   0.21  -0.01    -0.14  -0.22  -0.06    -0.02  -0.03  -0.05
   7   1     0.13  -0.12   0.04     0.01  -0.02   0.00    -0.07   0.09  -0.07
   8   1     0.10   0.10   0.01     0.02   0.03  -0.03    -0.10  -0.12   0.05
   9   1     0.08  -0.11   0.04     0.03  -0.06   0.02    -0.13   0.11  -0.08
  10   1    -0.10  -0.03  -0.00    -0.10   0.00   0.05     0.24   0.02  -0.10
  11   1    -0.11  -0.02  -0.00    -0.01   0.03   0.06    -0.03  -0.05  -0.14
  12   1    -0.02  -0.01  -0.01    -0.04  -0.08  -0.15    -0.08  -0.17  -0.12
  13   1    -0.12   0.01   0.01    -0.10  -0.12   0.10     0.00  -0.26   0.26
  14   1    -0.08   0.16  -0.02     0.18  -0.19   0.08    -0.18   0.18   0.07
  15   1    -0.14  -0.01  -0.06     0.18   0.19   0.28    -0.07   0.01  -0.14
  16   1     0.18   0.02  -0.18     0.09   0.10  -0.18     0.09   0.04  -0.14
  17   1     0.15  -0.20   0.02     0.07  -0.03  -0.07     0.05  -0.15  -0.01
  18   1    -0.09   0.17   0.04     0.06  -0.10   0.16    -0.02   0.01   0.04
  19   1     0.21   0.17  -0.05    -0.12  -0.13  -0.04     0.01   0.00  -0.02
  20   1     0.04  -0.07   0.00    -0.14  -0.15  -0.06    -0.04  -0.06  -0.02
                     10                     11                     12
                        a                      a                      a 
 Frequencies --   784.1697               814.6465               828.8530
 Red. masses --     4.4817                 3.2035                 5.6349
 Frc consts  --     0.0000                 0.0000                 0.0000
 IR Inten    --     2.3076                46.8694                19.3012
 Raman Activ --     0.0000                 0.0000                 0.0000
 Depolar     --     0.0000                 0.0000                 0.0000
 Atom AN      X      Y      Z        X      Y      Z        X      Y      Z
   1   7     0.07  -0.10   0.03     0.03   0.10  -0.14     0.06  -0.26   0.03
   2   6     0.22   0.01  -0.06    -0.02  -0.13  -0.20     0.18   0.07  -0.10
   3   6     0.01   0.05  -0.26    -0.00  -0.24   0.10    -0.03   0.35  -0.20
   4   6    -0.19   0.14   0.05     0.09  -0.02   0.14    -0.06   0.18   0.14
   5   6    -0.25   0.00   0.22     0.05   0.08  -0.04     0.05  -0.23   0.02
   6   6    -0.04  -0.01   0.05    -0.01   0.02  -0.04    -0.04  -0.08  -0.08
   7   1    -0.05  -0.02   0.04    -0.07  -0.19   0.21    -0.02  -0.18   0.14
   8   1    -0.03  -0.15   0.07    -0.03  -0.01   0.12    -0.01  -0.09   0.10
   9   1    -0.03   0.11  -0.01    -0.03   0.43  -0.02    -0.01   0.15   0.01
  10   1    -0.06  -0.02   0.07    -0.35  -0.11   0.19    -0.04  -0.09   0.11
  11   1     0.17   0.07   0.08     0.19   0.30   0.15     0.17   0.10   0.08
  12   1     0.00   0.02  -0.06     0.08   0.02   0.23    -0.12  -0.02  -0.33
  13   1     0.03   0.02  -0.09    -0.12   0.15  -0.09    -0.05  -0.15   0.16
  14   1     0.08  -0.11  -0.02    -0.09   0.17   0.05    -0.03   0.05   0.05
  15   1     0.03   0.14   0.17     0.01  -0.07  -0.17    -0.10  -0.01   0.10
  16   1     0.09   0.08  -0.36    -0.01  -0.00  -0.02    -0.02  -0.06   0.27
  17   1     0.16  -0.35   0.20    -0.02  -0.01  -0.03    -0.16   0.09  -0.09
  18   1     0.01  -0.05  -0.15     0.05  -0.01   0.08    -0.13   0.05  -0.06
  19   1    -0.03  -0.04  -0.22    -0.05  -0.03  -0.02     0.09   0.08   0.18
  20   1     0.28  -0.01   0.16    -0.06  -0.04  -0.03    -0.16   0.05  -0.10
                     13                     14                     15
                        a                      a                      a 
 Frequencies --   861.3848               899.4425               922.1889
 Red. masses --     4.9794                 5.1325                 6.0347
 Frc consts  --     0.0000                 0.0000                 0.0000
 IR Inten    --    27.1591                28.6762                11.0784
 Raman Activ --     0.0000                 0.0000                 0.0000
 Depolar     --     0.0000                 0.0000                 0.0000
 Atom AN      X      Y      Z        X      Y      Z        X      Y      Z
   1   7     0.22  -0.06   0.10    -0.12  -0.03  -0.16    -0.08   0.30  -0.09
   2   6     0.16   0.02   0.02     0.01   0.02   0.02    -0.04  -0.25   0.04
   3   6    -0.26  -0.14  -0.04     0.06   0.03   0.19     0.19  -0.20  -0.03
   4   6    -0.28  -0.05  -0.08    -0.27  -0.16  -0.26    -0.11   0.31   0.01
   5   6     0.09   0.10  -0.16    -0.03   0.12  -0.16    -0.04  -0.16   0.09
   6   6     0.17   0.03   0.07     0.19   0.05   0.19    -0.04  -0.21  -0.04
   7   1    -0.12   0.24  -0.11     0.05  -0.33   0.22     0.03   0.06  -0.04
   8   1    -0.09  -0.43   0.12     0.03   0.25   0.03     0.02   0.18  -0.07
   9   1    -0.13   0.08  -0.08     0.07   0.21   0.04     0.03  -0.01  -0.00
  10   1    -0.01   0.09  -0.04     0.13  -0.17   0.10    -0.06  -0.01  -0.00
  11   1     0.02   0.03  -0.01    -0.07   0.10  -0.05     0.03  -0.06   0.04
  12   1    -0.00   0.05   0.19    -0.07  -0.03  -0.04     0.25  -0.03   0.08
  13   1    -0.05   0.14  -0.16     0.20  -0.12   0.07     0.01   0.07  -0.09
  14   1     0.05  -0.22  -0.03    -0.01  -0.37  -0.01     0.07  -0.12   0.01
  15   1    -0.01   0.09   0.18     0.05   0.11   0.17     0.11   0.22   0.12
  16   1     0.07   0.08   0.12     0.06   0.08  -0.01     0.18   0.11   0.16
  17   1    -0.08   0.09  -0.10     0.03   0.07  -0.02    -0.10  -0.09  -0.02
  18   1     0.03   0.04   0.13     0.05   0.02   0.06    -0.25   0.07  -0.21
  19   1     0.07   0.04   0.17     0.06   0.02   0.07     0.20   0.14   0.23
  20   1    -0.13   0.01  -0.07     0.05   0.02   0.05    -0.08   0.11  -0.07
                     16                     17                     18
                        a                      a                      a 
 Frequencies --   975.1043              1019.6158              1040.1650
 Red. masses --     5.5768                 8.0255                 4.3190
 Frc consts  --     0.0000                 0.0000                 0.0000
 IR Inten    --    14.9900                25.6525                 4.6663
 Raman Activ --     0.0000                 0.0000                 0.0000
 Depolar     --     0.0000                 0.0000                 0.0000
 Atom AN      X      Y      Z        X      Y      Z        X      Y      Z
   1   7    -0.20   0.04   0.08    -0.15  -0.36   0.12    -0.00  -0.00   0.14
   2   6     0.23  -0.02  -0.14     0.07   0.52  -0.20    -0.02  -0.03  -0.27
   3   6     0.11  -0.05  -0.22    -0.05  -0.21   0.10     0.06   0.09   0.18
   4   6    -0.25  -0.09   0.25     0.08   0.00  -0.02     0.03  -0.06  -0.08
   5   6    -0.09   0.07  -0.07     0.04   0.11   0.09    -0.05   0.03  -0.26
   6   6     0.21   0.13   0.04    -0.09  -0.15  -0.09     0.02  -0.09   0.27
   7   1     0.11  -0.00  -0.06     0.06  -0.17   0.05     0.01   0.14  -0.10
   8   1     0.06   0.26  -0.16     0.02   0.06  -0.01    -0.00  -0.06  -0.05
   9   1     0.10  -0.30   0.08     0.05  -0.18   0.07    -0.01  -0.17   0.01
  10   1    -0.10   0.04   0.01     0.00   0.11  -0.02    -0.29   0.08  -0.01
  11   1     0.28  -0.11   0.13     0.03   0.10  -0.04     0.19   0.03   0.10
  12   1    -0.05   0.03   0.01    -0.14   0.06   0.24     0.02  -0.04  -0.09
  13   1    -0.00   0.03  -0.08     0.09   0.08  -0.12    -0.26  -0.00   0.19
  14   1    -0.13   0.00   0.09     0.04   0.04  -0.03    -0.27  -0.19   0.17
  15   1    -0.07  -0.04  -0.01     0.13   0.06  -0.11     0.09   0.03  -0.10
  16   1     0.01   0.05  -0.03     0.18   0.16   0.03    -0.03   0.00  -0.01
  17   1    -0.16  -0.12  -0.09     0.01  -0.06   0.03     0.12   0.18  -0.00
  18   1     0.17   0.01   0.29    -0.16   0.03  -0.15    -0.10  -0.00  -0.23
  19   1    -0.05  -0.05   0.07     0.09   0.07   0.09     0.13   0.07   0.01
  20   1    -0.15  -0.08  -0.07    -0.05   0.06  -0.05     0.24   0.10   0.17
                     19                     20                     21
                        a                      a                      a 
 Frequencies --  1072.0586              1120.6414              1137.0109
 Red. masses --     7.0240                 6.2383                 7.8056
 Frc consts  --     0.0000                 0.0000                 0.0000
 IR Inten    --    16.3811                 4.7620                 2.5706
 Raman Activ --     0.0000                 0.0000                 0.0000
 Depolar     --     0.0000                 0.0000                 0.0000
 Atom AN      X      Y      Z        X      Y      Z        X      Y      Z
   1   7    -0.11   0.13  -0.01    -0.04  -0.13   0.02    -0.05  -0.00  -0.08
   2   6     0.35  -0.20   0.04    -0.09   0.25  -0.12     0.20   0.03   0.22
   3   6    -0.30  -0.03   0.03     0.22  -0.23   0.00    -0.28  -0.12  -0.15
   4   6    -0.11  -0.05  -0.03    -0.19   0.28   0.08     0.19   0.19   0.13
   5   6     0.37   0.11   0.06     0.18  -0.25  -0.10    -0.21  -0.10  -0.38
   6   6    -0.27  -0.02  -0.13    -0.10   0.15   0.07     0.11  -0.09   0.32
   7   1     0.06  -0.01  -0.02     0.00  -0.06   0.03     0.02  -0.10   0.06
   8   1     0.03   0.17  -0.07     0.01   0.02  -0.01     0.02   0.10  -0.01
   9   1     0.06  -0.08   0.04     0.00  -0.04   0.01     0.03   0.05   0.01
  10   1     0.05  -0.09   0.07    -0.07   0.13  -0.06     0.21  -0.03   0.01
  11   1     0.20  -0.06   0.09    -0.04   0.06  -0.05    -0.02  -0.07  -0.01
  12   1    -0.18   0.04   0.10     0.31  -0.06   0.04    -0.09   0.05   0.12
  13   1    -0.07   0.03  -0.03     0.09   0.03  -0.09    -0.03   0.09  -0.15
  14   1     0.09   0.00  -0.08     0.06  -0.05   0.00     0.06   0.21  -0.02
  15   1    -0.16  -0.08   0.16    -0.17   0.02   0.25    -0.01  -0.01  -0.07
  16   1     0.02  -0.01   0.12    -0.21  -0.24   0.13    -0.20  -0.13  -0.09
  17   1     0.21   0.27   0.07     0.02   0.21  -0.05    -0.12   0.03  -0.14
  18   1    -0.07  -0.03  -0.18     0.11  -0.06   0.02    -0.05  -0.00  -0.11
  19   1    -0.07  -0.02  -0.17    -0.13  -0.08  -0.20     0.14   0.06   0.07
  20   1     0.09   0.02   0.04     0.14  -0.05   0.11     0.19   0.08   0.15
                     22                     23                     24
                        a                      a                      a 
 Frequencies --  1141.4290              1210.1493              1239.9231
 Red. masses --     7.6441                 3.8405                 3.2508
 Frc consts  --     0.0000                 0.0000                 0.0000
 IR Inten    --     2.4485                 7.9392                 2.0217
 Raman Activ --     0.0000                 0.0000                 0.0000
 Depolar     --     0.0000                 0.0000                 0.0000
 Atom AN      X      Y      Z        X      Y      Z        X      Y      Z
   1   7     0.07  -0.01  -0.08    -0.05  -0.10  -0.18    -0.03  -0.04  -0.00
   2   6    -0.18   0.02   0.13     0.16   0.16   0.30     0.04   0.06  -0.01
   3   6     0.21  -0.03  -0.32    -0.11  -0.04  -0.13     0.04  -0.02   0.05
   4   6    -0.15  -0.22   0.41     0.02  -0.05  -0.06    -0.05  -0.09   0.00
   5   6     0.16   0.29  -0.12     0.03  -0.05   0.12    -0.14   0.27   0.04
   6   6    -0.12  -0.11   0.04    -0.01   0.07  -0.07     0.18  -0.22  -0.08
   7   1    -0.04  -0.03   0.03     0.00  -0.17   0.09    -0.00  -0.04   0.02
   8   1    -0.02  -0.06   0.06     0.00   0.09   0.06     0.01   0.04  -0.02
   9   1    -0.02   0.11  -0.03     0.05   0.14   0.01    -0.00  -0.01   0.00
  10   1     0.06   0.05  -0.06     0.09   0.26  -0.14    -0.03   0.08  -0.03
  11   1    -0.12  -0.09  -0.04    -0.01  -0.20   0.01     0.00   0.03  -0.01
  12   1     0.02   0.01  -0.04     0.28  -0.05  -0.06     0.30  -0.07  -0.07
  13   1     0.22  -0.04  -0.14    -0.50   0.15   0.06    -0.14   0.01   0.07
  14   1    -0.24   0.03   0.19    -0.24  -0.19   0.16     0.16   0.11  -0.13
  15   1    -0.12  -0.15  -0.04     0.12   0.06  -0.11    -0.31  -0.21   0.22
  16   1     0.13   0.15   0.04     0.07   0.04   0.05    -0.26  -0.13  -0.31
  17   1     0.08   0.10  -0.01     0.07   0.02   0.06     0.23   0.11   0.15
  18   1    -0.12   0.00  -0.18     0.05  -0.01   0.03    -0.12   0.06  -0.02
  19   1     0.07   0.06  -0.01    -0.06  -0.03  -0.04     0.16   0.07   0.23
  20   1     0.10   0.09   0.06    -0.05  -0.05  -0.03    -0.16   0.07  -0.14
                     25                     26                     27
                        a                      a                      a 
 Frequencies --  1261.7523              1275.4797              1328.2915
 Red. masses --     2.2343                 2.4490                 3.4828
 Frc consts  --     0.0000                 0.0000                 0.0000
 IR Inten    --    14.2608                 1.0294                31.6486
 Raman Activ --     0.0000                 0.0000                 0.0000
 Depolar     --     0.0000                 0.0000                 0.0000
 Atom AN      X      Y      Z        X      Y      Z        X      Y      Z
   1   7     0.07  -0.05  -0.19     0.03   0.02   0.04    -0.08  -0.16   0.06
   2   6    -0.10  -0.04   0.07    -0.03  -0.02  -0.00     0.16  -0.20   0.14
   3   6     0.08   0.05   0.16    -0.01  -0.07  -0.12     0.23  -0.03  -0.09
   4   6    -0.01   0.07  -0.06    -0.01   0.21   0.04     0.07   0.09  -0.11
   5   6    -0.02  -0.01  -0.00    -0.00  -0.08   0.13     0.04   0.06   0.05
   6   6     0.02  -0.02  -0.01     0.12  -0.05  -0.15    -0.01  -0.01   0.03
   7   1    -0.06  -0.09   0.07    -0.02   0.03  -0.00    -0.00   0.11  -0.13
   8   1    -0.00  -0.00   0.07     0.01   0.00  -0.04     0.07   0.19  -0.07
   9   1     0.00   0.15  -0.04    -0.04  -0.02  -0.02    -0.02   0.16   0.03
  10   1    -0.28   0.43  -0.24     0.07  -0.13   0.06    -0.19   0.27  -0.13
  11   1     0.24  -0.48   0.19    -0.03   0.02  -0.02    -0.30   0.37  -0.21
  12   1    -0.32   0.07   0.10    -0.25   0.07   0.09    -0.37   0.09   0.08
  13   1     0.21  -0.08   0.03     0.15   0.00  -0.12    -0.16   0.04   0.04
  14   1     0.10   0.04  -0.07    -0.32  -0.18   0.24    -0.10  -0.07   0.06
  15   1    -0.01   0.03   0.05     0.19   0.18  -0.11    -0.16  -0.08   0.15
  16   1    -0.07  -0.06  -0.04    -0.30  -0.26  -0.14    -0.03  -0.02  -0.02
  17   1     0.02   0.01   0.01     0.34   0.24   0.21    -0.12  -0.10  -0.05
  18   1    -0.01   0.01   0.02    -0.01   0.03   0.07    -0.02   0.00  -0.04
  19   1     0.01   0.01   0.03     0.02  -0.01   0.11    -0.00  -0.00  -0.02
  20   1    -0.01   0.01  -0.01    -0.14  -0.02  -0.12    -0.01   0.00   0.00
                     28                     29                     30
                        a                      a                      a 
 Frequencies --  1343.1191              1354.8752              1364.8470
 Red. masses --     3.9922                 4.3677                 3.5969
 Frc consts  --     0.0000                 0.0000                 0.0000
 IR Inten    --     2.1239                14.5872               153.4810
 Raman Activ --     0.0000                 0.0000                 0.0000
 Depolar     --     0.0000                 0.0000                 0.0000
 Atom AN      X      Y      Z        X      Y      Z        X      Y      Z
   1   7     0.08   0.10  -0.02     0.03   0.09  -0.04    -0.11   0.23  -0.08
   2   6    -0.16   0.15  -0.04    -0.13   0.08   0.01     0.13  -0.10   0.02
   3   6     0.14  -0.11  -0.03     0.30  -0.13  -0.07    -0.19   0.03   0.03
   4   6     0.07   0.09  -0.19     0.07   0.08  -0.02     0.23   0.12  -0.10
   5   6     0.22   0.21   0.15    -0.29  -0.19  -0.13    -0.06  -0.02   0.04
   6   6    -0.02  -0.06   0.07     0.04   0.08  -0.04     0.01   0.01  -0.02
   7   1    -0.04  -0.07   0.12     0.01  -0.05   0.06     0.24  -0.28   0.12
   8   1    -0.02  -0.10   0.01    -0.06  -0.13   0.10    -0.16  -0.38   0.09
   9   1    -0.05  -0.11  -0.06     0.05  -0.09   0.01     0.21  -0.26   0.10
  10   1     0.17  -0.23   0.12     0.11  -0.15   0.08    -0.16   0.15  -0.06
  11   1     0.11  -0.22   0.09    -0.00  -0.08   0.02    -0.09   0.10  -0.08
  12   1    -0.14   0.04   0.09    -0.31   0.07   0.13     0.10  -0.01   0.01
  13   1    -0.22   0.05   0.05    -0.31   0.07   0.08     0.26  -0.07  -0.07
  14   1    -0.15  -0.18   0.10     0.05   0.07  -0.03    -0.22  -0.12   0.16
  15   1    -0.18  -0.10   0.13    -0.21  -0.12   0.17    -0.20  -0.15   0.09
  16   1    -0.20  -0.15  -0.11     0.27   0.22   0.12     0.06   0.05  -0.00
  17   1    -0.33  -0.28  -0.16     0.27   0.19   0.14    -0.03  -0.03   0.01
  18   1    -0.08   0.00  -0.13     0.07  -0.00   0.08    -0.01   0.01   0.03
  19   1    -0.00  -0.01  -0.08    -0.02  -0.00   0.05    -0.01  -0.01   0.01
  20   1    -0.04   0.03  -0.01     0.02  -0.05   0.01    -0.00   0.00  -0.00
                     31                     32                     33
                        a                      a                      a 
 Frequencies --  1375.0976              1395.6863              1407.4920
 Red. masses --     3.8935                 1.5873                 1.7139
 Frc consts  --     0.0000                 0.0000                 0.0000
 IR Inten    --   111.8978               118.9551               122.3877
 Raman Activ --     0.0000                 0.0000                 0.0000
 Depolar     --     0.0000                 0.0000                 0.0000
 Atom AN      X      Y      Z        X      Y      Z        X      Y      Z
   1   7    -0.06   0.19  -0.06    -0.04   0.02   0.20    -0.16  -0.10  -0.02
   2   6     0.02  -0.06   0.08    -0.04   0.03   0.03    -0.11   0.05  -0.04
   3   6     0.22   0.03  -0.07     0.01  -0.01  -0.01     0.03  -0.02  -0.00
   4   6    -0.30  -0.13   0.13     0.01  -0.00  -0.01    -0.02   0.00  -0.00
   5   6     0.15   0.04  -0.00    -0.02  -0.02  -0.01     0.03   0.01   0.03
   6   6    -0.01  -0.03   0.02    -0.01   0.01  -0.01     0.02  -0.01   0.02
   7   1     0.17  -0.24   0.13     0.45  -0.19  -0.06     0.39   0.19  -0.42
   8   1    -0.12  -0.30   0.04     0.06  -0.23  -0.67    -0.08  -0.11   0.18
   9   1     0.11  -0.21   0.05    -0.30   0.30  -0.13     0.48   0.37   0.33
  10   1    -0.05   0.09  -0.04     0.03   0.01  -0.01     0.08  -0.10   0.03
  11   1    -0.12   0.13  -0.08     0.04  -0.07   0.04     0.08  -0.09   0.06
  12   1    -0.17   0.04   0.01     0.01   0.01   0.03    -0.01   0.01   0.02
  13   1    -0.24   0.04   0.10    -0.02  -0.01   0.02    -0.01  -0.01   0.01
  14   1     0.24   0.12  -0.18    -0.01   0.01   0.00     0.00  -0.00  -0.00
  15   1     0.29   0.22  -0.16    -0.01  -0.01   0.02     0.00   0.01   0.01
  16   1    -0.17  -0.14  -0.07     0.04   0.03   0.02    -0.05  -0.04  -0.08
  17   1    -0.04   0.04  -0.04     0.01   0.02   0.01    -0.05   0.04  -0.03
  18   1    -0.01  -0.01  -0.05     0.01  -0.00   0.02    -0.03   0.01  -0.04
  19   1     0.02   0.01  -0.02    -0.00   0.00   0.01    -0.01  -0.01  -0.02
  20   1    -0.01   0.01  -0.00     0.01  -0.01   0.01    -0.04  -0.00  -0.02
                     34                     35                     36
                        a                      a                      a 
 Frequencies --  1437.1636              1480.1462              1489.1781
 Red. masses --     3.1843                 1.8461                 1.8816
 Frc consts  --     0.0000                 0.0000                 0.0000
 IR Inten    --     2.1885                11.8461                 3.5620
 Raman Activ --     0.0000                 0.0000                 0.0000
 Depolar     --     0.0000                 0.0000                 0.0000
 Atom AN      X      Y      Z        X      Y      Z        X      Y      Z
   1   7    -0.01  -0.00  -0.01    -0.01  -0.01  -0.00     0.00  -0.01   0.00
   2   6    -0.00   0.01   0.00    -0.23  -0.15   0.00     0.03   0.02  -0.02
   3   6     0.02  -0.01   0.01    -0.01   0.00  -0.03    -0.06   0.07  -0.25
   4   6    -0.00  -0.00  -0.04     0.01   0.04   0.00    -0.01  -0.01  -0.03
   5   6     0.07   0.06   0.04    -0.00   0.01  -0.01    -0.01   0.03  -0.05
   6   6    -0.30  -0.08  -0.30    -0.01  -0.00  -0.01    -0.03  -0.02   0.02
   7   1     0.02   0.01  -0.02    -0.01  -0.03   0.02    -0.02   0.02  -0.01
   8   1    -0.01  -0.00   0.02    -0.01  -0.01   0.01     0.00   0.02   0.02
   9   1     0.04   0.01   0.02    -0.00  -0.04   0.00     0.01   0.00   0.00
  10   1     0.01  -0.02   0.01     0.49   0.19  -0.42    -0.06  -0.03   0.05
  11   1    -0.00  -0.02  -0.00     0.34   0.46   0.34    -0.04  -0.04  -0.05
  12   1    -0.02  -0.02  -0.03     0.02   0.03   0.08     0.21   0.24   0.55
  13   1    -0.05   0.04  -0.01     0.01  -0.07   0.05    -0.01  -0.50   0.40
  14   1    -0.04  -0.00   0.01     0.03  -0.08   0.01    -0.03   0.05   0.00
  15   1     0.00   0.01   0.03    -0.04  -0.04  -0.06     0.04   0.05   0.04
  16   1    -0.08  -0.06   0.01    -0.01  -0.01   0.03    -0.06  -0.03   0.14
  17   1    -0.04  -0.09  -0.01     0.02  -0.03   0.01     0.08  -0.12   0.06
  18   1     0.26  -0.11   0.42     0.00   0.00   0.02     0.08  -0.05   0.03
  19   1     0.27   0.26   0.36     0.00   0.00   0.01     0.09   0.07  -0.10
  20   1     0.44   0.08   0.20     0.01   0.01   0.00    -0.04   0.08  -0.03
                     37                     38                     39
                        a                      a                      a 
 Frequencies --  1505.7074              1509.2585              1511.6465
 Red. masses --     1.6571                 1.8122                 1.7184
 Frc consts  --     0.0000                 0.0000                 0.0000
 IR Inten    --     1.1498                 0.8684                 1.5417
 Raman Activ --     0.0000                 0.0000                 0.0000
 Depolar     --     0.0000                 0.0000                 0.0000
 Atom AN      X      Y      Z        X      Y      Z        X      Y      Z
   1   7     0.01  -0.00  -0.00    -0.01  -0.00   0.00     0.01  -0.01   0.00
   2   6    -0.01  -0.01  -0.01     0.03   0.01   0.00     0.01   0.01   0.00
   3   6    -0.02   0.02  -0.06    -0.00   0.02  -0.01    -0.00   0.02  -0.07
   4   6     0.01  -0.05  -0.02    -0.03   0.13   0.10    -0.02   0.08   0.07
   5   6     0.03  -0.08   0.15    -0.00   0.12  -0.10     0.04  -0.11   0.10
   6   6    -0.05   0.14  -0.01     0.03   0.12  -0.07     0.08  -0.08  -0.11
   7   1    -0.04   0.00   0.02     0.02   0.01  -0.02    -0.03   0.01   0.01
   8   1     0.01   0.02   0.00    -0.00  -0.00  -0.00     0.01   0.02  -0.01
   9   1    -0.03  -0.02  -0.02     0.02   0.02   0.01    -0.03   0.00  -0.01
  10   1     0.01   0.01  -0.02    -0.06  -0.01   0.04    -0.03  -0.01   0.03
  11   1     0.01   0.02   0.01    -0.04  -0.04  -0.04    -0.02  -0.02  -0.02
  12   1     0.06   0.05   0.12     0.01   0.02   0.04     0.04   0.06   0.13
  13   1     0.03  -0.12   0.08     0.00  -0.04   0.04    -0.03  -0.12   0.11
  14   1    -0.08   0.10   0.02     0.24  -0.34  -0.04     0.15  -0.21  -0.02
  15   1     0.04   0.05   0.10    -0.13  -0.18  -0.34    -0.07  -0.10  -0.22
  16   1     0.13   0.07  -0.41    -0.12  -0.06   0.24     0.14   0.06  -0.30
  17   1    -0.23   0.35  -0.15     0.14  -0.25   0.09    -0.19   0.29  -0.13
  18   1     0.15  -0.16  -0.31    -0.06   0.01  -0.21    -0.33   0.28   0.28
  19   1     0.02   0.05   0.31    -0.16  -0.09   0.36    -0.25  -0.21   0.05
  20   1     0.01  -0.49   0.07     0.11  -0.41   0.10     0.24   0.25   0.08
                     40                     41                     42
                        a                      a                      a 
 Frequencies --  1517.0222              2909.8879              2918.2366
 Red. masses --     1.7613                 1.8842                 1.9324
 Frc consts  --     0.0000                 0.0000                 0.0000
 IR Inten    --     1.2588                68.5014                41.9331
 Raman Activ --     0.0000                 0.0000                 0.0000
 Depolar     --     0.0000                 0.0000                 0.0000
 Atom AN      X      Y      Z        X      Y      Z        X      Y      Z
   1   7    -0.00   0.00  -0.00    -0.00   0.00   0.00     0.00   0.00   0.00
   2   6    -0.02  -0.00  -0.00     0.00  -0.00  -0.00     0.00   0.00   0.01
   3   6    -0.00  -0.01  -0.01    -0.00  -0.01  -0.00    -0.01  -0.06   0.02
   4   6     0.02  -0.15  -0.11    -0.01  -0.01  -0.02    -0.19   0.10  -0.18
   5   6     0.03   0.06  -0.08    -0.18   0.10   0.19     0.01  -0.02  -0.01
   6   6     0.11   0.03  -0.10     0.01  -0.00  -0.01    -0.00  -0.01   0.00
   7   1     0.01  -0.00  -0.00     0.00  -0.00   0.00     0.00   0.00   0.00
   8   1    -0.00  -0.01   0.01     0.00  -0.00   0.00    -0.00  -0.00   0.00
   9   1     0.02  -0.01   0.01     0.00  -0.00   0.00     0.00  -0.00  -0.00
  10   1     0.04   0.01  -0.03     0.00   0.00   0.00    -0.00  -0.01  -0.01
  11   1     0.03   0.03   0.02    -0.00  -0.00   0.00     0.00   0.00  -0.00
  12   1     0.02  -0.00   0.01     0.00   0.02  -0.01     0.02   0.21  -0.10
  13   1    -0.01  -0.01   0.01     0.00   0.00   0.00     0.01   0.01   0.02
  14   1    -0.24   0.37   0.03     0.05   0.02   0.10     0.29   0.16   0.54
  15   1     0.15   0.20   0.37    -0.03   0.03  -0.01     0.41  -0.51   0.11
  16   1    -0.07  -0.04   0.16     0.22  -0.31   0.05    -0.06   0.09  -0.01
  17   1     0.06  -0.16   0.03     0.42  -0.05  -0.76    -0.00  -0.00   0.01
  18   1    -0.32   0.23   0.02    -0.01  -0.02   0.00     0.01   0.01  -0.00
  19   1    -0.33  -0.25   0.27    -0.02   0.03  -0.01    -0.00   0.01   0.00
  20   1     0.22  -0.11   0.12    -0.02   0.00   0.04     0.00  -0.00  -0.01
                     43                     44                     45
                        a                      a                      a 
 Frequencies --  2931.2624              2952.6915              2954.0483
 Red. masses --     1.8713                 1.5322                 1.8107
 Frc consts  --     0.0000                 0.0000                 0.0000
 IR Inten    --    16.8117                65.9619                36.3580
 Raman Activ --     0.0000                 0.0000                 0.0000
 Depolar     --     0.0000                 0.0000                 0.0000
 Atom AN      X      Y      Z        X      Y      Z        X      Y      Z
   1   7     0.00   0.00  -0.00     0.00  -0.00   0.00    -0.00   0.00   0.00
   2   6     0.01   0.00  -0.00     0.01  -0.01  -0.03     0.07  -0.06  -0.21
   3   6    -0.05  -0.26   0.03     0.01   0.05  -0.01     0.01  -0.01   0.04
   4   6     0.04   0.01   0.07    -0.03   0.16   0.11     0.02  -0.06  -0.02
   5   6    -0.01   0.01  -0.00     0.01  -0.04   0.06     0.05  -0.09   0.04
   6   6     0.00   0.00  -0.00     0.01   0.01  -0.00     0.00   0.02  -0.00
   7   1    -0.00   0.00  -0.00     0.00   0.00   0.00    -0.00  -0.01  -0.01
   8   1     0.00  -0.00   0.00    -0.00   0.00  -0.00     0.00   0.00   0.00
   9   1    -0.00   0.00   0.00     0.00   0.00  -0.01     0.01   0.00  -0.02
  10   1    -0.02  -0.03  -0.04     0.03   0.05   0.05     0.16   0.26   0.29
  11   1    -0.03  -0.00   0.04    -0.05  -0.01   0.06    -0.41  -0.05   0.49
  12   1     0.08   0.76  -0.35    -0.02  -0.16   0.07     0.01   0.12  -0.05
  13   1     0.12   0.18   0.27    -0.02  -0.02  -0.04    -0.05  -0.09  -0.10
  14   1    -0.14  -0.07  -0.26    -0.31  -0.11  -0.53     0.07   0.02   0.12
  15   1     0.00   0.01   0.01     0.40  -0.46   0.14    -0.14   0.17  -0.05
  16   1     0.03  -0.04   0.00    -0.16   0.20  -0.01    -0.28   0.36  -0.02
  17   1    -0.01   0.00   0.01     0.12  -0.02  -0.19     0.09  -0.03  -0.14
  18   1    -0.00  -0.01   0.00    -0.02  -0.03   0.01    -0.03  -0.04   0.01
  19   1    -0.00  -0.00  -0.00     0.01  -0.01   0.00     0.03  -0.04   0.00
  20   1     0.00  -0.00  -0.00    -0.01   0.00   0.01    -0.00   0.00   0.01
                     46                     47                     48
                        a                      a                      a 
 Frequencies --  2955.7295              2975.1618              2983.3946
 Red. masses --     1.6973                 1.5884                 1.5762
 Frc consts  --     0.0000                 0.0000                 0.0000
 IR Inten    --    55.0144                35.6952                24.8816
 Raman Activ --     0.0000                 0.0000                 0.0000
 Depolar     --     0.0000                 0.0000                 0.0000
 Atom AN      X      Y      Z        X      Y      Z        X      Y      Z
   1   7     0.00  -0.00   0.00     0.00  -0.00   0.00    -0.00   0.00  -0.00
   2   6    -0.05   0.04   0.15     0.06   0.03  -0.04     0.15   0.14   0.06
   3   6    -0.01  -0.03  -0.02    -0.07  -0.05  -0.20     0.03   0.04   0.06
   4   6     0.03  -0.05  -0.01    -0.01  -0.00  -0.02     0.00   0.00   0.01
   5   6     0.07  -0.14   0.07     0.00  -0.00   0.00    -0.00   0.00  -0.00
   6   6     0.01   0.03  -0.01    -0.01  -0.01   0.01     0.01   0.00  -0.01
   7   1     0.00   0.01   0.00     0.00   0.01   0.00     0.01   0.01   0.01
   8   1    -0.00   0.00  -0.00    -0.01   0.00  -0.00     0.00   0.00  -0.00
   9   1    -0.00   0.00   0.00     0.01   0.00  -0.01     0.01   0.00  -0.01
  10   1    -0.12  -0.19  -0.21    -0.04  -0.09  -0.11    -0.26  -0.48  -0.58
  11   1     0.28   0.03  -0.33    -0.20  -0.02   0.25    -0.28  -0.02   0.38
  12   1     0.00   0.03  -0.02    -0.04  -0.33   0.11     0.01   0.04  -0.01
  13   1     0.04   0.07   0.09     0.29   0.51   0.59    -0.10  -0.18  -0.21
  14   1     0.04   0.01   0.07     0.04   0.02   0.06    -0.01  -0.00  -0.02
  15   1    -0.13   0.15  -0.04     0.01  -0.01  -0.00     0.00  -0.00   0.00
  16   1    -0.43   0.55  -0.02    -0.01   0.01  -0.00     0.01  -0.01   0.00
  17   1     0.16  -0.04  -0.25     0.00  -0.00  -0.00    -0.00   0.00   0.00
  18   1    -0.05  -0.07   0.01     0.02   0.02  -0.00    -0.01  -0.01   0.00
  19   1     0.05  -0.05   0.00    -0.01   0.01   0.00    -0.00   0.00  -0.00
  20   1    -0.01   0.01   0.01     0.02  -0.01  -0.04    -0.01   0.00   0.02
                     49                     50                     51
                        a                      a                      a 
 Frequencies --  2989.3650              2998.1403              3017.2977
 Red. masses --     1.9029                 1.9252                 1.2984
 Frc consts  --     0.0000                 0.0000                 0.0000
 IR Inten    --    95.4975                87.1468                55.2427
 Raman Activ --     0.0000                 0.0000                 0.0000
 Depolar     --     0.0000                 0.0000                 0.0000
 Atom AN      X      Y      Z        X      Y      Z        X      Y      Z
   1   7    -0.00   0.00  -0.00     0.00   0.00   0.00    -0.00  -0.00  -0.00
   2   6     0.00  -0.00  -0.00    -0.00  -0.00  -0.00     0.00   0.00   0.00
   3   6    -0.00  -0.00  -0.01    -0.00  -0.00  -0.00     0.00   0.00   0.01
   4   6    -0.01   0.00  -0.01     0.00  -0.00  -0.00     0.00  -0.00   0.00
   5   6    -0.01   0.03  -0.02     0.02  -0.02  -0.01     0.00  -0.00   0.01
   6   6     0.11   0.24  -0.10     0.20  -0.15  -0.13     0.06  -0.01   0.15
   7   1    -0.00  -0.00  -0.00    -0.00  -0.00  -0.00     0.00   0.00   0.00
   8   1     0.00  -0.00   0.00    -0.00   0.00  -0.00     0.00  -0.00   0.00
   9   1    -0.00  -0.00   0.00    -0.00  -0.00  -0.00    -0.00   0.00  -0.00
  10   1     0.00   0.01   0.01     0.00   0.01   0.01    -0.00  -0.00  -0.00
  11   1    -0.01  -0.00   0.01     0.00  -0.00  -0.00     0.00   0.00  -0.00
  12   1    -0.00  -0.02   0.01    -0.00  -0.00   0.00     0.00   0.01  -0.00
  13   1     0.01   0.03   0.03     0.01   0.01   0.02    -0.01  -0.02  -0.02
  14   1     0.01   0.01   0.02     0.00   0.00   0.01    -0.00  -0.00  -0.00
  15   1     0.01  -0.02   0.00    -0.01   0.01  -0.00    -0.01   0.01  -0.00
  16   1     0.06  -0.08   0.00    -0.03   0.05  -0.00    -0.01   0.01   0.00
  17   1    -0.04   0.01   0.06    -0.02   0.00   0.03     0.01  -0.00  -0.01
  18   1    -0.48  -0.71   0.14    -0.01  -0.09  -0.01    -0.21  -0.33   0.09
  19   1     0.21  -0.21   0.00    -0.44   0.58  -0.07    -0.34   0.44  -0.01
  20   1    -0.11   0.07   0.21    -0.27   0.04   0.54     0.34  -0.08  -0.61
                     52                     53                     54
                        a                      a                      a 
 Frequencies --  3254.8302              3262.6852              3283.5733
 Red. masses --     2.0448                 2.0621                 1.2807
 Frc consts  --     0.0000                 0.0000                 0.0000
 IR Inten    --   196.3440               155.1769                58.4053
 Raman Activ --     0.0000                 0.0000                 0.0000
 Depolar     --     0.0000                 0.0000                 0.0000
 Atom AN      X      Y      Z        X      Y      Z        X      Y      Z
   1   7    -0.28   0.01   0.06     0.06   0.09   0.26     0.01  -0.14   0.05
   2   6    -0.01  -0.00   0.00     0.00   0.00   0.01    -0.00  -0.01   0.00
   3   6     0.00  -0.00  -0.00    -0.00   0.00  -0.00    -0.00   0.00   0.00
   4   6     0.00   0.00   0.00     0.00   0.00   0.00     0.00  -0.00  -0.00
   5   6    -0.00   0.00   0.00    -0.00   0.00  -0.00    -0.00   0.00  -0.00
   6   6     0.00  -0.00  -0.00    -0.00   0.00   0.00     0.00  -0.00  -0.00
   7   1     0.05   0.12   0.14    -0.30  -0.47  -0.51     0.23   0.35   0.40
   8   1     0.70  -0.21   0.14    -0.22   0.07  -0.02    -0.55   0.15  -0.10
   9   1     0.28   0.04  -0.50     0.30   0.05  -0.45     0.29   0.03  -0.47
  10   1     0.00   0.00   0.00    -0.00  -0.01  -0.01     0.00   0.01   0.01
  11   1     0.01   0.00  -0.01     0.01   0.00  -0.01     0.01   0.00  -0.01
  12   1    -0.00   0.00  -0.00     0.00  -0.00  -0.00    -0.00   0.01  -0.00
  13   1     0.00   0.00   0.00    -0.00   0.00  -0.00    -0.00  -0.00  -0.00
  14   1    -0.00   0.00  -0.00     0.00   0.00  -0.00     0.00   0.00   0.00
  15   1     0.00  -0.00   0.00    -0.00   0.00  -0.00    -0.00   0.00  -0.00
  16   1     0.00  -0.00  -0.00     0.00  -0.00  -0.00     0.01  -0.01  -0.00
  17   1    -0.00   0.00   0.00    -0.00   0.00   0.00    -0.00   0.00   0.00
  18   1     0.00   0.00  -0.00    -0.00  -0.00  -0.00    -0.00  -0.00   0.00
  19   1    -0.00   0.00  -0.00     0.00   0.00   0.00    -0.00   0.00  -0.00
  20   1    -0.00   0.00   0.00     0.00  -0.00  -0.00    -0.00   0.00   0.00
