36
 energy: -50.915812181635 gnorm: 0.000468947182 xtb: 6.5.1 (fef0646)
N            0.84756253737107        0.71689080834797        0.40374384718297
C            2.31685641167250        0.85538156790491        0.44229532560679
C            2.85992961094930        1.00660748848296       -0.97886167128638
C            4.36122107878741        0.95942127170950       -0.97382109121782
C            5.02701889561587       -0.26114991418157       -0.99921215717300
C            6.40484334574766       -0.32137361767417       -0.96878291028617
C            7.17223179469719        0.84557370457575       -0.90670606490625
C            8.62248763112726        0.85012398916157       -0.87475351523424
C            9.42772448469612       -0.20670155069253       -1.05417563398007
C           10.87919148803938       -0.19257091110404       -1.03171086486566
C           11.62969342477498        0.90670406085825       -0.60552144913180
C           13.01004215849369        0.86618984808363       -0.61068594769038
C           13.67797153420857       -0.26979548172566       -1.04017483945710
C           12.95008366717732       -1.37160388515450       -1.45940273387564
C           11.56957690647921       -1.33404631058261       -1.45117135969602
C            6.49486078301391        2.06804873087758       -0.87109635898021
C            5.11636549193023        2.12365960974451       -0.90529314027175
Cl           0.19135947910511       -1.70879141615952       -1.34353642642893
H            0.45884299612071        0.56862987636195        1.33737416221795
H            0.59262356837976       -0.11616273994866       -0.18756690097212
H            0.41429617139389        1.53774377468810       -0.02625348345395
H            2.74056862088837       -0.04342073123820        0.89006036369298
H            2.59300557281773        1.72080491529551        1.04598769825889
H            2.52495759967409        1.94976004765131       -1.41047725897628
H            2.46644974289549        0.18567612027497       -1.58124234436867
H            4.45211610828439       -1.17518141336486       -1.05326823001689
H            6.88921831265111       -1.28571932597730       -0.98738404544598
H            9.06045276739173        1.82543175173053       -0.70769718211661
H            8.99516932422059       -1.17646737256843       -1.26271619066212
H           11.13043701746802        1.79716779476939       -0.25668983165791
H           13.57195068428945        1.72570384184851       -0.27570218700729
H           14.75720281967563       -0.29718219489467       -1.04438790284619
H           13.46181607093925       -2.26282081184245       -1.79206938165184
H           11.00912936844852       -2.19789477485775       -1.78027045656483
H            7.06602842862778        2.98430156221762       -0.82267708314472
H            4.62202410193359        3.08354168738301       -0.88489275358414
