22
 energy: -51.846653746388 gnorm: 0.000378970319 xtb: 6.5.1 (fef0646)
N            0.99640079201163       -0.08124693270706       -0.26819180116296
C            2.46864863829667       -0.11622827287613       -0.28821358769851
C            2.99470465218837        1.05862248896480        0.54523498643506
C            4.47843710989537        1.00922153005908        0.73625527230514
C            5.33075440266098        1.91122043754123        0.10443785144920
F            4.81278446240211        2.83812427144708       -0.71339712975907
C            6.70802627896765        1.89039906281453        0.29211260279856
F            7.49032957367586        2.78116138012677       -0.33387737606102
C            7.27302582131588        0.94021631667690        1.13311905848715
F            8.59819680383452        0.91016759680363        1.32632103934193
C            6.44972854316669        0.02113739626280        1.77343351000360
F            6.98580064031618       -0.89994599506783        2.58768056629930
C            5.07628681299269        0.06436171593728        1.56832158201055
F            4.30879799060251       -0.83513398837777        2.19611002299430
Cl           0.23771603806403        0.17083638754025        2.67261301108494
H            0.59459114939755       -0.91135463446760       -0.70939058308294
H            0.64013731751271        0.76124642485002       -0.72659462937334
H            0.66725680397585       -0.04816965565593        0.73355041021725
H            2.83194098643504       -0.04789453223592       -1.31420277619838
H            2.80125142039664       -1.05391229286022        0.15596639611721
H            2.50717838550168        1.00401269585059        1.52253075684822
H            2.72968537639141        2.00267859938554        0.07257081693777
