 Entering Gaussian System
 *********************************************
 Gaussian 98:
 frequency output generated by the xtb code
 *********************************************
                         Standard orientation:
 --------------------------------------------------------------------
  Center     Atomic     Atomic              Coordinates (Angstroms)
  Number     Number      Type              X           Y           Z
 --------------------------------------------------------------------
    1          7             0       -2.645743    0.001603   -0.742691
    2          6             0       -2.046208   -0.002048    0.622677
    3          6             0       -0.507328   -0.001136    0.637392
    4          6             0        0.100557    1.264750   -0.012993
    5          6             0        1.635917    1.273222    0.106712
    6          6             0        2.252448    0.001207   -0.503648
    7          6             0        1.637314   -1.272419    0.105187
    8          6             0        0.102043   -1.265571   -0.014668
    9          1             0       -2.366369   -0.828550   -1.284870
   10          1             0       -2.368920    0.836080   -1.279503
   11          1             0       -3.676093   -0.000072   -0.699427
   12          1             0       -2.416481   -0.877695    1.168820
   13          1             0       -2.417632    0.870035    1.173787
   14          1             0       -0.181254   -0.001686    1.690791
   15          1             0       -0.335667    2.168023    0.430957
   16          1             0       -0.178447    1.292009   -1.071222
   17          1             0        1.919341    1.344842    1.163561
   18          1             0        2.054650    2.171289   -0.367331
   19          1             0        3.343359    0.001732   -0.373502
   20          1             0        2.090425    0.001756   -1.588117
   21          1             0        1.920677   -1.344868    1.161996
   22          1             0        2.057208   -2.169442   -0.369773
   23          1             0       -0.333230   -2.170038    0.428105
   24          1             0       -0.176881   -1.291771   -1.072977
 --------------------------------------------------------------------
     1 basis functions        1 primitive gaussians
     1 alpha electrons        1 beta electrons

 Harmonic frequencies (cm**-1), IR intensities (km*mol⁻¹),
 Raman scattering activities (A**4/amu), Raman depolarization ratios,
 reduced masses (AMU), force constants (mDyne/A) and normal coordinates:
                      1                      2                      3
                        a                      a                      a 
 Frequencies --   114.1170               135.6449               145.3624
 Red. masses --     6.5432                 3.4179                 9.0661
 Frc consts  --     0.0000                 0.0000                 0.0000
 IR Inten    --     9.2212                 6.5140                13.7603
 Raman Activ --     0.0000                 0.0000                 0.0000
 Depolar     --     0.0000                 0.0000                 0.0000
 Atom AN      X      Y      Z        X      Y      Z        X      Y      Z
   1   7     0.00  -0.49  -0.00     0.01  -0.28  -0.01    -0.42  -0.01   0.26
   2   6     0.00   0.22   0.00    -0.00   0.12  -0.00     0.03   0.00   0.06
   3   6    -0.00   0.10   0.00    -0.00   0.14   0.01     0.04   0.00  -0.25
   4   6     0.11   0.13   0.16     0.10   0.12   0.06     0.05  -0.04  -0.30
   5   6     0.11  -0.02   0.13     0.11  -0.04   0.06     0.03   0.02   0.07
   6   6    -0.00  -0.01  -0.00    -0.01  -0.06  -0.01     0.24  -0.00   0.33
   7   6    -0.11  -0.02  -0.13    -0.11  -0.04  -0.07     0.02  -0.03   0.07
   8   6    -0.11   0.13  -0.15    -0.11   0.11  -0.05     0.05   0.04  -0.31
   9   1    -0.20  -0.32   0.20     0.43   0.12  -0.09    -0.16   0.00   0.04
  10   1     0.20  -0.32  -0.20    -0.42   0.12   0.09    -0.18   0.00   0.04
  11   1    -0.00   0.13   0.00     0.00  -0.58  -0.01    -0.11  -0.01   0.17
  12   1    -0.03   0.16   0.13     0.03   0.05   0.05     0.05   0.00   0.05
  13   1     0.03   0.16  -0.13    -0.03   0.05  -0.05     0.05   0.00   0.04
  14   1     0.00  -0.01   0.00    -0.00   0.02   0.00     0.04   0.00  -0.08
  15   1     0.06   0.03   0.08     0.05   0.04   0.03    -0.02   0.00  -0.15
  16   1     0.02   0.09   0.05     0.02   0.06   0.02     0.08  -0.06  -0.10
  17   1     0.04  -0.04   0.04     0.03  -0.04   0.02    -0.07   0.04   0.04
  18   1     0.05  -0.00   0.06     0.05  -0.02   0.03     0.04  -0.00   0.03
  19   1    -0.00  -0.03  -0.00    -0.00  -0.05  -0.00     0.06  -0.00   0.21
  20   1    -0.00   0.03  -0.00    -0.00   0.00  -0.00     0.19   0.00   0.08
  21   1    -0.04  -0.04  -0.04    -0.03  -0.03  -0.02    -0.07  -0.04   0.04
  22   1    -0.05  -0.00  -0.06    -0.06  -0.02  -0.03     0.03   0.00   0.03
  23   1    -0.06   0.03  -0.08    -0.05   0.04  -0.03    -0.03   0.00  -0.15
  24   1    -0.02   0.09  -0.05    -0.03   0.05  -0.02     0.08   0.06  -0.11
                      4                      5                      6
                        a                      a                      a 
 Frequencies --   244.7011               248.9239               320.4336
 Red. masses --     9.1551                 6.4007                 7.3810
 Frc consts  --     0.0000                 0.0000                 0.0000
 IR Inten    --    25.7891                 0.0882                 0.0673
 Raman Activ --     0.0000                 0.0000                 0.0000
 Depolar     --     0.0000                 0.0000                 0.0000
 Atom AN      X      Y      Z        X      Y      Z        X      Y      Z
   1   7     0.55   0.00   0.11    -0.01   0.00  -0.00    -0.00   0.08  -0.00
   2   6     0.08   0.00   0.25    -0.00   0.16  -0.00    -0.00   0.45   0.00
   3   6     0.03   0.00   0.05    -0.00   0.04  -0.00     0.00  -0.35  -0.00
   4   6    -0.17  -0.06  -0.21     0.02  -0.13  -0.29    -0.08  -0.27   0.13
   5   6    -0.20   0.08  -0.07    -0.06  -0.04   0.33    -0.11   0.07  -0.06
   6   6    -0.04   0.00   0.21     0.00   0.17  -0.00    -0.00   0.11  -0.00
   7   6    -0.20  -0.08  -0.09     0.06  -0.03  -0.33     0.11   0.07   0.06
   8   6    -0.17   0.05  -0.20    -0.01  -0.13   0.30     0.08  -0.27  -0.13
   9   1     0.22  -0.00   0.07     0.01  -0.01   0.02     0.10   0.02   0.05
  10   1     0.22   0.00   0.07    -0.02  -0.01  -0.03    -0.10   0.02  -0.05
  11   1     0.14   0.00  -0.10    -0.00  -0.02   0.00     0.00  -0.09  -0.00
  12   1     0.01   0.00   0.06    -0.02   0.08   0.04    -0.17   0.29   0.14
  13   1     0.01   0.00   0.06     0.02   0.08  -0.04     0.17   0.29  -0.14
  14   1     0.09   0.00  -0.01    -0.00   0.09   0.00     0.00  -0.15  -0.00
  15   1    -0.08   0.00  -0.13    -0.08  -0.00  -0.23    -0.06  -0.11   0.07
  16   1    -0.02  -0.10  -0.07     0.13  -0.17  -0.12    -0.06  -0.06   0.05
  17   1    -0.09   0.09  -0.02    -0.13  -0.13   0.13     0.01   0.07  -0.03
  18   1    -0.05  -0.00  -0.06     0.04   0.04   0.23    -0.10   0.03  -0.06
  19   1    -0.02   0.00   0.17     0.00   0.03  -0.00    -0.00   0.06  -0.00
  20   1     0.10   0.00   0.04    -0.00   0.15  -0.00    -0.00   0.01  -0.00
  21   1    -0.09  -0.09  -0.02     0.13  -0.13  -0.13    -0.01   0.07   0.03
  22   1    -0.05   0.00  -0.07    -0.03   0.04  -0.23     0.10   0.03   0.06
  23   1    -0.08  -0.00  -0.12     0.08  -0.00   0.24     0.06  -0.11  -0.07
  24   1    -0.03   0.09  -0.07    -0.13  -0.18   0.12     0.06  -0.06  -0.05
                      7                      8                      9
                        a                      a                      a 
 Frequencies --   344.3455               390.5278               432.5458
 Red. masses --     6.6703                 8.4914                 9.2168
 Frc consts  --     0.0000                 0.0000                 0.0000
 IR Inten    --     1.0432                 0.4203                 0.0100
 Raman Activ --     0.0000                 0.0000                 0.0000
 Depolar     --     0.0000                 0.0000                 0.0000
 Atom AN      X      Y      Z        X      Y      Z        X      Y      Z
   1   7     0.12  -0.00   0.10     0.01  -0.00  -0.01     0.00   0.03  -0.00
   2   6     0.14  -0.00   0.05    -0.28  -0.00   0.11    -0.00   0.12   0.00
   3   6     0.08   0.00  -0.22    -0.23  -0.00   0.28    -0.00   0.14   0.00
   4   6     0.03   0.05  -0.18     0.03  -0.31  -0.06    -0.32   0.19  -0.02
   5   6    -0.03  -0.10   0.28     0.07  -0.25   0.02    -0.35  -0.28  -0.01
   6   6    -0.35  -0.00  -0.19     0.27   0.00  -0.23     0.00  -0.17  -0.00
   7   6    -0.03   0.10   0.28     0.07   0.25   0.02     0.35  -0.28   0.01
   8   6     0.03  -0.04  -0.17     0.03   0.31  -0.06     0.32   0.19   0.02
   9   1     0.04   0.00   0.03     0.05  -0.00   0.02     0.02   0.00   0.01
  10   1     0.04  -0.00   0.03     0.05   0.00   0.02    -0.01   0.00  -0.01
  11   1     0.03  -0.00   0.02    -0.00   0.00  -0.09     0.00  -0.01  -0.00
  12   1     0.06  -0.00   0.02    -0.10  -0.00   0.02    -0.03   0.07   0.03
  13   1     0.06  -0.00   0.02    -0.10   0.00   0.02     0.03   0.07  -0.03
  14   1     0.07   0.00  -0.08    -0.09  -0.00   0.08    -0.00   0.07   0.00
  15   1    -0.04   0.01  -0.08     0.02  -0.01  -0.17    -0.02   0.05   0.08
  16   1     0.10   0.00  -0.07     0.06  -0.24  -0.03    -0.16   0.13   0.02
  17   1    -0.08  -0.20   0.11    -0.00  -0.16   0.02    -0.16  -0.15   0.02
  18   1     0.08   0.01   0.23    -0.01  -0.01   0.10    -0.03  -0.07   0.08
  19   1    -0.08  -0.00  -0.27     0.08   0.00  -0.05    -0.00   0.08   0.00
  20   1    -0.32  -0.00  -0.02     0.08   0.00  -0.06     0.00  -0.08  -0.00
  21   1    -0.08   0.20   0.11    -0.00   0.16   0.02     0.16  -0.15  -0.02
  22   1     0.07  -0.01   0.23    -0.01   0.01   0.10     0.03  -0.07  -0.08
  23   1    -0.04  -0.01  -0.08     0.02   0.01  -0.17     0.02   0.05  -0.08
  24   1     0.10  -0.00  -0.07     0.06   0.24  -0.03     0.16   0.13  -0.01
                     10                     11                     12
                        a                      a                      a 
 Frequencies --   500.2721               583.4731               802.9129
 Red. masses --     6.1610                 7.6500                 7.8042
 Frc consts  --     0.0000                 0.0000                 0.0000
 IR Inten    --    10.7483                 8.6485                 3.2386
 Raman Activ --     0.0000                 0.0000                 0.0000
 Depolar     --     0.0000                 0.0000                 0.0000
 Atom AN      X      Y      Z        X      Y      Z        X      Y      Z
   1   7     0.11  -0.00   0.12    -0.01   0.00  -0.08    -0.10   0.02  -0.13
   2   6    -0.17  -0.00   0.15     0.46   0.00  -0.20    -0.14   0.05   0.12
   3   6    -0.18   0.00  -0.34     0.26  -0.00   0.19     0.15   0.03   0.34
   4   6    -0.08   0.17  -0.01    -0.13  -0.08   0.05    -0.02   0.35  -0.03
   5   6    -0.02  -0.19  -0.04    -0.22  -0.19  -0.04     0.04   0.22  -0.04
   6   6     0.29   0.00  -0.10     0.08   0.00  -0.09    -0.01  -0.01  -0.15
   7   6    -0.02   0.19  -0.04    -0.22   0.19  -0.04     0.08  -0.25  -0.06
   8   6    -0.08  -0.17  -0.01    -0.13   0.08   0.05    -0.01  -0.36  -0.08
   9   1     0.11   0.00   0.07    -0.14  -0.00  -0.09     0.02  -0.03   0.04
  10   1     0.11  -0.00   0.07    -0.14   0.00  -0.09    -0.03  -0.03  -0.09
  11   1     0.02   0.00  -0.10     0.01  -0.00   0.22    -0.03  -0.02  -0.08
  12   1    -0.03  -0.00   0.05     0.12   0.00  -0.06    -0.05  -0.03  -0.05
  13   1    -0.03   0.00   0.05     0.12  -0.00  -0.06    -0.12  -0.04   0.06
  14   1     0.00   0.00  -0.11     0.06  -0.00   0.06     0.06  -0.01   0.08
  15   1     0.08  -0.00   0.20    -0.01  -0.03   0.05    -0.07   0.13  -0.15
  16   1    -0.09   0.29   0.02    -0.12  -0.04   0.04     0.00  -0.09  -0.01
  17   1    -0.06  -0.18   0.02    -0.12  -0.18   0.01    -0.06  -0.12   0.02
  18   1     0.03  -0.00   0.12    -0.04   0.00   0.12     0.14   0.09   0.16
  19   1     0.06  -0.00   0.15    -0.00  -0.00   0.18    -0.02   0.01   0.14
  20   1     0.25   0.00  -0.05     0.22   0.00  -0.05     0.18   0.00  -0.07
  21   1    -0.06   0.18   0.02    -0.12   0.18   0.01    -0.08   0.16   0.03
  22   1     0.03  -0.00   0.12    -0.04  -0.00   0.12     0.18  -0.11   0.20
  23   1     0.08   0.00   0.20    -0.01   0.03   0.05    -0.05  -0.12  -0.12
  24   1    -0.09  -0.29   0.02    -0.12   0.04   0.04    -0.02   0.04  -0.02
                     13                     14                     15
                        a                      a                      a 
 Frequencies --   803.3753               820.9139               876.3780
 Red. masses --     3.2496                 4.0119                 8.7902
 Frc consts  --     0.0000                 0.0000                 0.0000
 IR Inten    --    31.9687                 6.3250                 8.9074
 Raman Activ --     0.0000                 0.0000                 0.0000
 Depolar     --     0.0000                 0.0000                 0.0000
 Atom AN      X      Y      Z        X      Y      Z        X      Y      Z
   1   7    -0.02  -0.12  -0.03     0.00  -0.07  -0.00     0.16  -0.00   0.12
   2   6    -0.03  -0.25   0.02     0.00  -0.10  -0.00     0.10   0.00  -0.14
   3   6     0.03  -0.14   0.06    -0.00   0.11   0.00    -0.21   0.00  -0.10
   4   6     0.02   0.11  -0.14    -0.11   0.13   0.18    -0.25   0.01   0.06
   5   6     0.11   0.11  -0.08    -0.07  -0.08   0.19     0.06   0.28   0.12
   6   6    -0.00   0.04  -0.03     0.00  -0.16  -0.00     0.46   0.00  -0.22
   7   6    -0.09   0.02   0.07     0.07  -0.08  -0.19     0.06  -0.28   0.12
   8   6    -0.02  -0.02   0.12     0.11   0.13  -0.18    -0.25  -0.01   0.06
   9   1    -0.13   0.16  -0.36    -0.07   0.08  -0.19    -0.06  -0.00  -0.02
  10   1     0.13   0.15   0.35     0.07   0.08   0.19    -0.06   0.00  -0.02
  11   1    -0.01   0.11  -0.02    -0.00   0.05  -0.00     0.05  -0.00   0.21
  12   1    -0.19   0.19   0.30    -0.07   0.10   0.15     0.03  -0.00  -0.03
  13   1     0.16   0.20  -0.29     0.07   0.10  -0.15     0.03   0.00  -0.03
  14   1     0.01   0.03   0.02    -0.00  -0.04   0.00    -0.09  -0.00  -0.02
  15   1     0.04   0.00   0.06    -0.12   0.12  -0.21    -0.18  -0.02  -0.03
  16   1    -0.06   0.11  -0.02     0.16  -0.20  -0.01    -0.00  -0.03  -0.00
  17   1    -0.07  -0.12   0.02     0.15   0.21  -0.01     0.02   0.05   0.03
  18   1     0.13   0.07   0.14    -0.10  -0.12  -0.21    -0.08   0.15   0.08
  19   1    -0.00  -0.03   0.03    -0.00  -0.02   0.00     0.15   0.00  -0.25
  20   1     0.03  -0.02  -0.01     0.00   0.04  -0.00    -0.07   0.00  -0.03
  21   1     0.05  -0.07  -0.01    -0.15   0.21   0.01     0.02  -0.05   0.03
  22   1    -0.07   0.03  -0.07     0.10  -0.12   0.21    -0.08  -0.15   0.08
  23   1    -0.06  -0.04  -0.11     0.12   0.12   0.21    -0.18   0.02  -0.03
  24   1     0.05   0.14   0.02    -0.16  -0.20   0.01    -0.00   0.03  -0.00
                     16                     17                     18
                        a                      a                      a 
 Frequencies --   890.2695               919.4098               923.8171
 Red. masses --     5.4629                 5.8354                 6.7521
 Frc consts  --     0.0000                 0.0000                 0.0000
 IR Inten    --     0.9394                15.8372                38.1036
 Raman Activ --     0.0000                 0.0000                 0.0000
 Depolar     --     0.0000                 0.0000                 0.0000
 Atom AN      X      Y      Z        X      Y      Z        X      Y      Z
   1   7     0.09  -0.00   0.22    -0.00   0.10  -0.00     0.31  -0.00   0.14
   2   6     0.04   0.00  -0.20     0.00  -0.11   0.00    -0.04   0.00  -0.14
   3   6    -0.19  -0.00  -0.22     0.00  -0.24  -0.00    -0.32  -0.00   0.16
   4   6     0.11   0.03   0.18    -0.21   0.20   0.06    -0.00   0.24  -0.08
   5   6    -0.04   0.04   0.02     0.18   0.17  -0.07     0.08  -0.19  -0.06
   6   6    -0.28  -0.00  -0.20     0.00  -0.22  -0.00    -0.05  -0.00   0.16
   7   6    -0.04  -0.04   0.02    -0.18   0.17   0.07     0.07   0.19  -0.06
   8   6     0.11  -0.03   0.18     0.21   0.20  -0.06    -0.00  -0.24  -0.08
   9   1     0.03   0.00   0.06     0.07  -0.06   0.17    -0.17  -0.01  -0.08
  10   1     0.03  -0.00   0.06    -0.07  -0.06  -0.17    -0.17   0.01  -0.08
  11   1     0.02  -0.00   0.06    -0.00  -0.06  -0.00     0.10  -0.00   0.45
  12   1     0.05   0.00  -0.02    -0.18   0.02  -0.04    -0.08  -0.00  -0.08
  13   1     0.05  -0.00  -0.02     0.18   0.02   0.04    -0.08   0.00  -0.08
  14   1    -0.19  -0.00  -0.02     0.00  -0.19  -0.00    -0.13  -0.00   0.05
  15   1    -0.10   0.03  -0.11    -0.20   0.07  -0.15     0.11   0.15  -0.09
  16   1     0.24  -0.10  -0.01    -0.01  -0.15  -0.00    -0.02   0.00  -0.02
  17   1     0.17  -0.07  -0.04     0.01  -0.15   0.01    -0.00   0.01  -0.01
  18   1    -0.07   0.03  -0.01     0.18   0.07   0.14     0.12  -0.13  -0.08
  19   1    -0.12  -0.00   0.37     0.00  -0.16  -0.00    -0.01   0.00  -0.03
  20   1     0.35   0.00  -0.11     0.00  -0.18  -0.00    -0.09  -0.00   0.05
  21   1     0.17   0.07  -0.04    -0.01  -0.15  -0.01    -0.00  -0.01  -0.01
  22   1    -0.07  -0.03  -0.01    -0.18   0.07  -0.14     0.11   0.13  -0.08
  23   1    -0.10  -0.02  -0.11     0.19   0.07   0.15     0.11  -0.15  -0.09
  24   1     0.24   0.10  -0.01     0.01  -0.15   0.00    -0.02  -0.01  -0.02
                     19                     20                     21
                        a                      a                      a 
 Frequencies --   936.3871               966.0239               987.2905
 Red. masses --     4.8757                 7.7877                 6.4946
 Frc consts  --     0.0000                 0.0000                 0.0000
 IR Inten    --     0.0071                 2.0256                40.2147
 Raman Activ --     0.0000                 0.0000                 0.0000
 Depolar     --     0.0000                 0.0000                 0.0000
 Atom AN      X      Y      Z        X      Y      Z        X      Y      Z
   1   7    -0.00  -0.10  -0.00     0.07  -0.00   0.34     0.21   0.00  -0.25
   2   6     0.00   0.11   0.00    -0.15   0.00  -0.41    -0.13  -0.00   0.37
   3   6     0.00   0.16  -0.00    -0.02  -0.00   0.08    -0.08  -0.00  -0.08
   4   6     0.14  -0.03   0.23     0.13  -0.19  -0.07     0.11  -0.21  -0.05
   5   6    -0.10  -0.02  -0.23     0.04   0.22  -0.13     0.03   0.17   0.00
   6   6     0.00   0.15  -0.00    -0.13  -0.00   0.10    -0.17   0.00  -0.06
   7   6     0.10  -0.02   0.24     0.04  -0.22  -0.13     0.03  -0.17   0.00
   8   6    -0.14  -0.03  -0.23     0.13   0.19  -0.07     0.11   0.21  -0.05
   9   1    -0.06   0.05  -0.14     0.07  -0.00   0.11    -0.23  -0.01  -0.19
  10   1     0.06   0.05   0.14     0.07  -0.00   0.11    -0.23   0.01  -0.19
  11   1    -0.00   0.05  -0.00     0.01  -0.00   0.02     0.07  -0.00   0.36
  12   1     0.15  -0.02   0.02    -0.01   0.01  -0.08    -0.13  -0.01   0.03
  13   1    -0.14  -0.02  -0.02    -0.01  -0.01  -0.08    -0.13   0.01   0.03
  14   1     0.00  -0.18  -0.00    -0.18  -0.00   0.07     0.14  -0.00  -0.07
  15   1     0.05   0.09  -0.14     0.11  -0.08   0.12     0.02  -0.12   0.12
  16   1     0.05  -0.24   0.05    -0.17   0.02   0.04     0.02   0.09  -0.00
  17   1     0.00  -0.27  -0.05    -0.20  -0.08   0.03     0.01  -0.04   0.01
  18   1    -0.05   0.12   0.15     0.12   0.11   0.16    -0.02   0.10   0.08
  19   1    -0.00   0.22  -0.00    -0.04  -0.00   0.02    -0.06   0.00   0.14
  20   1     0.00  -0.23  -0.00    -0.04  -0.00   0.03     0.12   0.00  -0.04
  21   1    -0.00  -0.27   0.05    -0.20   0.08   0.03     0.01   0.04   0.01
  22   1     0.05   0.12  -0.15     0.12  -0.11   0.16    -0.02  -0.10   0.08
  23   1    -0.05   0.09   0.14     0.11   0.08   0.12     0.02   0.12   0.12
  24   1    -0.05  -0.24  -0.05    -0.17  -0.02   0.04     0.02  -0.09  -0.00
                     22                     23                     24
                        a                      a                      a 
 Frequencies --   999.5276              1057.1946              1065.4666
 Red. masses --     5.8766                 8.2962                 7.2744
 Frc consts  --     0.0000                 0.0000                 0.0000
 IR Inten    --     0.0144                16.3803                 5.6463
 Raman Activ --     0.0000                 0.0000                 0.0000
 Depolar     --     0.0000                 0.0000                 0.0000
 Atom AN      X      Y      Z        X      Y      Z        X      Y      Z
   1   7    -0.00   0.16   0.00    -0.09   0.00  -0.16    -0.06   0.00  -0.14
   2   6     0.00  -0.33  -0.00     0.36  -0.00   0.21     0.28   0.00   0.21
   3   6     0.00  -0.13   0.00    -0.34   0.00  -0.08    -0.34  -0.00   0.01
   4   6     0.23   0.14  -0.03    -0.19  -0.09   0.03     0.27   0.07   0.02
   5   6    -0.12  -0.16  -0.06     0.28   0.02  -0.11    -0.24   0.10  -0.05
   6   6     0.00   0.24   0.00    -0.18  -0.00   0.14     0.12   0.00  -0.01
   7   6     0.12  -0.15   0.06     0.29  -0.02  -0.11    -0.24  -0.10  -0.05
   8   6    -0.23   0.14   0.03    -0.19   0.09   0.03     0.27  -0.07   0.02
   9   1     0.09  -0.07   0.21     0.03   0.00  -0.02     0.01   0.00  -0.03
  10   1    -0.09  -0.07  -0.21     0.03  -0.00  -0.02     0.01  -0.00  -0.03
  11   1     0.00  -0.07  -0.00    -0.02   0.00  -0.12    -0.02   0.00  -0.07
  12   1    -0.34   0.07   0.02     0.16  -0.01   0.08     0.12  -0.01   0.07
  13   1     0.34   0.07  -0.02     0.16   0.01   0.08     0.12   0.01   0.07
  14   1    -0.00  -0.06   0.00    -0.22   0.00   0.02    -0.27  -0.01   0.06
  15   1     0.16   0.11  -0.06    -0.08  -0.04   0.00     0.25   0.13  -0.06
  16   1     0.11   0.02  -0.02    -0.11  -0.06   0.02     0.03  -0.01   0.01
  17   1     0.02  -0.02  -0.03     0.02  -0.10  -0.00    -0.16   0.03   0.01
  18   1    -0.05  -0.05  -0.05     0.25  -0.05   0.04    -0.15   0.11   0.06
  19   1    -0.00   0.29  -0.00    -0.05   0.00   0.07     0.04  -0.00  -0.09
  20   1    -0.00   0.03   0.00     0.00  -0.00   0.03    -0.07   0.01   0.01
  21   1    -0.02  -0.02   0.03     0.02   0.10  -0.00    -0.16  -0.02   0.01
  22   1     0.05  -0.05   0.05     0.25   0.05   0.04    -0.16  -0.11   0.06
  23   1    -0.16   0.11   0.06    -0.08   0.04   0.00     0.24  -0.13  -0.06
  24   1    -0.11   0.02   0.02    -0.11   0.06   0.02     0.04   0.00   0.01
                     25                     26                     27
                        a                      a                      a 
 Frequencies --  1069.3016              1107.4221              1114.9295
 Red. masses --     1.4516                 9.0488                 4.7003
 Frc consts  --     0.0000                 0.0000                 0.0000
 IR Inten    --     0.2405                 0.0313                 0.0237
 Raman Activ --     0.0000                 0.0000                 0.0000
 Depolar     --     0.0000                 0.0000                 0.0000
 Atom AN      X      Y      Z        X      Y      Z        X      Y      Z
   1   7    -0.00   0.04  -0.00     0.00  -0.05  -0.00     0.00   0.11   0.00
   2   6     0.00  -0.07   0.00    -0.00   0.07   0.00    -0.00  -0.24  -0.00
   3   6    -0.00   0.08   0.00     0.00  -0.22  -0.00     0.00   0.37   0.00
   4   6    -0.02  -0.05   0.01     0.29   0.12  -0.04    -0.00  -0.17   0.09
   5   6    -0.04   0.06   0.03    -0.32   0.21   0.07    -0.05   0.11   0.02
   6   6     0.00  -0.09  -0.00     0.00  -0.42  -0.00     0.00  -0.17  -0.00
   7   6     0.03   0.05  -0.04     0.32   0.21  -0.07     0.05   0.11  -0.02
   8   6     0.03  -0.06  -0.00    -0.29   0.12   0.04     0.00  -0.16  -0.09
   9   1     0.02  -0.01   0.04    -0.02   0.01  -0.04     0.04  -0.03   0.11
  10   1    -0.02  -0.01  -0.04     0.02   0.01   0.04    -0.04  -0.03  -0.11
  11   1    -0.00  -0.02  -0.00    -0.00   0.01   0.00     0.00  -0.03   0.00
  12   1    -0.04   0.02   0.03     0.04  -0.02  -0.04    -0.13   0.05   0.10
  13   1     0.04   0.02  -0.03    -0.04  -0.02   0.04     0.13   0.06  -0.10
  14   1    -0.00   0.39   0.00    -0.00  -0.19  -0.00     0.00   0.13  -0.00
  15   1    -0.19  -0.14   0.07    -0.01  -0.02   0.02     0.21   0.08  -0.02
  16   1     0.27   0.18  -0.06     0.13   0.07  -0.02    -0.13  -0.09   0.06
  17   1     0.27  -0.15  -0.06    -0.21   0.11   0.05    -0.09   0.03   0.03
  18   1    -0.19   0.12   0.05    -0.02   0.03   0.02    -0.24   0.18   0.09
  19   1     0.00   0.11  -0.00     0.00  -0.10  -0.00     0.00  -0.44  -0.00
  20   1    -0.00  -0.37  -0.00    -0.00  -0.21  -0.00     0.00   0.00  -0.00
  21   1    -0.27  -0.16   0.06     0.21   0.11  -0.05     0.09   0.03  -0.03
  22   1     0.19   0.12  -0.05     0.02   0.03  -0.02     0.24   0.18  -0.09
  23   1     0.20  -0.14  -0.07     0.01  -0.02  -0.02    -0.21   0.08   0.02
  24   1    -0.27   0.18   0.06    -0.13   0.07   0.02     0.13  -0.09  -0.06
                     28                     29                     30
                        a                      a                      a 
 Frequencies --  1155.2204              1193.6754              1225.8426
 Red. masses --     8.0858                 4.0919                 3.5701
 Frc consts  --     0.0000                 0.0000                 0.0000
 IR Inten    --     5.3159                 3.5620                 0.4510
 Raman Activ --     0.0000                 0.0000                 0.0000
 Depolar     --     0.0000                 0.0000                 0.0000
 Atom AN      X      Y      Z        X      Y      Z        X      Y      Z
   1   7     0.08   0.00  -0.02    -0.00   0.16   0.00    -0.05  -0.00   0.03
   2   6    -0.18  -0.00   0.08    -0.00  -0.23  -0.00     0.07   0.00  -0.08
   3   6     0.19   0.00  -0.35    -0.00   0.29   0.00    -0.10   0.00   0.11
   4   6     0.06   0.03   0.29     0.09  -0.13   0.14    -0.12  -0.01  -0.03
   5   6    -0.09  -0.04  -0.28    -0.04   0.08  -0.02     0.08   0.01  -0.14
   6   6     0.12   0.00   0.27     0.00  -0.10  -0.00    -0.05  -0.00   0.33
   7   6    -0.09   0.04  -0.28     0.04   0.08   0.02     0.08  -0.01  -0.14
   8   6     0.07  -0.03   0.29    -0.09  -0.13  -0.14    -0.12   0.01  -0.03
   9   1    -0.05  -0.01  -0.03     0.04  -0.03   0.13     0.03   0.01   0.02
  10   1    -0.05   0.01  -0.03    -0.04  -0.03  -0.13     0.03  -0.01   0.02
  11   1     0.02  -0.00   0.08     0.00  -0.04   0.00    -0.01   0.00  -0.02
  12   1    -0.03  -0.00   0.03     0.07   0.05   0.22    -0.01  -0.00  -0.04
  13   1    -0.03   0.00   0.03    -0.07   0.06  -0.22    -0.01   0.00  -0.04
  14   1    -0.01   0.00  -0.07    -0.00   0.19   0.00     0.29   0.00  -0.07
  15   1    -0.16  -0.00  -0.08    -0.18  -0.14   0.06     0.13   0.09  -0.04
  16   1     0.08  -0.19   0.05    -0.03  -0.08   0.05     0.10   0.08  -0.04
  17   1    -0.13  -0.15  -0.03    -0.18   0.06   0.04     0.28  -0.26  -0.09
  18   1     0.09   0.01   0.07     0.31  -0.15  -0.03    -0.25   0.22   0.12
  19   1     0.05   0.00  -0.15    -0.00   0.30   0.00    -0.00   0.00  -0.03
  20   1    -0.19   0.00   0.10     0.00  -0.04  -0.00    -0.13  -0.00   0.10
  21   1    -0.13   0.15  -0.03     0.18   0.06  -0.04     0.28   0.26  -0.09
  22   1     0.09  -0.01   0.07    -0.31  -0.15   0.03    -0.25  -0.22   0.12
  23   1    -0.16   0.00  -0.08     0.18  -0.14  -0.06     0.13  -0.08  -0.04
  24   1     0.08   0.19   0.05     0.03  -0.08  -0.05     0.10  -0.09  -0.04
                     31                     32                     33
                        a                      a                      a 
 Frequencies --  1241.7456              1243.7822              1244.9169
 Red. masses --     2.9838                 3.6775                 3.2264
 Frc consts  --     0.0000                 0.0000                 0.0000
 IR Inten    --    20.9629                 2.7498                 2.2039
 Raman Activ --     0.0000                 0.0000                 0.0000
 Depolar     --     0.0000                 0.0000                 0.0000
 Atom AN      X      Y      Z        X      Y      Z        X      Y      Z
   1   7     0.00  -0.18  -0.00     0.05   0.00  -0.01    -0.00  -0.14  -0.00
   2   6    -0.00   0.12   0.00    -0.13  -0.00   0.00     0.00   0.09   0.00
   3   6     0.00   0.13  -0.00     0.13  -0.00  -0.31    -0.00   0.04   0.00
   4   6    -0.04  -0.11   0.01    -0.11  -0.02   0.09     0.06  -0.01   0.18
   5   6     0.05   0.11   0.15     0.12   0.01   0.10    -0.07  -0.04  -0.20
   6   6    -0.00  -0.12  -0.00    -0.10   0.00  -0.08    -0.00   0.05  -0.00
   7   6    -0.04   0.11  -0.14     0.12  -0.01   0.10     0.07  -0.05   0.20
   8   6     0.04  -0.11  -0.00    -0.11   0.02   0.09    -0.06  -0.00  -0.18
   9   1    -0.04   0.03  -0.13    -0.03  -0.02  -0.00    -0.03   0.02  -0.10
  10   1     0.04   0.03   0.13    -0.03   0.02  -0.00     0.03   0.02   0.10
  11   1    -0.00   0.05   0.00     0.01  -0.00   0.02    -0.00   0.02  -0.00
  12   1    -0.31  -0.03  -0.30     0.05  -0.01   0.03    -0.24  -0.02  -0.24
  13   1     0.31  -0.03   0.30     0.05   0.01   0.03     0.24  -0.02   0.24
  14   1     0.00   0.15  -0.00     0.12  -0.00  -0.11     0.00   0.35  -0.00
  15   1     0.15   0.05  -0.00     0.31   0.23  -0.12    -0.16  -0.06  -0.00
  16   1    -0.16  -0.06   0.04    -0.32  -0.25   0.09     0.19  -0.01  -0.00
  17   1     0.01   0.07   0.04     0.01   0.07   0.03    -0.16  -0.04  -0.01
  18   1     0.09  -0.04  -0.02    -0.09   0.06   0.02     0.08  -0.02   0.02
  19   1    -0.00   0.37   0.00    -0.03  -0.00   0.07     0.00  -0.27  -0.00
  20   1     0.00  -0.33  -0.00     0.07   0.00  -0.03    -0.00   0.39   0.00
  21   1    -0.01   0.07  -0.04     0.01  -0.07   0.03     0.16  -0.04   0.01
  22   1    -0.09  -0.04   0.01    -0.09  -0.06   0.02    -0.08  -0.02  -0.02
  23   1    -0.14   0.05   0.00     0.31  -0.23  -0.12     0.16  -0.06   0.00
  24   1     0.16  -0.06  -0.04    -0.32   0.25   0.09    -0.19  -0.01   0.00
                     34                     35                     36
                        a                      a                      a 
 Frequencies --  1280.4319              1310.1339              1321.8826
 Red. masses --     3.5397                 3.7033                 3.6490
 Frc consts  --     0.0000                 0.0000                 0.0000
 IR Inten    --     2.3375                 0.2621                12.3861
 Raman Activ --     0.0000                 0.0000                 0.0000
 Depolar     --     0.0000                 0.0000                 0.0000
 Atom AN      X      Y      Z        X      Y      Z        X      Y      Z
   1   7     0.07  -0.00  -0.03     0.00  -0.04  -0.00     0.07   0.00  -0.18
   2   6    -0.12   0.00   0.11    -0.00  -0.04  -0.00    -0.38   0.00  -0.15
   3   6     0.33   0.00  -0.05    -0.00   0.37   0.00     0.02  -0.00   0.13
   4   6     0.01   0.08  -0.15     0.16   0.06  -0.12    -0.03  -0.02  -0.02
   5   6     0.05  -0.06   0.03     0.04  -0.08   0.01    -0.06   0.04   0.01
   6   6    -0.02   0.00   0.10     0.00  -0.03  -0.00     0.03   0.00   0.00
   7   6     0.05   0.06   0.03    -0.04  -0.08  -0.01    -0.06  -0.04   0.01
   8   6     0.01  -0.08  -0.15    -0.16   0.06   0.12    -0.03   0.02  -0.02
   9   1    -0.06  -0.01  -0.03     0.00   0.01  -0.03    -0.01  -0.07   0.06
  10   1    -0.06   0.01  -0.03    -0.00   0.01   0.03    -0.01   0.07   0.06
  11   1     0.01   0.00   0.01     0.00   0.03   0.00     0.03  -0.00   0.18
  12   1     0.02   0.00   0.06    -0.16   0.01  -0.08     0.49  -0.02   0.31
  13   1     0.02  -0.00   0.07     0.16   0.01   0.08     0.49   0.02   0.31
  14   1    -0.65  -0.00   0.22     0.00  -0.45  -0.00     0.06   0.00   0.01
  15   1    -0.10  -0.07   0.05    -0.33  -0.22   0.10     0.04   0.01   0.01
  16   1    -0.15  -0.01   0.00    -0.19  -0.04   0.02     0.08   0.06  -0.02
  17   1     0.18  -0.09  -0.04     0.05  -0.02  -0.01     0.05  -0.03  -0.01
  18   1    -0.22   0.09   0.01    -0.17   0.06   0.00     0.07  -0.04  -0.01
  19   1    -0.00  -0.00   0.01    -0.00   0.04   0.00     0.01  -0.00  -0.02
  20   1    -0.04   0.00   0.03    -0.00   0.10   0.00    -0.00  -0.00   0.00
  21   1     0.18   0.09  -0.04    -0.05  -0.02   0.01     0.05   0.03  -0.01
  22   1    -0.22  -0.09   0.01     0.17   0.06  -0.00     0.07   0.04  -0.01
  23   1    -0.10   0.07   0.05     0.33  -0.22  -0.10     0.03  -0.01   0.01
  24   1    -0.15   0.01   0.00     0.19  -0.04  -0.02     0.08  -0.06  -0.02
                     37                     38                     39
                        a                      a                      a 
 Frequencies --  1330.8705              1338.2854              1351.3767
 Red. masses --     4.1596                 3.9380                 4.5838
 Frc consts  --     0.0000                 0.0000                 0.0000
 IR Inten    --     0.2955                 1.5251                 2.9616
 Raman Activ --     0.0000                 0.0000                 0.0000
 Depolar     --     0.0000                 0.0000                 0.0000
 Atom AN      X      Y      Z        X      Y      Z        X      Y      Z
   1   7     0.00   0.01  -0.00     0.00  -0.01  -0.00     0.00  -0.00   0.02
   2   6    -0.00   0.03  -0.00    -0.00  -0.01  -0.00     0.01  -0.00   0.08
   3   6     0.00  -0.33  -0.00    -0.00  -0.07   0.00     0.28   0.00  -0.07
   4   6     0.15   0.17   0.01     0.15   0.04  -0.05    -0.25  -0.16   0.04
   5   6     0.09  -0.05   0.00    -0.27   0.09   0.09    -0.10   0.13   0.01
   6   6     0.00  -0.23  -0.00    -0.00   0.16   0.00     0.05  -0.00  -0.02
   7   6    -0.09  -0.05  -0.00     0.27   0.10  -0.09    -0.10  -0.13   0.01
   8   6    -0.15   0.17  -0.01    -0.15   0.04   0.05    -0.25   0.16   0.04
   9   1     0.00   0.00   0.00     0.01   0.00  -0.00    -0.02   0.01  -0.03
  10   1    -0.00   0.00  -0.00    -0.01   0.00   0.00    -0.02  -0.01  -0.03
  11   1     0.00   0.01   0.00    -0.00   0.03   0.00    -0.00  -0.00  -0.02
  12   1     0.08  -0.01   0.04    -0.00  -0.00  -0.00    -0.10  -0.01  -0.06
  13   1    -0.08  -0.01  -0.04     0.00  -0.00   0.00    -0.10   0.01  -0.06
  14   1    -0.00   0.48   0.00     0.00   0.17  -0.00    -0.30  -0.00   0.10
  15   1    -0.09   0.00  -0.03    -0.01  -0.03   0.02     0.31   0.15  -0.03
  16   1    -0.26  -0.18   0.07    -0.25  -0.13   0.05     0.26   0.12  -0.06
  17   1    -0.01   0.04   0.01     0.32  -0.19  -0.07     0.07  -0.06  -0.02
  18   1    -0.21   0.13   0.06     0.18  -0.15  -0.09     0.21  -0.10  -0.04
  19   1    -0.00   0.26   0.00     0.00  -0.35  -0.00     0.02  -0.00  -0.05
  20   1    -0.00   0.20   0.00    -0.00  -0.03  -0.00     0.02   0.00  -0.01
  21   1     0.01   0.04  -0.01    -0.32  -0.19   0.07     0.07   0.06  -0.02
  22   1     0.21   0.13  -0.06    -0.18  -0.15   0.09     0.21   0.10  -0.04
  23   1     0.09   0.00   0.03     0.01  -0.03  -0.02     0.31  -0.15  -0.03
  24   1     0.26  -0.18  -0.07     0.24  -0.13  -0.05     0.26  -0.12  -0.06
                     40                     41                     42
                        a                      a                      a 
 Frequencies --  1354.2894              1354.3669              1383.6934
 Red. masses --     4.4925                 4.4823                 2.9847
 Frc consts  --     0.0000                 0.0000                 0.0000
 IR Inten    --     0.4155                 1.7376               224.2172
 Raman Activ --     0.0000                 0.0000                 0.0000
 Depolar     --     0.0000                 0.0000                 0.0000
 Atom AN      X      Y      Z        X      Y      Z        X      Y      Z
   1   7    -0.01   0.00  -0.02     0.02   0.00   0.05     0.19  -0.00   0.33
   2   6    -0.01  -0.01   0.00     0.03  -0.00  -0.00    -0.08   0.00  -0.03
   3   6     0.04   0.07   0.01    -0.11   0.03  -0.03    -0.02  -0.00   0.05
   4   6    -0.11  -0.09  -0.01     0.11  -0.03  -0.07    -0.01  -0.01   0.01
   5   6     0.01   0.12  -0.07    -0.30   0.20   0.08     0.03  -0.01  -0.01
   6   6    -0.05  -0.41  -0.01     0.14  -0.16   0.03    -0.01  -0.00  -0.01
   7   6     0.19   0.22  -0.00    -0.23  -0.07   0.11     0.03   0.01  -0.01
   8   6     0.01  -0.09   0.05     0.16  -0.04  -0.05    -0.01   0.01   0.01
   9   1     0.02  -0.00   0.01    -0.03   0.00  -0.02    -0.32   0.12  -0.34
  10   1     0.01  -0.00   0.00    -0.04  -0.00  -0.02    -0.32  -0.12  -0.34
  11   1     0.00   0.00   0.03    -0.00   0.00  -0.08    -0.01   0.00  -0.56
  12   1     0.00   0.00   0.01    -0.03   0.00  -0.02     0.14  -0.04   0.03
  13   1     0.02   0.00   0.01    -0.02  -0.00  -0.02     0.14   0.04   0.03
  14   1    -0.03  -0.14   0.02     0.09  -0.05  -0.05     0.05   0.00  -0.00
  15   1     0.12   0.06  -0.02     0.04  -0.01   0.01    -0.01   0.01  -0.02
  16   1     0.14   0.11  -0.04    -0.21  -0.07   0.04     0.04   0.04  -0.00
  17   1     0.07  -0.09  -0.03     0.42  -0.24  -0.09    -0.04   0.02   0.01
  18   1    -0.02   0.07   0.04     0.22  -0.13  -0.05    -0.01   0.01   0.01
  19   1    -0.02   0.28   0.02     0.04   0.11  -0.06    -0.00   0.00   0.01
  20   1     0.01   0.55  -0.01    -0.03   0.21   0.02     0.00   0.00  -0.00
  21   1    -0.33  -0.23   0.08     0.27   0.12  -0.05    -0.04  -0.02   0.01
  22   1    -0.13  -0.03   0.00     0.18   0.15  -0.07    -0.01  -0.01   0.01
  23   1    -0.11   0.03   0.01    -0.05   0.05   0.02    -0.01  -0.01  -0.02
  24   1     0.04   0.03   0.00    -0.25   0.13   0.06     0.04  -0.04  -0.00
                     43                     44                     45
                        a                      a                      a 
 Frequencies --  1434.1431              1434.6198              1473.9286
 Red. masses --     1.6571                 1.6279                 1.8225
 Frc consts  --     0.0000                 0.0000                 0.0000
 IR Inten    --    75.7370                81.8206                19.5143
 Raman Activ --     0.0000                 0.0000                 0.0000
 Depolar     --     0.0000                 0.0000                 0.0000
 Atom AN      X      Y      Z        X      Y      Z        X      Y      Z
   1   7    -0.00   0.22   0.00     0.17   0.00  -0.11     0.01  -0.00   0.00
   2   6    -0.00   0.02   0.00     0.08   0.00  -0.02     0.14   0.00  -0.23
   3   6     0.00   0.01  -0.00    -0.03   0.00   0.01    -0.00   0.00  -0.01
   4   6     0.01   0.00  -0.01    -0.02   0.01  -0.01    -0.01  -0.01   0.01
   5   6    -0.01   0.00   0.01     0.01  -0.00  -0.01    -0.00   0.00  -0.00
   6   6     0.00  -0.00   0.00    -0.00   0.00  -0.00    -0.00  -0.00   0.00
   7   6     0.01   0.00  -0.01     0.01   0.00  -0.01    -0.00  -0.00  -0.00
   8   6    -0.01   0.00   0.01    -0.02  -0.01  -0.01    -0.01   0.01   0.01
   9   1    -0.42  -0.07  -0.06    -0.37  -0.38   0.38    -0.02   0.03  -0.06
  10   1     0.44  -0.09   0.05    -0.36   0.38   0.39    -0.02  -0.03  -0.07
  11   1     0.00  -0.75   0.00     0.00  -0.01  -0.27     0.00   0.00  -0.03
  12   1    -0.01  -0.00  -0.03    -0.06   0.02  -0.02    -0.25   0.41   0.48
  13   1     0.02  -0.00   0.03    -0.06  -0.02  -0.01    -0.25  -0.41   0.47
  14   1    -0.00  -0.00   0.00     0.02  -0.00  -0.00     0.00  -0.00  -0.01
  15   1    -0.00  -0.01   0.01     0.02  -0.01   0.05     0.02   0.01  -0.01
  16   1    -0.02  -0.01   0.00     0.05  -0.03  -0.01     0.00   0.00   0.00
  17   1     0.01  -0.01  -0.00    -0.02   0.01   0.00     0.00   0.01  -0.00
  18   1     0.00  -0.00  -0.00    -0.00   0.01   0.01     0.01   0.00   0.01
  19   1     0.00  -0.00  -0.00    -0.00  -0.00   0.00     0.00  -0.00  -0.01
  20   1    -0.00   0.00   0.00     0.00   0.00  -0.00     0.01   0.00  -0.00
  21   1    -0.01  -0.01   0.00    -0.02  -0.01   0.00     0.00  -0.01  -0.00
  22   1    -0.00  -0.00   0.00    -0.00  -0.01   0.01     0.01  -0.00   0.01
  23   1     0.00  -0.01  -0.01     0.02   0.01   0.05     0.02  -0.01  -0.01
  24   1     0.02  -0.01  -0.00     0.05   0.03  -0.01     0.00  -0.00   0.00
                     46                     47                     48
                        a                      a                      a 
 Frequencies --  1498.3252              1506.2687              1506.2883
 Red. masses --     1.8983                 1.9674                 1.9676
 Frc consts  --     0.0000                 0.0000                 0.0000
 IR Inten    --     1.5747                 3.2729                 3.3058
 Raman Activ --     0.0000                 0.0000                 0.0000
 Depolar     --     0.0000                 0.0000                 0.0000
 Atom AN      X      Y      Z        X      Y      Z        X      Y      Z
   1   7    -0.00   0.00  -0.00     0.01   0.00  -0.01    -0.01   0.00   0.01
   2   6     0.00   0.00  -0.00     0.00  -0.00   0.00    -0.00  -0.00  -0.00
   3   6     0.00  -0.03  -0.00     0.03   0.01   0.00    -0.03   0.01  -0.00
   4   6     0.10  -0.12   0.09     0.07  -0.13   0.07    -0.00   0.03  -0.03
   5   6     0.05   0.05   0.04    -0.09  -0.10  -0.07    -0.07  -0.08  -0.04
   6   6     0.00   0.02  -0.00     0.10   0.00  -0.10    -0.10   0.00   0.11
   7   6    -0.05   0.05  -0.04     0.07  -0.08   0.04     0.09  -0.10   0.07
   8   6    -0.10  -0.12  -0.09     0.00   0.03   0.03    -0.07  -0.13  -0.07
   9   1    -0.00   0.00  -0.01    -0.02  -0.02   0.02     0.01   0.02  -0.03
  10   1     0.01   0.00   0.01    -0.01   0.02   0.03     0.02  -0.02  -0.02
  11   1     0.00  -0.01   0.00     0.00  -0.00  -0.00    -0.00  -0.00   0.00
  12   1     0.01  -0.00   0.00    -0.01   0.00  -0.00     0.01  -0.00   0.00
  13   1    -0.01  -0.00  -0.00    -0.01  -0.00  -0.00     0.01   0.00   0.00
  14   1    -0.00  -0.00   0.00    -0.02  -0.02   0.01     0.02  -0.02  -0.01
  15   1    -0.16   0.12  -0.40    -0.13   0.10  -0.34     0.02  -0.04   0.08
  16   1    -0.19   0.38   0.06    -0.15   0.33   0.05     0.03  -0.09  -0.01
  17   1    -0.10  -0.17   0.04     0.18   0.29  -0.07     0.13   0.22  -0.05
  18   1    -0.08  -0.06  -0.18     0.15   0.09   0.31     0.10   0.07   0.23
  19   1    -0.00  -0.00   0.00    -0.04  -0.02   0.34     0.04  -0.01  -0.34
  20   1    -0.00  -0.01   0.00    -0.33  -0.00   0.05     0.34  -0.00  -0.05
  21   1     0.10  -0.17  -0.04    -0.13   0.22   0.05    -0.18   0.29   0.07
  22   1     0.08  -0.06   0.18    -0.10   0.07  -0.23    -0.15   0.09  -0.30
  23   1     0.16   0.12   0.39    -0.02  -0.03  -0.08     0.13   0.10   0.34
  24   1     0.19   0.38  -0.06    -0.03  -0.08   0.01     0.15   0.33  -0.05
                     49                     50                     51
                        a                      a                      a 
 Frequencies --  1509.3789              1518.2483              2882.8162
 Red. masses --     1.8882                 1.9910                 1.7551
 Frc consts  --     0.0000                 0.0000                 0.0000
 IR Inten    --     4.0201                 0.3262                 1.2758
 Raman Activ --     0.0000                 0.0000                 0.0000
 Depolar     --     0.0000                 0.0000                 0.0000
 Atom AN      X      Y      Z        X      Y      Z        X      Y      Z
   1   7     0.01   0.00  -0.01     0.01   0.00  -0.01     0.00  -0.00   0.00
   2   6     0.00   0.00  -0.00    -0.00  -0.00   0.01    -0.01   0.00  -0.00
   3   6     0.01   0.00   0.01     0.03   0.00  -0.00    -0.08   0.00  -0.25
   4   6     0.05  -0.06   0.05     0.06  -0.09   0.05    -0.00   0.01   0.02
   5   6     0.09   0.12   0.08    -0.06  -0.08  -0.04    -0.00  -0.00   0.01
   6   6    -0.05  -0.00   0.06    -0.14  -0.00   0.13    -0.00   0.00  -0.00
   7   6     0.09  -0.12   0.08    -0.06   0.08  -0.04    -0.00   0.00   0.01
   8   6     0.05   0.06   0.05     0.06   0.09   0.05    -0.00  -0.01   0.02
   9   1    -0.02  -0.02   0.02    -0.02  -0.03   0.03     0.00  -0.00  -0.00
  10   1    -0.02   0.02   0.02    -0.02   0.03   0.03     0.00   0.00  -0.00
  11   1     0.00  -0.00  -0.01     0.00  -0.00  -0.00    -0.00  -0.00   0.00
  12   1    -0.01   0.01   0.00    -0.01  -0.00  -0.01     0.01   0.02  -0.01
  13   1    -0.01  -0.01   0.00    -0.01   0.00  -0.01     0.01  -0.02  -0.01
  14   1     0.02   0.00  -0.00    -0.03  -0.00   0.01     0.28  -0.00   0.91
  15   1    -0.07   0.07  -0.19    -0.10   0.07  -0.24     0.02  -0.04  -0.02
  16   1    -0.09   0.19   0.03    -0.12   0.24   0.04    -0.02   0.00  -0.08
  17   1    -0.19  -0.35   0.08     0.12   0.21  -0.04    -0.00  -0.00  -0.02
  18   1    -0.15  -0.12  -0.36     0.09   0.07   0.22     0.01   0.02  -0.01
  19   1     0.03   0.00  -0.19     0.05   0.00  -0.43     0.01   0.00   0.00
  20   1     0.19   0.00  -0.02     0.43   0.00  -0.06     0.00  -0.00   0.01
  21   1    -0.19   0.35   0.08     0.12  -0.21  -0.05    -0.00   0.00  -0.02
  22   1    -0.15   0.12  -0.36     0.09  -0.07   0.22     0.01  -0.02  -0.01
  23   1    -0.07  -0.07  -0.19    -0.10  -0.07  -0.24     0.02   0.04  -0.02
  24   1    -0.09  -0.19   0.03    -0.12  -0.24   0.04    -0.02  -0.00  -0.08
                     52                     53                     54
                        a                      a                      a 
 Frequencies --  2916.0877              2916.8361              2918.6891
 Red. masses --     1.9270                 1.9390                 1.9377
 Frc consts  --     0.0000                 0.0000                 0.0000
 IR Inten    --    12.0733                29.9664                 1.4883
 Raman Activ --     0.0000                 0.0000                 0.0000
 Depolar     --     0.0000                 0.0000                 0.0000
 Atom AN      X      Y      Z        X      Y      Z        X      Y      Z
   1   7    -0.00   0.00   0.00    -0.00   0.00   0.00     0.00  -0.00  -0.00
   2   6     0.00  -0.00  -0.00     0.00   0.00  -0.00    -0.00  -0.00   0.00
   3   6     0.00   0.00   0.01     0.00  -0.00   0.00    -0.00   0.00  -0.02
   4   6    -0.00  -0.00  -0.01     0.00  -0.04  -0.08    -0.01  -0.00  -0.01
   5   6    -0.02  -0.07   0.11    -0.03  -0.10   0.14    -0.03  -0.11   0.12
   6   6    -0.18  -0.00  -0.15     0.00  -0.00   0.00     0.12  -0.00   0.07
   7   6    -0.02   0.06   0.10     0.03  -0.11  -0.15    -0.01   0.04   0.05
   8   6    -0.00   0.00  -0.00    -0.00  -0.05   0.09     0.02   0.10  -0.15
   9   1     0.00  -0.00  -0.00     0.00  -0.00  -0.00     0.00   0.01   0.00
  10   1     0.00   0.00   0.00    -0.00  -0.00   0.00     0.00  -0.00   0.00
  11   1     0.00   0.00   0.00     0.00  -0.00  -0.00    -0.00   0.00  -0.00
  12   1    -0.00  -0.00   0.00     0.00  -0.00   0.00     0.00   0.01  -0.01
  13   1    -0.00   0.00   0.00    -0.00  -0.00  -0.00    -0.00   0.00   0.00
  14   1    -0.01   0.00  -0.03    -0.00   0.00  -0.00     0.02  -0.00   0.04
  15   1    -0.00   0.01   0.00    -0.07   0.15   0.07     0.00  -0.00  -0.00
  16   1     0.01  -0.00   0.03     0.06  -0.01   0.24     0.01  -0.00   0.06
  17   1    -0.07  -0.03  -0.26    -0.09  -0.03  -0.31    -0.06  -0.03  -0.21
  18   1     0.13   0.27  -0.14     0.18   0.39  -0.20     0.20   0.42  -0.22
  19   1     0.56   0.00   0.06    -0.01  -0.00  -0.00    -0.41   0.00  -0.05
  20   1     0.06  -0.00   0.50    -0.00   0.00  -0.01    -0.02  -0.00  -0.19
  21   1    -0.07   0.02  -0.25     0.10  -0.03   0.33    -0.03   0.01  -0.11
  22   1     0.12  -0.25  -0.13    -0.19   0.41   0.22     0.07  -0.16  -0.08
  23   1    -0.00  -0.01   0.00     0.09   0.18  -0.08    -0.17  -0.37   0.17
  24   1     0.01   0.00   0.03    -0.07  -0.01  -0.26     0.10   0.02   0.36
                     55                     56                     57
                        a                      a                      a 
 Frequencies --  2919.1537              2924.4351              2949.4572
 Red. masses --     1.9483                 1.8839                 1.5075
 Frc consts  --     0.0000                 0.0000                 0.0000
 IR Inten    --     4.2706                57.4196                32.6708
 Raman Activ --     0.0000                 0.0000                 0.0000
 Depolar     --     0.0000                 0.0000                 0.0000
 Atom AN      X      Y      Z        X      Y      Z        X      Y      Z
   1   7    -0.00  -0.00   0.00    -0.00  -0.00   0.00     0.00  -0.00  -0.00
   2   6     0.00  -0.01  -0.00     0.00  -0.00  -0.00     0.00   0.00  -0.00
   3   6     0.00   0.01   0.01     0.01   0.00   0.04    -0.00  -0.00  -0.00
   4   6    -0.03   0.11   0.17    -0.03   0.11   0.14    -0.00   0.00  -0.01
   5   6    -0.01  -0.01   0.01    -0.03  -0.06   0.04    -0.04  -0.05  -0.02
   6   6    -0.07  -0.00  -0.04     0.07  -0.00   0.02    -0.11  -0.00   0.15
   7   6     0.04  -0.10  -0.11    -0.03   0.06   0.04    -0.04   0.05  -0.02
   8   6     0.02   0.07  -0.10    -0.03  -0.10   0.12    -0.01  -0.01  -0.01
   9   1    -0.00   0.00   0.00    -0.00  -0.00  -0.00     0.00   0.00   0.00
  10   1    -0.00   0.01  -0.00    -0.00   0.01  -0.00     0.00   0.00   0.00
  11   1     0.00   0.00   0.00     0.00   0.00  -0.00    -0.00  -0.00   0.00
  12   1     0.01   0.01  -0.01    -0.00  -0.01   0.01    -0.00  -0.01   0.00
  13   1    -0.00   0.02   0.01    -0.00   0.02   0.01    -0.00   0.00   0.00
  14   1    -0.01  -0.00  -0.02    -0.03  -0.00  -0.10     0.00  -0.00   0.00
  15   1     0.20  -0.42  -0.20     0.20  -0.44  -0.22     0.01  -0.02  -0.01
  16   1    -0.11   0.02  -0.40    -0.08   0.02  -0.30     0.00   0.00   0.03
  17   1     0.00  -0.00   0.02    -0.01  -0.01  -0.00     0.05   0.00   0.20
  18   1     0.02   0.05  -0.03     0.11   0.24  -0.14     0.08   0.19  -0.11
  19   1     0.24   0.00   0.03    -0.28  -0.00  -0.04     0.53   0.00   0.10
  20   1     0.01  -0.00   0.10     0.01  -0.00  -0.01    -0.13   0.00  -0.67
  21   1     0.05  -0.02   0.16    -0.01   0.01  -0.01     0.05  -0.00   0.20
  22   1    -0.18   0.39   0.21     0.11  -0.23  -0.13     0.08  -0.18  -0.11
  23   1    -0.13  -0.28   0.14     0.18   0.39  -0.19     0.01   0.03  -0.02
  24   1     0.06   0.01   0.20    -0.07  -0.02  -0.24     0.01  -0.00   0.04
                     58                     59                     60
                        a                      a                      a 
 Frequencies --  2951.6390              2952.2672              2953.0831
 Red. masses --     1.5318                 1.5129                 1.5635
 Frc consts  --     0.0000                 0.0000                 0.0000
 IR Inten    --    32.1117                15.7597                12.5277
 Raman Activ --     0.0000                 0.0000                 0.0000
 Depolar     --     0.0000                 0.0000                 0.0000
 Atom AN      X      Y      Z        X      Y      Z        X      Y      Z
   1   7    -0.00   0.01   0.00     0.00   0.00  -0.00    -0.00   0.00  -0.00
   2   6     0.00  -0.08  -0.00    -0.00  -0.05   0.00    -0.00   0.01   0.00
   3   6     0.00   0.00   0.01    -0.00   0.00  -0.01    -0.00   0.00  -0.00
   4   6    -0.03   0.04  -0.03    -0.08   0.12  -0.09    -0.02   0.01  -0.04
   5   6    -0.01   0.00  -0.03     0.04   0.06   0.05    -0.07  -0.07  -0.11
   6   6     0.00   0.00  -0.02    -0.01   0.00   0.05    -0.00  -0.01   0.00
   7   6    -0.03   0.05  -0.02     0.02  -0.02   0.04     0.07  -0.08   0.11
   8   6     0.09   0.12   0.10    -0.02  -0.03  -0.02     0.01   0.00   0.04
   9   1     0.00  -0.02  -0.01     0.00  -0.00  -0.00    -0.00  -0.00  -0.00
  10   1    -0.00  -0.01   0.01    -0.00  -0.01   0.01     0.00  -0.00   0.00
  11   1    -0.00   0.00  -0.00     0.00   0.00   0.00     0.00  -0.00   0.00
  12   1     0.06   0.14  -0.09     0.04   0.10  -0.06    -0.01  -0.02   0.01
  13   1    -0.06   0.15   0.10    -0.03   0.07   0.05     0.01  -0.02  -0.01
  14   1    -0.01   0.00  -0.01     0.01   0.00   0.02     0.00  -0.00   0.00
  15   1     0.07  -0.16  -0.09     0.19  -0.43  -0.25     0.01  -0.03  -0.02
  16   1     0.05   0.01   0.21     0.13   0.01   0.58     0.04   0.00   0.17
  17   1     0.02   0.00   0.09    -0.08  -0.01  -0.32     0.14   0.02   0.55
  18   1    -0.01  -0.01   0.00    -0.09  -0.20   0.12     0.11   0.25  -0.16
  19   1    -0.03   0.00  -0.01     0.06   0.00   0.02     0.00  -0.00   0.00
  20   1     0.01   0.00   0.08    -0.03   0.00  -0.17    -0.00  -0.00  -0.01
  21   1     0.05  -0.00   0.18    -0.05   0.01  -0.21    -0.14   0.02  -0.58
  22   1     0.08  -0.16  -0.10    -0.03   0.08   0.05    -0.12   0.27   0.17
  23   1    -0.19  -0.44   0.26     0.05   0.11  -0.06    -0.00  -0.01   0.01
  24   1    -0.14   0.01  -0.62     0.03  -0.00   0.15    -0.03   0.00  -0.14
                     61                     62                     63
                        a                      a                      a 
 Frequencies --  2958.4832              2959.0438              2981.7118
 Red. masses --     1.9298                 1.6535                 1.5168
 Frc consts  --     0.0000                 0.0000                 0.0000
 IR Inten    --    15.8506               155.2442                 7.7021
 Raman Activ --     0.0000                 0.0000                 0.0000
 Depolar     --     0.0000                 0.0000                 0.0000
 Atom AN      X      Y      Z        X      Y      Z        X      Y      Z
   1   7    -0.00  -0.00   0.00    -0.00  -0.00   0.00     0.00   0.00   0.00
   2   6    -0.00   0.28   0.00     0.01  -0.02  -0.01    -0.12  -0.00   0.18
   3   6     0.00   0.01   0.00     0.00  -0.00   0.02    -0.00  -0.00   0.01
   4   6    -0.02   0.03  -0.01     0.04  -0.03   0.08     0.00  -0.00   0.01
   5   6     0.01   0.01   0.01     0.05   0.03   0.11    -0.00  -0.00   0.00
   6   6    -0.00   0.00   0.01    -0.00  -0.00   0.10    -0.00  -0.00   0.00
   7   6    -0.00   0.01   0.00     0.05  -0.04   0.11    -0.00   0.00   0.00
   8   6     0.02   0.03   0.02     0.03   0.03   0.08     0.00   0.00   0.01
   9   1    -0.01   0.01   0.01    -0.00  -0.01  -0.01    -0.01   0.02   0.01
  10   1     0.00   0.01  -0.01    -0.00   0.01  -0.01    -0.01  -0.02   0.01
  11   1     0.00  -0.00  -0.00     0.00   0.00  -0.00    -0.00   0.00   0.00
  12   1    -0.22  -0.50   0.32     0.00   0.01  -0.01     0.21   0.57  -0.33
  13   1     0.22  -0.51  -0.33    -0.02   0.05   0.03     0.21  -0.57  -0.32
  14   1    -0.00  -0.00  -0.00    -0.01  -0.00  -0.05    -0.01   0.00  -0.03
  15   1     0.05  -0.12  -0.07    -0.05   0.13   0.08    -0.00   0.00   0.00
  16   1     0.03   0.00   0.12    -0.09  -0.00  -0.38    -0.01   0.00  -0.03
  17   1    -0.02  -0.00  -0.08    -0.11  -0.02  -0.45    -0.00  -0.00  -0.01
  18   1    -0.02  -0.04   0.03    -0.04  -0.10   0.08     0.00   0.01  -0.00
  19   1     0.01  -0.00   0.00     0.07   0.00   0.02     0.00   0.00   0.00
  20   1    -0.00   0.00  -0.03    -0.06   0.00  -0.36    -0.00   0.00  -0.01
  21   1     0.00   0.00   0.01    -0.12   0.02  -0.46    -0.00   0.00  -0.01
  22   1     0.01  -0.03  -0.02    -0.05   0.11   0.08     0.00  -0.01  -0.00
  23   1    -0.05  -0.13   0.07    -0.04  -0.10   0.07    -0.00  -0.00   0.00
  24   1    -0.03   0.00  -0.16    -0.08   0.00  -0.34    -0.01  -0.00  -0.03
                     64                     65                     66
                        a                      a                      a 
 Frequencies --  3202.5235              3207.7444              3230.2104
 Red. masses --     2.0272                 2.0438                 1.2759
 Frc consts  --     0.0000                 0.0000                 0.0000
 IR Inten    --    97.7500                88.9402                20.4303
 Raman Activ --     0.0000                 0.0000                 0.0000
 Depolar     --     0.0000                 0.0000                 0.0000
 Atom AN      X      Y      Z        X      Y      Z        X      Y      Z
   1   7     0.26  -0.00  -0.11    -0.00  -0.28  -0.00     0.05  -0.00   0.13
   2   6     0.01  -0.00  -0.01    -0.00  -0.01  -0.00     0.00  -0.00   0.01
   3   6    -0.00   0.00   0.00     0.00   0.00  -0.00    -0.00  -0.00   0.00
   4   6    -0.00   0.00   0.00    -0.00   0.00  -0.00    -0.00   0.00  -0.00
   5   6     0.00   0.00   0.00    -0.00   0.00   0.00     0.00   0.00   0.00
   6   6    -0.00   0.00  -0.00    -0.00   0.00   0.00     0.00   0.00  -0.00
   7   6     0.00  -0.00   0.00     0.00   0.00  -0.00     0.00  -0.00   0.00
   8   6    -0.00  -0.00   0.00     0.00   0.00   0.00    -0.00  -0.00  -0.00
   9   1    -0.08   0.31   0.18    -0.20   0.54   0.36     0.17  -0.48  -0.29
  10   1    -0.08  -0.31   0.18     0.19   0.54  -0.35     0.17   0.49  -0.29
  11   1    -0.81  -0.00   0.05     0.00  -0.03  -0.00    -0.53  -0.00   0.05
  12   1    -0.01  -0.01   0.01     0.00   0.01  -0.01     0.00   0.01  -0.01
  13   1    -0.01   0.01   0.01    -0.00   0.01   0.01     0.00  -0.01  -0.01
  14   1     0.00  -0.00  -0.00     0.00  -0.00   0.00    -0.00   0.00  -0.00
  15   1     0.00  -0.00   0.00     0.00  -0.00  -0.00     0.00  -0.00  -0.00
  16   1    -0.00  -0.00  -0.01     0.00   0.00   0.02     0.00   0.00   0.01
  17   1    -0.00  -0.00  -0.00     0.00   0.00   0.00     0.00   0.00  -0.00
  18   1    -0.00  -0.00   0.00    -0.00  -0.00  -0.00    -0.00  -0.00   0.00
  19   1     0.00  -0.00   0.00     0.00  -0.00  -0.00    -0.00  -0.00  -0.00
  20   1     0.00   0.00   0.00     0.00   0.00  -0.00     0.00  -0.00   0.00
  21   1    -0.00   0.00  -0.00    -0.00   0.00  -0.00     0.00  -0.00  -0.00
  22   1    -0.00   0.00   0.00     0.00  -0.00   0.00    -0.00   0.00   0.00
  23   1     0.00   0.00   0.00    -0.00  -0.00   0.00     0.00   0.00  -0.00
  24   1    -0.00   0.00  -0.01    -0.00   0.00  -0.02     0.00  -0.00   0.01
