 Entering Gaussian System
 *********************************************
 Gaussian 98:
 frequency output generated by the xtb code
 *********************************************
                         Standard orientation:
 --------------------------------------------------------------------
  Center     Atomic     Atomic              Coordinates (Angstroms)
  Number     Number      Type              X           Y           Z
 --------------------------------------------------------------------
    1          7             0       -2.208386    0.797521   -0.128784
    2          6             0       -1.666561   -0.501481    0.370097
    3          6             0       -0.210559   -0.408848    0.789982
    4         16             0        0.854488   -0.034786   -0.598273
    5          6             0        2.406571    0.037288    0.245772
    6          1             0       -2.152120    1.515702    0.598635
    7          1             0       -3.187438    0.707716   -0.415490
    8          1             0       -1.668078    1.122817   -0.936206
    9          1             0       -1.770848   -1.258552   -0.417472
   10          1             0       -2.284790   -0.847286    1.209110
   11          1             0        0.130507   -1.346959    1.234882
   12          1             0       -0.081943    0.371343    1.542000
   13          1             0        2.391978    0.816709    1.003820
   14          1             0        3.194530    0.263242   -0.468882
   15          1             0        2.628428   -0.917593    0.716462
 --------------------------------------------------------------------
     1 basis functions        1 primitive gaussians
     1 alpha electrons        1 beta electrons

 Harmonic frequencies (cm**-1), IR intensities (km*mol⁻¹),
 Raman scattering activities (A**4/amu), Raman depolarization ratios,
 reduced masses (AMU), force constants (mDyne/A) and normal coordinates:
                      1                      2                      3
                        a                      a                      a 
 Frequencies --   -89.4931               -49.9658                74.5374
 Red. masses --    12.9384                 5.5017                 4.3939
 Frc consts  --     0.0000                 0.0000                 0.0000
 IR Inten    --    18.9395                 4.5442                 7.8412
 Raman Activ --     0.0000                 0.0000                 0.0000
 Depolar     --     0.0000                 0.0000                 0.0000
 Atom AN      X      Y      Z        X      Y      Z        X      Y      Z
   1   7    -0.04   0.20   0.28     0.20   0.13   0.01    -0.19   0.02   0.07
   2   6     0.00   0.04  -0.17    -0.07   0.02   0.03     0.01   0.05  -0.03
   3   6    -0.02  -0.02  -0.06    -0.01  -0.31  -0.10    -0.01   0.21  -0.03
   4  16     0.09  -0.50  -0.12    -0.01  -0.16  -0.06     0.15  -0.21  -0.08
   5   6    -0.05   0.37   0.08    -0.11   0.34   0.12     0.02  -0.01   0.08
   6   1    -0.23  -0.07   0.22     0.45   0.13  -0.12     0.04   0.02  -0.01
   7   1     0.06   0.02  -0.15    -0.07   0.18   0.36    -0.09  -0.00   0.15
   8   1     0.13   0.25   0.25    -0.17  -0.18  -0.23    -0.16  -0.02  -0.06
   9   1     0.04   0.09  -0.13    -0.11  -0.00   0.03     0.02   0.02  -0.02
  10   1    -0.02  -0.09  -0.10    -0.01   0.07   0.04     0.02  -0.02  -0.01
  11   1    -0.04  -0.00   0.01    -0.04  -0.14  -0.10     0.00   0.10   0.06
  12   1     0.00   0.01  -0.04     0.05  -0.15   0.02    -0.02   0.12  -0.06
  13   1    -0.09   0.19  -0.06    -0.10   0.13  -0.01    -0.20  -0.32   0.34
  14   1    -0.00   0.07   0.03    -0.02   0.10   0.05    -0.05   0.49   0.12
  15   1     0.03   0.18   0.14     0.00   0.13   0.09     0.25  -0.14  -0.37
                      4                      5                      6
                        a                      a                      a 
 Frequencies --   102.6722               204.8163               273.2880
 Red. masses --     9.1045                12.6195                10.2293
 Frc consts  --     0.0000                 0.0000                 0.0000
 IR Inten    --    28.5975                 2.4075                14.0727
 Raman Activ --     0.0000                 0.0000                 0.0000
 Depolar     --     0.0000                 0.0000                 0.0000
 Atom AN      X      Y      Z        X      Y      Z        X      Y      Z
   1   7     0.42   0.05  -0.21    -0.10   0.07  -0.03    -0.37   0.05  -0.11
   2   6    -0.00  -0.00   0.10    -0.04  -0.03  -0.32    -0.25   0.19   0.24
   3   6    -0.00  -0.23   0.16    -0.16  -0.00   0.17    -0.06  -0.29  -0.16
   4  16    -0.31  -0.00   0.14    -0.03  -0.11   0.45     0.32   0.01   0.07
   5   6    -0.06   0.16  -0.18     0.33   0.09  -0.38     0.27   0.07  -0.06
   6   1    -0.07  -0.00  -0.03     0.11   0.00  -0.01    -0.25   0.05  -0.06
   7   1     0.19   0.02  -0.30    -0.07   0.06   0.14    -0.06  -0.09  -0.14
   8   1     0.32   0.02   0.09    -0.14   0.01  -0.08    -0.03   0.02   0.02
   9   1    -0.02  -0.03   0.06     0.09   0.06  -0.17    -0.21  -0.02   0.16
  10   1    -0.05   0.07   0.02    -0.07  -0.11  -0.18    -0.00   0.18   0.17
  11   1    -0.01  -0.09  -0.00    -0.08   0.00   0.08    -0.10  -0.17  -0.17
  12   1     0.02  -0.10   0.08    -0.11   0.00   0.06     0.09  -0.19   0.05
  13   1    -0.09  -0.11   0.11     0.20   0.06  -0.14     0.09   0.01  -0.01
  14   1    -0.09   0.31  -0.05    -0.02   0.01  -0.24     0.03   0.05  -0.06
  15   1     0.15  -0.02  -0.26     0.18   0.05  -0.10     0.13   0.02  -0.04
                      7                      8                      9
                        a                      a                      a 
 Frequencies --   421.8561               740.5889               801.2663
 Red. masses --     9.1123                11.3385                15.1335
 Frc consts  --     0.0000                 0.0000                 0.0000
 IR Inten    --    13.9135                21.9313                18.9912
 Raman Activ --     0.0000                 0.0000                 0.0000
 Depolar     --     0.0000                 0.0000                 0.0000
 Atom AN      X      Y      Z        X      Y      Z        X      Y      Z
   1   7    -0.23   0.08  -0.14     0.07  -0.01  -0.00     0.00   0.06  -0.06
   2   6     0.42   0.29  -0.09     0.19   0.01  -0.17     0.03  -0.05  -0.05
   3   6     0.36  -0.16   0.20     0.17   0.02  -0.52     0.05  -0.12   0.04
   4  16    -0.22  -0.07   0.05    -0.16  -0.07   0.40    -0.48  -0.01  -0.22
   5   6    -0.15  -0.03   0.01    -0.14  -0.01  -0.01     0.64   0.05   0.26
   6   1    -0.16   0.07  -0.08    -0.02  -0.10   0.10    -0.01  -0.06   0.06
   7   1    -0.07  -0.21   0.05     0.00  -0.08   0.07    -0.01  -0.02   0.04
   8   1    -0.21   0.09  -0.11    -0.09   0.18   0.00    -0.08   0.15  -0.02
   9   1     0.22   0.12  -0.08    -0.22  -0.14   0.13    -0.08  -0.07   0.05
  10   1     0.08  -0.00  -0.09     0.24   0.24   0.19     0.01   0.11   0.04
  11   1     0.00  -0.16  -0.09     0.06   0.08   0.01     0.06   0.04   0.13
  12   1     0.21  -0.17   0.16    -0.06   0.10  -0.21    -0.05   0.07  -0.08
  13   1    -0.07  -0.01   0.01     0.05   0.01  -0.01     0.08  -0.01   0.09
  14   1    -0.01  -0.00   0.04    -0.13  -0.00  -0.11     0.26   0.00   0.17
  15   1    -0.06  -0.01   0.01     0.04   0.00  -0.03     0.06  -0.01   0.08
                     10                     11                     12
                        a                      a                      a 
 Frequencies --   824.4781               856.2372               899.9483
 Red. masses --     8.4807                 3.5658                 6.7213
 Frc consts  --     0.0000                 0.0000                 0.0000
 IR Inten    --    10.9433                28.8330                42.7852
 Raman Activ --     0.0000                 0.0000                 0.0000
 Depolar     --     0.0000                 0.0000                 0.0000
 Atom AN      X      Y      Z        X      Y      Z        X      Y      Z
   1   7     0.04  -0.20   0.11    -0.05   0.17   0.14     0.39  -0.17   0.17
   2   6     0.02   0.13   0.05    -0.00  -0.04   0.11     0.06   0.24  -0.02
   3   6    -0.05   0.40  -0.35     0.13  -0.23  -0.21    -0.41  -0.02  -0.00
   4  16    -0.26  -0.10   0.09    -0.08   0.01   0.09     0.05   0.03  -0.09
   5   6     0.22  -0.02   0.13     0.03   0.02   0.04     0.02   0.00   0.02
   6   1     0.06   0.05  -0.07    -0.15   0.40  -0.31    -0.19   0.09  -0.07
   7   1     0.03   0.05  -0.07     0.05  -0.12  -0.12     0.11  -0.58   0.18
   8   1     0.15  -0.25   0.04     0.10  -0.35  -0.05    -0.18   0.07  -0.10
   9   1     0.14   0.10  -0.07    -0.03   0.22  -0.20    -0.01   0.09  -0.03
  10   1     0.08  -0.17  -0.02     0.03  -0.26  -0.05    -0.03   0.08  -0.03
  11   1    -0.13  -0.10  -0.43     0.14   0.11   0.23    -0.17  -0.02   0.01
  12   1     0.16  -0.18   0.17    -0.07   0.17  -0.27    -0.13  -0.00  -0.01
  13   1     0.05   0.02   0.01     0.07  -0.00   0.02     0.02   0.01  -0.00
  14   1     0.00   0.02  -0.02    -0.02  -0.02  -0.03    -0.01   0.00  -0.02
  15   1     0.12   0.02   0.05    -0.01  -0.01  -0.02     0.02   0.00  -0.00
                     13                     14                     15
                        a                      a                      a 
 Frequencies --   957.0696               958.0293              1012.1844
 Red. masses --     4.4311                 3.1229                 6.7733
 Frc consts  --     0.0000                 0.0000                 0.0000
 IR Inten    --     5.3376                 0.5441                12.1405
 Raman Activ --     0.0000                 0.0000                 0.0000
 Depolar     --     0.0000                 0.0000                 0.0000
 Atom AN      X      Y      Z        X      Y      Z        X      Y      Z
   1   7    -0.01  -0.09   0.09    -0.00  -0.09  -0.01    -0.05  -0.38   0.06
   2   6     0.01   0.09  -0.12    -0.01   0.09   0.01    -0.05   0.49  -0.10
   3   6    -0.00   0.03  -0.05    -0.02  -0.01  -0.01     0.03  -0.23  -0.01
   4  16     0.03  -0.05   0.18     0.01  -0.10  -0.05    -0.02   0.10  -0.01
   5   6     0.07   0.13  -0.37    -0.06   0.34   0.12     0.01  -0.09   0.02
   6   1     0.01   0.03  -0.03     0.05  -0.07   0.04     0.16  -0.19   0.10
   7   1     0.01   0.01  -0.03    -0.01   0.04   0.01    -0.02   0.17  -0.04
   8   1     0.07  -0.12   0.03     0.02   0.00   0.02     0.13  -0.13   0.10
   9   1    -0.11   0.01   0.00     0.07   0.01   0.01     0.09   0.09  -0.01
  10   1     0.12   0.04   0.07    -0.03  -0.00  -0.03    -0.01   0.05  -0.06
  11   1    -0.11  -0.02   0.02    -0.10  -0.02   0.03    -0.26  -0.01   0.31
  12   1    -0.09  -0.02   0.04     0.12   0.02  -0.05     0.23   0.16  -0.27
  13   1    -0.30  -0.11   0.05     0.57  -0.15   0.28    -0.09   0.05  -0.07
  14   1     0.46  -0.04   0.39    -0.05  -0.21  -0.10    -0.04   0.05  -0.02
  15   1    -0.46  -0.05  -0.04    -0.39  -0.19  -0.34     0.13   0.05   0.08
                     16                     17                     18
                        a                      a                      a 
 Frequencies --  1042.4666              1087.6827              1178.6602
 Red. masses --     5.8245                 8.0242                 4.6234
 Frc consts  --     0.0000                 0.0000                 0.0000
 IR Inten    --    17.9972                21.7720                18.2867
 Raman Activ --     0.0000                 0.0000                 0.0000
 Depolar     --     0.0000                 0.0000                 0.0000
 Atom AN      X      Y      Z        X      Y      Z        X      Y      Z
   1   7    -0.15  -0.03   0.17    -0.10   0.21  -0.12     0.06   0.15   0.14
   2   6     0.29   0.05  -0.33     0.46  -0.20   0.28    -0.16  -0.32  -0.26
   3   6    -0.12  -0.01   0.26    -0.43  -0.09  -0.15     0.17   0.17   0.11
   4  16     0.02   0.00  -0.18     0.01   0.04  -0.00    -0.01   0.04  -0.00
   5   6    -0.02  -0.01   0.12     0.02  -0.01  -0.03    -0.01  -0.02   0.01
   6   1     0.03   0.13  -0.10     0.03   0.01   0.01    -0.11   0.17  -0.09
   7   1     0.00   0.11  -0.13    -0.03   0.14  -0.03     0.05  -0.14  -0.02
   8   1     0.16  -0.26   0.07     0.00   0.08   0.00    -0.04  -0.09  -0.05
   9   1    -0.26  -0.07   0.05     0.31  -0.08   0.08    -0.11  -0.22   0.07
  10   1     0.37   0.15   0.19     0.16  -0.13   0.07    -0.03   0.09   0.02
  11   1    -0.10  -0.04   0.04    -0.39  -0.06   0.10    -0.47  -0.11   0.11
  12   1    -0.31  -0.08   0.19     0.04   0.05  -0.15     0.52   0.06  -0.08
  13   1     0.11   0.02   0.00    -0.05   0.00  -0.01     0.00   0.01  -0.01
  14   1    -0.12  -0.01  -0.10     0.03   0.01   0.02    -0.01   0.01  -0.00
  15   1     0.09  -0.01  -0.02    -0.01   0.01   0.01     0.02   0.01   0.01
                     19                     20                     21
                        a                      a                      a 
 Frequencies --  1236.0238              1274.9652              1330.7261
 Red. masses --     3.0197                 3.3488                 3.7529
 Frc consts  --     0.0000                 0.0000                 0.0000
 IR Inten    --     7.8729                23.7052                61.7043
 Raman Activ --     0.0000                 0.0000                 0.0000
 Depolar     --     0.0000                 0.0000                 0.0000
 Atom AN      X      Y      Z        X      Y      Z        X      Y      Z
   1   7     0.10  -0.04  -0.23     0.02   0.03  -0.08     0.02   0.26  -0.06
   2   6    -0.14  -0.03   0.17    -0.02   0.03  -0.12    -0.34   0.13  -0.11
   3   6     0.20   0.08   0.04    -0.37  -0.05   0.21     0.11  -0.06  -0.03
   4  16    -0.00   0.02  -0.04     0.01  -0.00   0.04    -0.00  -0.00  -0.02
   5   6    -0.01  -0.01   0.02    -0.01   0.00  -0.03     0.03  -0.00   0.03
   6   1    -0.02  -0.14   0.08    -0.00  -0.06   0.04     0.01  -0.15   0.19
   7   1    -0.02   0.00   0.10    -0.01  -0.03   0.04     0.00  -0.28   0.12
   8   1    -0.05   0.19  -0.03     0.02  -0.01  -0.01     0.13  -0.23  -0.04
   9   1    -0.37   0.33  -0.24    -0.14   0.06  -0.06     0.44  -0.27   0.20
  10   1     0.33  -0.39   0.16     0.38  -0.18   0.17     0.32  -0.23   0.16
  11   1    -0.34  -0.06   0.15     0.43   0.06  -0.20     0.00   0.02   0.09
  12   1    -0.09  -0.04   0.10     0.53   0.11  -0.19    -0.16  -0.05   0.07
  13   1     0.02   0.01  -0.01     0.01  -0.01   0.01    -0.03   0.01  -0.01
  14   1    -0.02   0.00  -0.02     0.04   0.00   0.04    -0.04   0.00  -0.04
  15   1     0.02   0.00  -0.00     0.00   0.01   0.01    -0.04  -0.02  -0.02
                     22                     23                     24
                        a                      a                      a 
 Frequencies --  1357.5928              1362.3566              1378.3370
 Red. masses --     2.6737                 2.9273                 1.5437
 Frc consts  --     0.0000                 0.0000                 0.0000
 IR Inten    --    38.2307               250.1880               121.4104
 Raman Activ --     0.0000                 0.0000                 0.0000
 Depolar     --     0.0000                 0.0000                 0.0000
 Atom AN      X      Y      Z        X      Y      Z        X      Y      Z
   1   7    -0.05   0.03  -0.04     0.20  -0.21   0.15     0.12  -0.05  -0.14
   2   6     0.07  -0.04   0.01    -0.18   0.07  -0.06     0.04  -0.01  -0.03
   3   6    -0.02   0.01   0.02     0.02  -0.04   0.02     0.00  -0.00   0.01
   4  16     0.02   0.00   0.01     0.01   0.00  -0.00    -0.00   0.00   0.00
   5   6     0.33   0.02   0.17     0.08   0.01   0.04    -0.01  -0.00  -0.01
   6   1     0.04  -0.04   0.03    -0.27   0.20  -0.17    -0.60   0.04  -0.01
   7   1    -0.02  -0.08   0.07     0.05   0.45  -0.22    -0.20   0.31   0.60
   8   1     0.10  -0.05   0.05    -0.41   0.23  -0.18     0.26  -0.15   0.09
   9   1    -0.11   0.06  -0.05     0.24  -0.10   0.07     0.01  -0.03   0.02
  10   1    -0.07   0.05  -0.03     0.21  -0.10   0.12    -0.04   0.06  -0.02
  11   1     0.01   0.00  -0.01     0.03  -0.00  -0.00    -0.01  -0.02  -0.04
  12   1     0.06   0.01  -0.01    -0.04   0.00  -0.00    -0.02   0.03  -0.03
  13   1    -0.49   0.10  -0.10    -0.13   0.02  -0.02     0.02  -0.00   0.00
  14   1    -0.34   0.02  -0.39    -0.10  -0.00  -0.11     0.01  -0.00   0.02
  15   1    -0.45  -0.18  -0.14    -0.12  -0.05  -0.04     0.02   0.01   0.00
                     25                     26                     27
                        a                      a                      a 
 Frequencies --  1395.6795              1445.3465              1454.2809
 Red. masses --     1.7044                 1.8717                 1.6370
 Frc consts  --     0.0000                 0.0000                 0.0000
 IR Inten    --   103.6020                 8.9295                 3.0277
 Raman Activ --     0.0000                 0.0000                 0.0000
 Depolar     --     0.0000                 0.0000                 0.0000
 Atom AN      X      Y      Z        X      Y      Z        X      Y      Z
   1   7     0.10   0.16   0.05     0.01  -0.01   0.00    -0.01   0.00  -0.00
   2   6     0.13  -0.00   0.05     0.01  -0.04  -0.01    -0.00   0.02   0.01
   3   6    -0.02   0.01   0.01    -0.14   0.03  -0.22     0.06  -0.01   0.09
   4  16    -0.00  -0.00   0.00    -0.00   0.00  -0.00    -0.01  -0.00   0.03
   5   6    -0.00  -0.00   0.00    -0.03  -0.02   0.09    -0.08  -0.02   0.19
   6   1    -0.26  -0.35   0.39    -0.06  -0.01   0.01     0.03   0.01  -0.01
   7   1     0.07   0.12  -0.22    -0.01   0.04   0.01     0.00  -0.02  -0.01
   8   1    -0.28  -0.50  -0.39    -0.01  -0.03  -0.02     0.00   0.02   0.01
   9   1    -0.14   0.07  -0.04     0.03   0.06  -0.07    -0.01  -0.03   0.03
  10   1    -0.10   0.04  -0.07     0.01   0.10   0.04    -0.01  -0.05  -0.02
  11   1    -0.01  -0.02  -0.04     0.14   0.30   0.50    -0.06  -0.13  -0.23
  12   1    -0.02   0.03  -0.02     0.26  -0.41   0.37    -0.11   0.18  -0.17
  13   1     0.01   0.00  -0.00     0.02   0.19  -0.19    -0.02   0.40  -0.40
  14   1     0.00   0.00   0.01     0.08   0.01   0.11     0.19  -0.08   0.21
  15   1    -0.00  -0.00  -0.00     0.05  -0.11  -0.24     0.14  -0.24  -0.55
                     28                     29                     30
                        a                      a                      a 
 Frequencies --  1457.2108              1461.5832              2944.2345
 Red. masses --     1.5909                 1.8943                 1.9493
 Frc consts  --     0.0000                 0.0000                 0.0000
 IR Inten    --     5.8108                17.8735                 1.1794
 Raman Activ --     0.0000                 0.0000                 0.0000
 Depolar     --     0.0000                 0.0000                 0.0000
 Atom AN      X      Y      Z        X      Y      Z        X      Y      Z
   1   7    -0.00   0.00  -0.00     0.01   0.00   0.00    -0.00   0.00  -0.00
   2   6    -0.00  -0.01  -0.00     0.16   0.23  -0.01     0.11  -0.02  -0.26
   3   6    -0.01   0.00  -0.01    -0.03   0.01  -0.04     0.00   0.04   0.02
   4  16    -0.00   0.02   0.00     0.00  -0.00   0.00    -0.00  -0.00   0.00
   5   6    -0.02   0.23   0.02     0.00   0.01  -0.00    -0.00   0.00   0.00
   6   1    -0.00  -0.01   0.01    -0.02   0.04  -0.03    -0.00  -0.01  -0.01
   7   1     0.00  -0.01   0.00     0.00   0.03   0.00    -0.00   0.00   0.00
   8   1     0.00  -0.01  -0.00    -0.02   0.04   0.00     0.01   0.01  -0.01
   9   1     0.01   0.01  -0.02    -0.38  -0.36   0.41     0.06   0.33   0.32
  10   1     0.01   0.02   0.01    -0.14  -0.55  -0.35    -0.46  -0.26   0.63
  11   1    -0.00   0.01   0.03     0.03   0.06   0.09     0.02  -0.04   0.02
  12   1     0.02  -0.02   0.02     0.04  -0.08   0.07    -0.02  -0.11  -0.11
  13   1    -0.39  -0.20   0.22    -0.02  -0.01   0.01    -0.00  -0.01  -0.01
  14   1     0.08  -0.70  -0.14    -0.00  -0.02  -0.01     0.00   0.00  -0.00
  15   1     0.40   0.03  -0.16     0.00  -0.00  -0.00     0.00  -0.00   0.00
                     31                     32                     33
                        a                      a                      a 
 Frequencies --  2947.7461              2970.8749              2974.8196
 Red. masses --     1.9693                 1.4954                 1.5869
 Frc consts  --     0.0000                 0.0000                 0.0000
 IR Inten    --     8.0413                 7.0972                 8.7326
 Raman Activ --     0.0000                 0.0000                 0.0000
 Depolar     --     0.0000                 0.0000                 0.0000
 Atom AN      X      Y      Z        X      Y      Z        X      Y      Z
   1   7     0.00   0.00   0.00    -0.00   0.00  -0.00    -0.00   0.00  -0.00
   2   6     0.03   0.02  -0.03     0.06   0.12   0.02     0.06   0.15   0.07
   3   6     0.05  -0.29  -0.02    -0.06   0.02  -0.15     0.05   0.05   0.13
   4  16    -0.00  -0.00   0.00     0.00   0.00  -0.01    -0.00  -0.00   0.00
   5   6     0.00  -0.01  -0.00    -0.00  -0.00   0.01     0.00   0.00  -0.01
   6   1    -0.00  -0.00  -0.00    -0.00   0.01   0.01     0.00   0.01   0.01
   7   1    -0.00   0.00   0.00    -0.00   0.00  -0.00     0.00   0.00   0.00
   8   1     0.00   0.00  -0.00     0.00   0.00  -0.01     0.00   0.00  -0.00
   9   1    -0.00  -0.06  -0.07    -0.03  -0.34  -0.37    -0.05  -0.46  -0.50
  10   1    -0.11  -0.06   0.16    -0.19  -0.10   0.29    -0.16  -0.08   0.25
  11   1    -0.24   0.65  -0.31     0.16  -0.47   0.19    -0.08   0.24  -0.08
  12   1     0.07   0.37   0.38     0.06   0.41   0.35    -0.06  -0.42  -0.38
  13   1     0.00   0.01   0.01     0.00  -0.01  -0.01    -0.00   0.01   0.00
  14   1    -0.00  -0.00   0.00     0.02   0.00  -0.01    -0.01  -0.00   0.01
  15   1    -0.01   0.01  -0.01    -0.00   0.01  -0.00     0.00  -0.02   0.01
                     34                     35                     36
                        a                      a                      a 
 Frequencies --  3011.3573              3021.9963              3043.4165
 Red. masses --     1.9729                 1.5982                 1.5787
 Frc consts  --     0.0000                 0.0000                 0.0000
 IR Inten    --    21.1818                17.6036                15.1849
 Raman Activ --     0.0000                 0.0000                 0.0000
 Depolar     --     0.0000                 0.0000                 0.0000
 Atom AN      X      Y      Z        X      Y      Z        X      Y      Z
   1   7    -0.00  -0.00  -0.00    -0.00  -0.00  -0.00     0.00   0.00  -0.00
   2   6    -0.00  -0.00   0.00    -0.00   0.00   0.00    -0.00  -0.00   0.00
   3   6     0.00  -0.01  -0.00     0.00  -0.00   0.00     0.00   0.00   0.00
   4  16    -0.00   0.00  -0.00     0.00  -0.00   0.01    -0.00  -0.00   0.00
   5   6    -0.04   0.29   0.02    -0.02  -0.01   0.23    -0.18  -0.05   0.13
   6   1     0.00   0.00   0.00    -0.00   0.00   0.00     0.00   0.00   0.00
   7   1     0.00  -0.00   0.00     0.00   0.00   0.00    -0.00   0.00  -0.00
   8   1     0.00  -0.00  -0.00    -0.00  -0.00   0.00    -0.00   0.00   0.00
   9   1     0.00  -0.00   0.00    -0.00  -0.01  -0.01    -0.00  -0.00  -0.00
  10   1     0.00   0.00  -0.00     0.00   0.00  -0.00     0.00   0.00  -0.00
  11   1    -0.01   0.01  -0.01    -0.00   0.02  -0.01    -0.00   0.01  -0.01
  12   1     0.00   0.02   0.01     0.00  -0.01  -0.01    -0.00  -0.01  -0.01
  13   1     0.02  -0.41  -0.43     0.02  -0.56  -0.50    -0.03   0.09   0.12
  14   1    -0.02   0.04   0.01     0.13   0.04  -0.10     0.68   0.20  -0.63
  15   1     0.14  -0.65   0.34    -0.12   0.54  -0.23     0.00  -0.12   0.08
                     37                     38                     39
                        a                      a                      a 
 Frequencies --  3285.2988              3290.1667              3310.8052
 Red. masses --     2.0555                 2.0541                 1.2883
 Frc consts  --     0.0000                 0.0000                 0.0000
 IR Inten    --   200.6584               175.4333                67.5359
 Raman Activ --     0.0000                 0.0000                 0.0000
 Depolar     --     0.0000                 0.0000                 0.0000
 Atom AN      X      Y      Z        X      Y      Z        X      Y      Z
   1   7     0.25   0.05  -0.13    -0.10  -0.11  -0.24    -0.04   0.14  -0.02
   2   6     0.00   0.00  -0.00    -0.00  -0.00  -0.01    -0.00   0.01  -0.00
   3   6    -0.00   0.00   0.00     0.00  -0.00  -0.00     0.00   0.00  -0.00
   4  16    -0.00  -0.00   0.00    -0.00   0.00   0.00    -0.00  -0.00   0.00
   5   6     0.00   0.00  -0.00     0.00  -0.00  -0.00     0.00   0.00  -0.00
   6   1     0.03   0.10   0.09     0.04   0.49   0.50    -0.04  -0.44  -0.48
   7   1    -0.59  -0.07  -0.19     0.53   0.05   0.14     0.48   0.06   0.14
   8   1    -0.37  -0.22   0.57    -0.20  -0.12   0.26    -0.30  -0.16   0.43
   9   1    -0.00   0.00   0.00     0.00   0.01   0.01     0.00  -0.01  -0.01
  10   1    -0.01  -0.00   0.01    -0.00  -0.00   0.01    -0.00  -0.00   0.01
  11   1     0.00   0.00  -0.00     0.00  -0.00   0.00     0.00  -0.00   0.00
  12   1    -0.00  -0.00  -0.00     0.00   0.00   0.00    -0.00   0.00  -0.00
  13   1    -0.00  -0.00  -0.00    -0.00   0.00   0.00     0.00   0.00   0.00
  14   1    -0.00  -0.00   0.00    -0.00   0.00   0.00     0.00  -0.00   0.00
  15   1    -0.00  -0.00   0.00    -0.00  -0.00  -0.00     0.00  -0.00   0.00
