      -----------------------------------------------------------      
     |                   =====================                   |     
     |                           x T B                           |     
     |                   =====================                   |     
     |                         S. Grimme                         |     
     |          Mulliken Center for Theoretical Chemistry        |     
     |                    University of Bonn                     |     
      -----------------------------------------------------------      

   * xtb version 6.5.1 (fef0646) compiled by 'conda@b96dff2e9fd6' on 2023-01-04

   xtb is free software: you can redistribute it and/or modify it under
   the terms of the GNU Lesser General Public License as published by
   the Free Software Foundation, either version 3 of the License, or
   (at your option) any later version.
   
   xtb is distributed in the hope that it will be useful,
   but WITHOUT ANY WARRANTY; without even the implied warranty of
   MERCHANTABILITY or FITNESS FOR A PARTICULAR PURPOSE.  See the
   GNU Lesser General Public License for more details.
   
   Cite this work as:
   * C. Bannwarth, E. Caldeweyher, S. Ehlert, A. Hansen, P. Pracht,
     J. Seibert, S. Spicher, S. Grimme, WIREs Comput. Mol. Sci., 2020, 11,
     e01493. DOI: 10.1002/wcms.1493
   
   for GFN2-xTB:
   * C. Bannwarth, S. Ehlert and S. Grimme., J. Chem. Theory Comput., 2019,
     15, 1652-1671. DOI: 10.1021/acs.jctc.8b01176
   for GFN1-xTB:
   * S. Grimme, C. Bannwarth, P. Shushkov, J. Chem. Theory Comput., 2017,
     13, 1989-2009. DOI: 10.1021/acs.jctc.7b00118
   for GFN0-xTB:
   * P. Pracht, E. Caldeweyher, S. Ehlert, S. Grimme, ChemRxiv, 2019, preprint.
     DOI: 10.26434/chemrxiv.8326202.v1
   for GFN-FF:
   * S. Spicher and S. Grimme, Angew. Chem. Int. Ed., 2020, 59, 15665-15673.
     DOI: 10.1002/anie.202004239
   
   for ALPB and GBSA implicit solvation:
   * S. Ehlert, M. Stahn, S. Spicher, S. Grimme, J. Chem. Theory Comput.,
     2021, 17, 4250-4261. DOI: 10.1021/acs.jctc.1c00471
   
   for DFT-D4:
   * E. Caldeweyher, C. Bannwarth and S. Grimme, J. Chem. Phys., 2017,
     147, 034112. DOI: 10.1063/1.4993215
   * E. Caldeweyher, S. Ehlert, A. Hansen, H. Neugebauer, S. Spicher,
     C. Bannwarth and S. Grimme, J. Chem. Phys., 2019, 150, 154122.
     DOI: 10.1063/1.5090222
   * E. Caldeweyher, J.-M. Mewes, S. Ehlert and S. Grimme, Phys. Chem. Chem. Phys.
     2020, 22, 8499-8512. DOI: 10.1039/D0CP00502A
   
   for sTDA-xTB:
   * S. Grimme and C. Bannwarth, J. Chem. Phys., 2016, 145, 054103.
     DOI: 10.1063/1.4959605
   
   in the mass-spec context:
   * V. Asgeirsson, C. Bauer and S. Grimme, Chem. Sci., 2017, 8, 4879.
     DOI: 10.1039/c7sc00601b
   * J. Koopman and S. Grimme, ACS Omega 2019, 4, 12, 15120-15133.
     DOI: 10.1021/acsomega.9b02011
   
   for metadynamics refer to:
   * S. Grimme, J. Chem. Theory Comput., 2019, 155, 2847-2862
     DOI: 10.1021/acs.jctc.9b00143
   
   for SPH calculations refer to:
   * S. Spicher and S. Grimme, J. Chem. Theory Comput., 2021, 17, 1701-1714
     DOI: 10.1021/acs.jctc.0c01306
   
   with help from (in alphabetical order)
   P. Atkinson, C. Bannwarth, F. Bohle, G. Brandenburg, E. Caldeweyher
   M. Checinski, S. Dohm, S. Ehlert, S. Ehrlich, I. Gerasimov, C. Hölzer
   A. Katbashev, J. Koopman, C. Lavigne, S. Lehtola, F. März, M. Müller,
   F. Musil, H. Neugebauer, J. Pisarek, C. Plett, P. Pracht, F. Pultar,
   J. Seibert, P. Shushkov, S. Spicher, M. Stahn, M. Steiner, T. Strunk,
   J. Stückrath, T. Rose, and J. Unsleber
   
 * started run on 2023/01/24 at 15:06:40.194     

           -------------------------------------------------
          |                Calculation Setup                |
           -------------------------------------------------

          program call               : xtb init.xyz --opt -c 0 -u 0 -P 16 --alpb water
          hostname                   : gpg-woodward
          coordinate file            : init.xyz
          omp threads                :                    16

   ID    Z sym.   atoms
    1    8 O      1
    2    6 C      2-4
    3    7 N      5
    4   17 Cl     6
    5    1 H      7-16

molecular fragmentation (1/2 indicates fragments):
1111121111111111
# atoms in fragment 1/2:    15     1
 fragment masses (1/2) :       76.12       35.45
CMA distance (Bohr)    :   6.793
constraining FC (au)   :  0.0500

           -------------------------------------------------
          |                 G F N 2 - x T B                 |
           -------------------------------------------------

        Reference                      10.1021/acs.jctc.8b01176
      * Hamiltonian:
        H0-scaling (s, p, d)           1.850000    2.230000    2.230000
        zeta-weighting                 0.500000
      * Dispersion:
        s8                             2.700000
        a1                             0.520000
        a2                             5.000000
        s9                             5.000000
      * Repulsion:
        kExp                           1.500000    1.000000
        rExp                           1.000000
      * Coulomb:
        alpha                          2.000000
        third order                    shell-resolved
        anisotropic                    true
        a3                             3.000000
        a5                             4.000000
        cn-shift                       1.200000
        cn-exp                         4.000000
        max-rad                        5.000000

      * Solvation model:               ALPB
        Solvent                        water
        Parameter file                 internal GFN2-xTB/ALPB
        Dielectric constant                8.0200E+01
        Reference state                gsolv [1 M gas/solution]
        Free energy shift                  1.0808E-03 Eh       6.7819E-01 kcal/mol
        Temperature                        2.9815E+02 K
        Density                            1.0000E+00 kg/L
        Solvent mass                       1.8000E+01 g/mol
        Interaction kernel             P16
        Born radius scaling (c1)           1.4744E+00
        Born radii integrator          GBOBC
        Born offset                        0.0000E+00 a0       0.0000E+00 AA
        H-bond correction              true
        Ion screening                  false
        Surface tension                    1.0000E-05 Eh       1.5569E+01 dyn/cm
        Grid points                               230 per atom

          ...................................................
          :                      SETUP                      :
          :.................................................:
          :  # basis functions                  40          :
          :  # atomic orbitals                  39          :
          :  # shells                           23          :
          :  # electrons                        40          :
          :  max. iterations                   250          :
          :  Hamiltonian                  GFN2-xTB          :
          :  restarted?                      false          :
          :  GBSA solvation                   true          :
          :  PC potential                    false          :
          :  electronic temp.          300.0000000     K    :
          :  accuracy                    1.0000000          :
          :  -> integral cutoff          0.2500000E+02      :
          :  -> integral neglect         0.1000000E-07      :
          :  -> SCF convergence          0.1000000E-05 Eh   :
          :  -> wf. convergence          0.1000000E-03 e    :
          :  Broyden damping             0.4000000          :
          ...................................................

 iter      E             dE          RMSdq      gap      omega  full diag
   1    -23.2020232 -0.232020E+02  0.424E+00   11.08       0.0  T
   2    -23.2848304 -0.828072E-01  0.221E+00   10.27       1.0  T
   3    -23.2889070 -0.407659E-02  0.118E+00    9.90       1.0  T
   4    -23.2903776 -0.147062E-02  0.379E-01   10.02       1.0  T
   5    -23.2907483 -0.370742E-03  0.287E-01   10.07       1.0  T
   6    -23.2912113 -0.463001E-03  0.108E-01   10.16       1.0  T
   7    -23.2912635 -0.521997E-04  0.400E-02   10.18       1.0  T
   8    -23.2912673 -0.378918E-05  0.155E-02   10.18       1.6  T
   9    -23.2912677 -0.368852E-06  0.466E-03   10.17       5.4  T
  10    -23.2912677 -0.620096E-07  0.178E-03   10.17      14.0  T
  11    -23.2912677 -0.600547E-08  0.665E-04   10.17      37.6  T
  12    -23.2912677 -0.602736E-09  0.156E-04   10.17     160.3  T

   *** convergence criteria satisfied after 12 iterations ***

         #    Occupation            Energy/Eh            Energy/eV
      -------------------------------------------------------------
         1        2.0000           -1.0075991             -27.4182
       ...           ...                  ...                  ...
        14        2.0000           -0.4612966             -12.5525
        15        2.0000           -0.4419668             -12.0265
        16        2.0000           -0.4360371             -11.8652
        17        2.0000           -0.4072562             -11.0820
        18        2.0000           -0.4022121             -10.9447
        19        2.0000           -0.4011711             -10.9164
        20        2.0000           -0.3999273             -10.8826 (HOMO)
        21                         -0.0260326              -0.7084 (LUMO)
        22                          0.0434175               1.1814
        23                          0.0811756               2.2089
        24                          0.0905570               2.4642
        25                          0.1052622               2.8643
       ...                                ...                  ...
        39                          0.2932390               7.9794
      -------------------------------------------------------------
                  HL-Gap            0.3738947 Eh           10.1742 eV
             Fermi-level           -0.2129800 Eh           -5.7955 eV

 SCC (total)                   0 d,  0 h,  0 min,  0.016 sec
 SCC setup                      ...        0 min,  0.000 sec (  2.298%)
 Dispersion                     ...        0 min,  0.000 sec (  2.178%)
 classical contributions        ...        0 min,  0.000 sec (  0.505%)
 integral evaluation            ...        0 min,  0.001 sec (  4.913%)
 iterations                     ...        0 min,  0.012 sec ( 75.504%)
 molecular gradient             ...        0 min,  0.002 sec ( 12.331%)
 printout                       ...        0 min,  0.000 sec (  0.540%)

         :::::::::::::::::::::::::::::::::::::::::::::::::::::
         ::                     SUMMARY                     ::
         :::::::::::::::::::::::::::::::::::::::::::::::::::::
         :: total energy             -23.087763500217 Eh    ::
         :: total w/o Gsasa/hb       -23.076803633948 Eh    ::
         :: gradient norm              0.038673048523 Eh/a0 ::
         :: HOMO-LUMO gap             10.174193163778 eV    ::
         ::.................................................::
         :: SCC energy               -23.291267748068 Eh    ::
         :: -> isotropic ES            0.138344678142 Eh    ::
         :: -> anisotropic ES         -0.027682583656 Eh    ::
         :: -> anisotropic XC         -0.001941773543 Eh    ::
         :: -> dispersion             -0.008877706339 Eh    ::
         :: -> Gsolv                  -0.070494481783 Eh    ::
         ::    -> Gelec               -0.059534615514 Eh    ::
         ::    -> Gsasa                0.000334851852 Eh    ::
         ::    -> Ghb                 -0.012375477818 Eh    ::
         ::    -> Gshift               0.001080759698 Eh    ::
         :: repulsion energy           0.203470758157 Eh    ::
         :: add. restraining           0.000000000000 Eh    ::
         :: total charge               0.000000000000 e     ::
         :::::::::::::::::::::::::::::::::::::::::::::::::::::

      ----------------------------------------------------------- 
     |                   =====================                   |
     |                        A N C O P T                        |
     |                   =====================                   |
     |               Approximate Normal Coordinate               |
     |                Rational Function Optimizer                |
      ----------------------------------------------------------- 

          ...................................................
          :                      SETUP                      :
          :.................................................:
          :   optimization level            normal          :
          :   max. optcycles                   200          :
          :   ANC micro-cycles                  20          :
          :   degrees of freedom                42          :
          :.................................................:
          :   RF solver                   davidson          :
          :   write xtbopt.log                true          :
          :   linear?                        false          :
          :   energy convergence         0.5000000E-05 Eh   :
          :   grad. convergence          0.1000000E-02 Eh/α :
          :   maximium RF displ.         1.0000000          :
          :   Hlow (freq-cutoff)         0.1000000E-01      :
          :   Hmax (freq-cutoff)         5.0000000          :
          :   S6 in model hess.         20.0000000          :
          ...................................................

generating ANC from model Hessian ...
Using Lindh-Hessian (1995)
 Shifting diagonal of input Hessian by    9.1253991652323792E-003
 Lowest  eigenvalues of input Hessian
    0.000000    0.000000    0.000000    0.000000    0.000000    0.000000
    0.010000    0.010396    0.012691    0.015666    0.017175    0.024923
    0.027861    0.032372    0.038151    0.060433    0.062548    0.066106
 Highest eigenvalues
    1.242388    1.268439    1.299159    1.423035    1.430393    1.521745


........................................................................
.............................. CYCLE    1 ..............................
........................................................................
   1    -23.2912677 -0.232913E+02  0.514E-05   10.17       0.0  T
   2    -23.2912677 -0.419220E-11  0.410E-05   10.17     610.0  T
   3    -23.2912677 -0.776623E-11  0.150E-05   10.17    1670.0  T
     SCC iter.                  ...        0 min,  0.003 sec
     gradient                   ...        0 min,  0.002 sec
 * total energy  :   -23.0877635 Eh     change       -0.6812684E-10 Eh
   gradient norm :     0.0386741 Eh/α   predicted     0.0000000E+00 (-100.00%)
   displ. norm   :     0.2733904 α      lambda       -0.4986800E-02
   maximum displ.:     0.1285538 α      in ANC's #9, #7, #12, ...

........................................................................
.............................. CYCLE    2 ..............................
........................................................................
   1    -23.2962974 -0.232963E+02  0.242E-01   10.19       0.0  T
   2    -23.2963359 -0.385078E-04  0.137E-01   10.18       1.0  T
   3    -23.2963401 -0.418919E-05  0.286E-02   10.18       1.0  T
   4    -23.2963410 -0.966129E-06  0.117E-02   10.18       2.1  T
   5    -23.2963413 -0.287749E-06  0.798E-03   10.18       3.1  T
   6    -23.2963416 -0.249327E-06  0.373E-03   10.18       6.7  T
   7    -23.2963416 -0.596182E-07  0.185E-03   10.18      13.5  T
   8    -23.2963417 -0.120081E-07  0.473E-04   10.18      52.8  T
   9    -23.2963417 -0.504901E-09  0.163E-04   10.18     153.8  T
     SCC iter.                  ...        0 min,  0.008 sec
     gradient                   ...        0 min,  0.002 sec
 * total energy  :   -23.0910502 Eh     change       -0.3286658E-02 Eh
   gradient norm :     0.0211969 Eh/α   predicted    -0.2679763E-02 ( -18.47%)
   displ. norm   :     0.2145859 α      lambda       -0.1671628E-02
   maximum displ.:     0.0962641 α      in ANC's #2, #3, #7, ...

........................................................................
.............................. CYCLE    3 ..............................
........................................................................
   1    -23.2982382 -0.232982E+02  0.131E-01   10.23       0.0  T
   2    -23.2982520 -0.137513E-04  0.762E-02   10.23       1.0  T
   3    -23.2982540 -0.200574E-05  0.195E-02   10.23       1.3  T
   4    -23.2982546 -0.629085E-06  0.946E-03   10.23       2.6  T
   5    -23.2982548 -0.209253E-06  0.634E-03   10.23       3.9  T
   6    -23.2982550 -0.170869E-06  0.286E-03   10.23       8.7  T
   7    -23.2982550 -0.331517E-07  0.123E-03   10.23      20.3  T
   8    -23.2982550 -0.468019E-08  0.280E-04   10.23      89.4  T
   9    -23.2982550 -0.145402E-09  0.147E-04   10.23     170.3  T
     SCC iter.                  ...        0 min,  0.008 sec
     gradient                   ...        0 min,  0.002 sec
 * total energy  :   -23.0921565 Eh     change       -0.1106327E-02 Eh
   gradient norm :     0.0091550 Eh/α   predicted    -0.8743020E-03 ( -20.97%)
   displ. norm   :     0.1999315 α      lambda       -0.6012407E-03
   maximum displ.:     0.0930820 α      in ANC's #3, #2, #4, ...

........................................................................
.............................. CYCLE    4 ..............................
........................................................................
   1    -23.2987922 -0.232988E+02  0.915E-02   10.27       0.0  T
   2    -23.2987968 -0.461478E-05  0.553E-02   10.26       1.0  T
   3    -23.2987978 -0.972635E-06  0.117E-02   10.26       2.1  T
   4    -23.2987981 -0.331596E-06  0.679E-03   10.26       3.7  T
   5    -23.2987982 -0.124024E-06  0.423E-03   10.26       5.9  T
   6    -23.2987983 -0.763660E-07  0.207E-03   10.26      12.1  T
   7    -23.2987983 -0.180135E-07  0.686E-04   10.26      36.4  T
   8    -23.2987983 -0.121196E-08  0.235E-04   10.26     106.4  T
     SCC iter.                  ...        0 min,  0.006 sec
     gradient                   ...        0 min,  0.002 sec
 * total energy  :   -23.0925864 Eh     change       -0.4298842E-03 Eh
   gradient norm :     0.0112540 Eh/α   predicted    -0.3126391E-03 ( -27.27%)
   displ. norm   :     0.2347521 α      lambda       -0.4899937E-03
   maximum displ.:     0.1138543 α      in ANC's #4, #3, #2, ...

........................................................................
.............................. CYCLE    5 ..............................
........................................................................
   1    -23.2991759 -0.232992E+02  0.955E-02   10.27       0.0  T
   2    -23.2991788 -0.290493E-05  0.580E-02   10.27       1.0  T
   3    -23.2991798 -0.988779E-06  0.104E-02   10.27       2.4  T
   4    -23.2991801 -0.298712E-06  0.700E-03   10.27       3.6  T
   5    -23.2991803 -0.157152E-06  0.399E-03   10.27       6.3  T
   6    -23.2991804 -0.692330E-07  0.187E-03   10.27      13.4  T
   7    -23.2991804 -0.145032E-07  0.603E-04   10.27      41.4  T
   8    -23.2991804 -0.586301E-09  0.168E-04   10.27     149.0  T
     SCC iter.                  ...        0 min,  0.006 sec
     gradient                   ...        0 min,  0.002 sec
 * total energy  :   -23.0929364 Eh     change       -0.3500018E-03 Eh
   gradient norm :     0.0158243 Eh/α   predicted    -0.2584969E-03 ( -26.14%)
   displ. norm   :     0.2364605 α      lambda       -0.5091759E-03
   maximum displ.:     0.1219332 α      in ANC's #3, #4, #1, ...

........................................................................
.............................. CYCLE    6 ..............................
........................................................................
   1    -23.3005213 -0.233005E+02  0.876E-02   10.25       0.0  T
   2    -23.3005232 -0.192195E-05  0.533E-02   10.26       1.0  T
   3    -23.3005242 -0.102686E-05  0.981E-03   10.26       2.5  T
   4    -23.3005245 -0.246444E-06  0.715E-03   10.26       3.5  T
   5    -23.3005247 -0.179376E-06  0.406E-03   10.25       6.2  T
   6    -23.3005247 -0.826295E-07  0.125E-03   10.26      20.1  T
   7    -23.3005247 -0.445201E-08  0.391E-04   10.26      64.0  T
   8    -23.3005247 -0.258702E-09  0.972E-05   10.26     257.2  T
     SCC iter.                  ...        0 min,  0.006 sec
     gradient                   ...        0 min,  0.002 sec
 * total energy  :   -23.0933095 Eh     change       -0.3731124E-03 Eh
   gradient norm :     0.0116728 Eh/α   predicted    -0.2688246E-03 ( -27.95%)
   displ. norm   :     0.2895584 α      lambda       -0.4614448E-03
   maximum displ.:     0.1509743 α      in ANC's #4, #3, #1, ...

........................................................................
.............................. CYCLE    7 ..............................
........................................................................
   1    -23.2997842 -0.232998E+02  0.109E-01   10.23       0.0  T
   2    -23.2997867 -0.244816E-05  0.658E-02   10.23       1.0  T
   3    -23.2997879 -0.126573E-05  0.108E-02   10.23       2.3  T
   4    -23.2997882 -0.273344E-06  0.792E-03   10.23       3.2  T
   5    -23.2997884 -0.219351E-06  0.451E-03   10.23       5.5  T
   6    -23.2997885 -0.102979E-06  0.143E-03   10.23      17.4  T
   7    -23.2997885 -0.589346E-08  0.553E-04   10.23      45.2  T
   8    -23.2997885 -0.568416E-09  0.198E-04   10.23     126.4  T
     SCC iter.                  ...        0 min,  0.006 sec
     gradient                   ...        0 min,  0.001 sec
 * total energy  :   -23.0936291 Eh     change       -0.3196337E-03 Eh
   gradient norm :     0.0138375 Eh/α   predicted    -0.2500658E-03 ( -21.76%)
   displ. norm   :     0.2512299 α      lambda       -0.5526340E-03
   maximum displ.:     0.1347457 α      in ANC's #3, #4, #1, ...

........................................................................
.............................. CYCLE    8 ..............................
........................................................................
   1    -23.3020366 -0.233020E+02  0.929E-02   10.21       0.0  T
   2    -23.3020396 -0.302872E-05  0.567E-02   10.21       1.0  T
   3    -23.3020412 -0.155705E-05  0.112E-02   10.21       2.2  T
   4    -23.3020415 -0.297711E-06  0.807E-03   10.21       3.1  T
   5    -23.3020417 -0.232963E-06  0.440E-03   10.21       5.7  T
   6    -23.3020418 -0.969718E-07  0.146E-03   10.21      17.2  T
   7    -23.3020418 -0.625231E-08  0.497E-04   10.21      50.3  T
   8    -23.3020418 -0.684878E-09  0.214E-04   10.21     117.1  T
     SCC iter.                  ...        0 min,  0.006 sec
     gradient                   ...        0 min,  0.002 sec
 * total energy  :   -23.0938290 Eh     change       -0.1999308E-03 Eh
   gradient norm :     0.0097542 Eh/α   predicted    -0.2937600E-03 (  46.93%)
   displ. norm   :     0.2606047 α      lambda       -0.3735069E-03
   maximum displ.:     0.1269177 α      in ANC's #3, #4, #2, ...

........................................................................
.............................. CYCLE    9 ..............................
........................................................................
   1    -23.2990388 -0.232990E+02  0.104E-01   10.22       0.0  T
   2    -23.2990411 -0.226196E-05  0.631E-02   10.22       1.0  T
   3    -23.2990424 -0.139621E-05  0.107E-02   10.22       2.3  T
   4    -23.2990427 -0.232514E-06  0.774E-03   10.22       3.2  T
   5    -23.2990429 -0.239584E-06  0.354E-03   10.22       7.1  T
   6    -23.2990430 -0.550494E-07  0.151E-03   10.22      16.6  T
   7    -23.2990430 -0.770751E-08  0.565E-04   10.22      44.2  T
   8    -23.2990430 -0.523556E-09  0.979E-05   10.22     255.4  T
     SCC iter.                  ...        0 min,  0.006 sec
     gradient                   ...        0 min,  0.001 sec
 * total energy  :   -23.0939560 Eh     change       -0.1269814E-03 Eh
   gradient norm :     0.0137227 Eh/α   predicted    -0.1994360E-03 (  57.06%)
   displ. norm   :     0.1074459 α      lambda       -0.2122371E-03
   maximum displ.:     0.0614639 α      in ANC's #4, #3, #6, ...

........................................................................
.............................. CYCLE   10 ..............................
........................................................................
   1    -23.3010320 -0.233010E+02  0.466E-02   10.25       0.0  T
   2    -23.3010326 -0.613970E-06  0.278E-02   10.25       1.0  T
   3    -23.3010328 -0.159291E-06  0.419E-03   10.25       6.0  T
   4    -23.3010328 -0.383721E-07  0.283E-03   10.25       8.8  T
   5    -23.3010329 -0.242223E-07  0.176E-03   10.25      14.2  T
   6    -23.3010329 -0.152453E-07  0.617E-04   10.25      40.5  T
   7    -23.3010329 -0.142678E-08  0.214E-04   10.25     116.6  T
     SCC iter.                  ...        0 min,  0.005 sec
     gradient                   ...        0 min,  0.001 sec
 * total energy  :   -23.0940886 Eh     change       -0.1326051E-03 Eh
   gradient norm :     0.0053855 Eh/α   predicted    -0.1073417E-03 ( -19.05%)
   displ. norm   :     0.1056651 α      lambda       -0.1543202E-03
   maximum displ.:     0.0657551 α      in ANC's #2, #8, #7, ...

........................................................................
.............................. CYCLE   11 ..............................
........................................................................
   1    -23.3016846 -0.233017E+02  0.348E-02   10.29       0.0  T
   2    -23.3016854 -0.756715E-06  0.212E-02   10.28       1.2  T
   3    -23.3016856 -0.191869E-06  0.490E-03   10.28       5.1  T
   4    -23.3016856 -0.461307E-07  0.299E-03   10.28       8.4  T
   5    -23.3016856 -0.276131E-07  0.177E-03   10.28      14.1  T
   6    -23.3016856 -0.149976E-07  0.728E-04   10.28      34.3  T
   7    -23.3016856 -0.180051E-08  0.292E-04   10.28      85.5  T
     SCC iter.                  ...        0 min,  0.005 sec
     gradient                   ...        0 min,  0.001 sec
 * total energy  :   -23.0942108 Eh     change       -0.1221468E-03 Eh
   gradient norm :     0.0035839 Eh/α   predicted    -0.7802366E-04 ( -36.12%)
   displ. norm   :     0.2486042 α      lambda       -0.2205755E-03
   maximum displ.:     0.1468811 α      in ANC's #2, #3, #8, ...

........................................................................
.............................. CYCLE   12 ..............................
........................................................................
   1    -23.3009228 -0.233009E+02  0.780E-02   10.30       0.0  T
   2    -23.3009242 -0.142940E-05  0.479E-02   10.30       1.0  T
   3    -23.3009251 -0.897939E-06  0.847E-03   10.29       3.0  T
   4    -23.3009253 -0.147358E-06  0.628E-03   10.29       4.0  T
   5    -23.3009254 -0.156837E-06  0.292E-03   10.29       8.6  T
   6    -23.3009255 -0.391331E-07  0.132E-03   10.29      18.9  T
   7    -23.3009255 -0.478396E-08  0.398E-04   10.29      62.8  T
   8    -23.3009255 -0.310258E-09  0.106E-04   10.29     236.2  T
     SCC iter.                  ...        0 min,  0.006 sec
     gradient                   ...        0 min,  0.001 sec
 * total energy  :   -23.0943489 Eh     change       -0.1381137E-03 Eh
   gradient norm :     0.0064839 Eh/α   predicted    -0.1171044E-03 ( -15.21%)
   displ. norm   :     0.1057763 α      lambda       -0.7767160E-04
   maximum displ.:     0.0625038 α      in ANC's #2, #7, #3, ...

........................................................................
.............................. CYCLE   13 ..............................
........................................................................
   1    -23.3009657 -0.233010E+02  0.324E-02   10.29       0.0  T
   2    -23.3009659 -0.269162E-06  0.196E-02   10.29       1.3  T
   3    -23.3009661 -0.125999E-06  0.310E-03   10.29       8.1  T
   4    -23.3009661 -0.181778E-07  0.226E-03   10.29      11.1  T
   5    -23.3009661 -0.230806E-07  0.827E-04   10.29      30.2  T
   6    -23.3009661 -0.238521E-08  0.408E-04   10.29      61.3  T
     SCC iter.                  ...        0 min,  0.005 sec
     gradient                   ...        0 min,  0.001 sec
 * total energy  :   -23.0944020 Eh     change       -0.5306135E-04 Eh
   gradient norm :     0.0034855 Eh/α   predicted    -0.3927142E-04 ( -25.99%)
   displ. norm   :     0.0905499 α      lambda       -0.3640871E-04
   maximum displ.:     0.0589781 α      in ANC's #2, #7, #3, ...

........................................................................
.............................. CYCLE   14 ..............................
........................................................................
   1    -23.3011834 -0.233012E+02  0.285E-02   10.29       0.0  T
   2    -23.3011836 -0.260198E-06  0.174E-02   10.29       1.4  T
   3    -23.3011837 -0.134578E-06  0.346E-03   10.29       7.2  T
   4    -23.3011838 -0.272141E-07  0.240E-03   10.29      10.4  T
   5    -23.3011838 -0.229924E-07  0.116E-03   10.29      21.6  T
   6    -23.3011838 -0.650747E-08  0.398E-04   10.29      62.8  T
   7    -23.3011838 -0.382546E-09  0.140E-04   10.29     178.8  T
     SCC iter.                  ...        0 min,  0.005 sec
     gradient                   ...        0 min,  0.001 sec
 * total energy  :   -23.0944224 Eh     change       -0.2045019E-04 Eh
   gradient norm :     0.0019821 Eh/α   predicted    -0.1835239E-04 ( -10.26%)
   displ. norm   :     0.0208992 α      lambda       -0.8380619E-05
   maximum displ.:     0.0110589 α      in ANC's #2, #1, #9, ...

........................................................................
.............................. CYCLE   15 ..............................
........................................................................
   1    -23.3020105 -0.233020E+02  0.114E-02   10.28       0.0  T
   2    -23.3020106 -0.115945E-06  0.656E-03   10.28       3.8  T
   3    -23.3020106 -0.130954E-07  0.158E-03   10.28      15.8  T
   4    -23.3020106 -0.289732E-08  0.600E-04   10.28      41.7  T
   5    -23.3020106 -0.832994E-09  0.385E-04   10.28      65.0  T
     SCC iter.                  ...        0 min,  0.004 sec
     gradient                   ...        0 min,  0.001 sec
 * total energy  :   -23.0944222 Eh     change        0.2394783E-06 Eh
   gradient norm :     0.0025267 Eh/α   predicted    -0.4191957E-05 (*******%)
   displ. norm   :     0.0214706 α      lambda       -0.7473898E-05
   maximum displ.:     0.0142042 α      in ANC's #2, #3, #4, ...

........................................................................
.............................. CYCLE   16 ..............................
........................................................................
   1    -23.3016735 -0.233017E+02  0.779E-03   10.28       0.0  T
   2    -23.3016736 -0.273843E-07  0.477E-03   10.28       5.2  T
   3    -23.3016736 -0.146842E-07  0.117E-03   10.28      21.4  T
   4    -23.3016736 -0.297220E-08  0.828E-04   10.28      30.2  T
   5    -23.3016736 -0.276805E-08  0.375E-04   10.28      66.6  T
     SCC iter.                  ...        0 min,  0.004 sec
     gradient                   ...        0 min,  0.001 sec
 * total energy  :   -23.0944274 Eh     change       -0.5248785E-05 Eh
   gradient norm :     0.0010242 Eh/α   predicted    -0.3739376E-05 ( -28.76%)
   displ. norm   :     0.0206801 α      lambda       -0.3230857E-05
   maximum displ.:     0.0142499 α      in ANC's #2, #6, #4, ...

........................................................................
.............................. CYCLE   17 ..............................
........................................................................
   1    -23.3013039 -0.233013E+02  0.834E-03   10.28       0.0  T
   2    -23.3013040 -0.450447E-07  0.505E-03   10.28       5.0  T
   3    -23.3013040 -0.160741E-07  0.137E-03   10.28      18.2  T
   4    -23.3013040 -0.391224E-08  0.905E-04   10.28      27.6  T
   5    -23.3013040 -0.347042E-08  0.376E-04   10.28      66.6  T
     SCC iter.                  ...        0 min,  0.004 sec
     gradient                   ...        0 min,  0.001 sec
 * total energy  :   -23.0944294 Eh     change       -0.2030064E-05 Eh
   gradient norm :     0.0011011 Eh/α   predicted    -0.1614021E-05 ( -20.49%)
   displ. norm   :     0.0074826 α      lambda       -0.8561149E-06
   maximum displ.:     0.0043276 α      in ANC's #3, #6, #2, ...

........................................................................
.............................. CYCLE   18 ..............................
........................................................................
   1    -23.3014010 -0.233014E+02  0.252E-03   10.28       0.0  T
   2    -23.3014010 -0.180333E-08  0.149E-03   10.28      16.8  T
   3    -23.3014010 -0.737280E-09  0.241E-04   10.28     103.7  T
   4    -23.3014010 -0.120654E-09  0.168E-04   10.28     149.1  T
     SCC iter.                  ...        0 min,  0.003 sec
     gradient                   ...        0 min,  0.001 sec
 * total energy  :   -23.0944305 Eh     change       -0.1013452E-05 Eh
   gradient norm :     0.0005824 Eh/α   predicted    -0.4271831E-06 ( -57.85%)
   displ. norm   :     0.0211809 α      lambda       -0.1194733E-05
   maximum displ.:     0.0159317 α      in ANC's #2, #3, #6, ...

   *** GEOMETRY OPTIMIZATION CONVERGED AFTER 18 ITERATIONS ***

------------------------------------------------------------------------
 total energy gain   :        -0.0066670 Eh       -4.1836 kcal/mol
 total RMSD          :         0.5012867 a0        0.2653 Å
 total power (kW/mol):        -0.9724500 (step) -114.1853 (real)
------------------------------------------------------------------------

 ANCopt (total)                0 d,  0 h,  0 min,  0.153 sec
 optimizer setup                ...        0 min,  0.000 sec (  0.058%)
 model hessian                  ...        0 min,  0.005 sec (  3.226%)
 ANC generation                 ...        0 min,  0.001 sec (  0.417%)
 coordinate transformation      ...        0 min,  0.000 sec (  0.210%)
 single point calculation       ...        0 min,  0.142 sec ( 92.728%)
 optimization log               ...        0 min,  0.001 sec (  0.761%)
 hessian update                 ...        0 min,  0.000 sec (  0.323%)
 rational function              ...        0 min,  0.002 sec (  1.230%)

================
 final structure:
================
16
 xtb: 6.5.1 (fef0646)
O            3.60609082854545        1.75759801071618        0.09266101570053
C            2.63417548239746        0.76285701477849       -0.15603407758360
C            3.00791249561242       -0.16577933542810       -1.31946541886090
C            4.44969212497931       -0.65236888176210       -1.22578141688592
N            4.67046411861159       -1.37111476946093        0.04502835774171
Cl           2.40697909307589       -3.38198680921934        0.55199340543790
H            3.59578697153843        2.40009860748855       -0.62924930748097
H            1.65397752266176        1.21426946838266       -0.34925363838096
H            2.54640107372175        0.18707613138148        0.76830112167448
H            2.87205091502386        0.35057321025314       -2.26935345104656
H            2.33331765815443       -1.02131821051588       -1.29123476197960
H            5.13220491316787        0.19725463019658       -1.26978244307507
H            4.64987405833706       -1.32742345629072       -2.05610386665226
H            4.61048132067092       -0.71304961442352        0.82625086426510
H            5.57868464034990       -1.83859647415731        0.06056433351989
H            3.92123678315235       -2.09338952193922        0.18942928360606

 Bond Distances (Angstroems)
 ---------------------------
O1-C2=1.4128         O1-H7=0.9665         C2-O1=1.4128         C2-C3=1.5348         C2-H8=1.0963         C2-H9=1.0925         
C3-C2=1.5348         C3-C4=1.5246         C3-H10=1.0897        C3-H11=1.0899        C4-C3=1.5246         C4-N5=1.4766         
C4-H12=1.0907        C4-H13=1.0887        N5-C4=1.4766         N5-H14=1.0232        N5-H15=1.0216        N5-H16=1.0507        
H7-O1=0.9665         H8-C2=1.0963         H9-C2=1.0925         H10-C3=1.0897        H11-C3=1.0899        H12-C4=1.0907        
H13-C4=1.0887        H14-N5=1.0232        H15-N5=1.0216        H16-N5=1.0507        
 C  H  Rav=1.0913 sigma=0.0025  Rmin=1.0887  Rmax=1.0963     6
 C  C  Rav=1.5297 sigma=0.0051  Rmin=1.5246  Rmax=1.5348     2
 N  H  Rav=1.0318 sigma=0.0133  Rmin=1.0216  Rmax=1.0507     3
 N  C  Rav=1.4766 sigma=0.0000  Rmin=1.4766  Rmax=1.4766     1
 O  H  Rav=0.9665 sigma=0.0000  Rmin=0.9665  Rmax=0.9665     1
 O  C  Rav=1.4128 sigma=0.0000  Rmin=1.4128  Rmax=1.4128     1

 selected bond angles (degree)
 --------------------
H7-O1-C2=109.22                C3-C2-O1=113.07                H8-C2-O1=110.87                H8-C2-C3=109.47                
H9-C2-O1=106.11                H9-C2-C3=110.00                H9-C2-H8=107.11                C4-C3-C2=112.14                
H10-C3-C2=110.10               H10-C3-C4=108.83               H11-C3-C2=107.73               H11-C3-C4=109.46               
H11-C3-H10=108.50              N5-C4-C3=110.47                H12-C4-C3=109.92               H12-C4-N5=108.68               
H13-C4-C3=108.96               H13-C4-N5=109.09               H13-C4-H12=109.71              H14-N5-C4=109.59               
H15-N5-C4=111.64               H15-N5-H14=109.56              H16-N5-C4=110.26               H16-N5-H14=107.18              
H16-N5-H15=108.50              

 selected dihedral angles (degree)
 ---------------------------------
C3-C2-O1-H7= 70.47            H8-C2-O1-H7=307.10            H9-C2-O1-H7=191.13            C4-C3-C2-O1= 46.71            
C4-C3-C2-H8=170.85            C4-C3-C2-H9=288.29            H10-C3-C2-O1=285.38           H10-C3-C2-H8= 49.52           
H10-C3-C2-H9=166.96           H11-C3-C2-O1=167.22           H11-C3-C2-H8=291.36           H11-C3-C2-H9= 48.80           
N5-C4-C3-C2= 58.52            N5-C4-C3-H10=180.57           N5-C4-C3-H11=299.01           H12-C4-C3-C2=298.59           
H12-C4-C3-H10= 60.65          H12-C4-C3-H11=179.08          H13-C4-C3-C2=178.34           H13-C4-C3-H10=300.40          
H13-C4-C3-H11= 58.83          H14-N5-C4-C3=292.03           H14-N5-C4-H12= 52.69          H14-N5-C4-H13=172.28          
H15-N5-C4-C3=170.46           H15-N5-C4-H12=291.13          H15-N5-C4-H13= 50.71          H16-N5-C4-C3= 49.77           
H16-N5-C4-H12=170.44          H16-N5-C4-H13=290.03          

 CMA Distance (Angstroems)
 ---------------------------
R(CMA):  3.8300
           -------------------------------------------------
          |                Final Singlepoint                |
           -------------------------------------------------

          ...................................................
          :                      SETUP                      :
          :.................................................:
          :  # basis functions                  40          :
          :  # atomic orbitals                  39          :
          :  # shells                           23          :
          :  # electrons                        40          :
          :  max. iterations                   250          :
          :  Hamiltonian                  GFN2-xTB          :
          :  restarted?                      false          :
          :  GBSA solvation                   true          :
          :  PC potential                    false          :
          :  electronic temp.          300.0000000     K    :
          :  accuracy                    1.0000000          :
          :  -> integral cutoff          0.2500000E+02      :
          :  -> integral neglect         0.1000000E-07      :
          :  -> SCF convergence          0.1000000E-05 Eh   :
          :  -> wf. convergence          0.1000000E-03 e    :
          :  Broyden damping             0.4000000          :
          ...................................................

 iter      E             dE          RMSdq      gap      omega  full diag
   1    -23.3014010 -0.233014E+02  0.836E-05   10.28       0.0  T
   2    -23.3014010 -0.127365E-10  0.677E-05   10.28     369.4  T
   3    -23.3014010 -0.204246E-10  0.276E-05   10.28     904.6  T

   *** convergence criteria satisfied after 3 iterations ***

         #    Occupation            Energy/Eh            Energy/eV
      -------------------------------------------------------------
         1        2.0000           -1.0059133             -27.3723
       ...           ...                  ...                  ...
        14        2.0000           -0.4662913             -12.6884
        15        2.0000           -0.4443846             -12.0923
        16        2.0000           -0.4346530             -11.8275
        17        2.0000           -0.4102311             -11.1630
        18        2.0000           -0.4030138             -10.9666
        19        2.0000           -0.4005614             -10.8998
        20        2.0000           -0.4003274             -10.8935 (HOMO)
        21                         -0.0225030              -0.6123 (LUMO)
        22                          0.0510881               1.3902
        23                          0.0827831               2.2526
        24                          0.0907157               2.4685
        25                          0.1060183               2.8849
       ...                                ...                  ...
        39                          0.2975098               8.0957
      -------------------------------------------------------------
                  HL-Gap            0.3778244 Eh           10.2811 eV
             Fermi-level           -0.2114152 Eh           -5.7529 eV

 SCC (total)                   0 d,  0 h,  0 min,  0.004 sec
 SCC setup                      ...        0 min,  0.000 sec (  3.180%)
 Dispersion                     ...        0 min,  0.000 sec (  2.440%)
 classical contributions        ...        0 min,  0.000 sec (  0.740%)
 integral evaluation            ...        0 min,  0.000 sec ( 11.613%)
 iterations                     ...        0 min,  0.002 sec ( 54.221%)
 molecular gradient             ...        0 min,  0.001 sec ( 24.250%)
 printout                       ...        0 min,  0.000 sec (  1.732%)

         :::::::::::::::::::::::::::::::::::::::::::::::::::::
         ::                     SUMMARY                     ::
         :::::::::::::::::::::::::::::::::::::::::::::::::::::
         :: total energy             -23.094430459668 Eh    ::
         :: total w/o Gsasa/hb       -23.084018181748 Eh    ::
         :: gradient norm              0.000585370135 Eh/a0 ::
         :: HOMO-LUMO gap             10.281125529412 eV    ::
         ::.................................................::
         :: SCC energy               -23.301400993609 Eh    ::
         :: -> isotropic ES            0.145504328106 Eh    ::
         :: -> anisotropic ES         -0.029980043293 Eh    ::
         :: -> anisotropic XC         -0.002023099666 Eh    ::
         :: -> dispersion             -0.008702878154 Eh    ::
         :: -> Gsolv                  -0.076487543704 Eh    ::
         ::    -> Gelec               -0.066075265784 Eh    ::
         ::    -> Gsasa                0.000351498256 Eh    ::
         ::    -> Ghb                 -0.011844535874 Eh    ::
         ::    -> Gshift               0.001080759698 Eh    ::
         :: repulsion energy           0.206938686517 Eh    ::
         :: add. restraining           0.000000000000 Eh    ::
         :: total charge               0.000000000000 e     ::
         :::::::::::::::::::::::::::::::::::::::::::::::::::::

           -------------------------------------------------
          |                Property Printout                |
           -------------------------------------------------

    * Orbital Energies and Occupations

         #    Occupation            Energy/Eh            Energy/eV
      -------------------------------------------------------------
         1        2.0000           -1.0059133             -27.3723
       ...           ...                  ...                  ...
         8        2.0000           -0.5655718             -15.3900
         9        2.0000           -0.5543559             -15.0848
        10        2.0000           -0.5304354             -14.4339
        11        2.0000           -0.5212200             -14.1831
        12        2.0000           -0.5047200             -13.7341
        13        2.0000           -0.4784576             -13.0195
        14        2.0000           -0.4662913             -12.6884
        15        2.0000           -0.4443846             -12.0923
        16        2.0000           -0.4346530             -11.8275
        17        2.0000           -0.4102311             -11.1630
        18        2.0000           -0.4030138             -10.9666
        19        2.0000           -0.4005614             -10.8998
        20        2.0000           -0.4003274             -10.8935 (HOMO)
        21                         -0.0225030              -0.6123 (LUMO)
        22                          0.0510881               1.3902
        23                          0.0827831               2.2526
        24                          0.0907157               2.4685
        25                          0.1060183               2.8849
        26                          0.1155469               3.1442
        27                          0.1175676               3.1992
        28                          0.1186246               3.2279
        29                          0.1198614               3.2616
        30                          0.1206881               3.2841
        31                          0.1312243               3.5708
       ...                                ...                  ...
        39                          0.2975098               8.0957
      -------------------------------------------------------------
                  HL-Gap            0.3778244 Eh           10.2811 eV
             Fermi-level           -0.2114152 Eh           -5.7529 eV

     #   Z          covCN         q      C6AA      α(0)
     1   8 O        1.655    -0.506    23.018     6.477
     2   6 C        3.674     0.072    19.598     6.344
     3   6 C        3.801    -0.089    22.206     6.709
     4   6 C        3.732    -0.025    21.112     6.558
     5   7 N        3.484    -0.164    24.543     7.358
     6  17 Cl       0.041    -0.950   124.985    17.015
     7   1 H        0.805     0.354     0.578     1.194
     8   1 H        0.924     0.022     2.698     2.569
     9   1 H        0.924     0.050     2.315     2.379
    10   1 H        0.925     0.070     2.089     2.260
    11   1 H        0.925     0.062     2.181     2.310
    12   1 H        0.924     0.113     1.671     2.022
    13   1 H        0.925     0.101     1.774     2.083
    14   1 H        0.859     0.292     0.738     1.345
    15   1 H        0.860     0.305     0.699     1.310
    16   1 H        0.897     0.293     0.730     1.337

 Mol. C6AA /au·bohr⁶  :       2171.490674
 Mol. C8AA /au·bohr⁸  :      53967.894802
 Mol. α(0) /au        :         69.270139


Wiberg/Mayer (AO) data.
largest (>0.10) Wiberg bond orders for each atom

 ---------------------------------------------------------------------------
     #   Z sym  total        # sym  WBO       # sym  WBO       # sym  WBO
 ---------------------------------------------------------------------------
     1   8 O    1.920 --     2 C    0.999     7 H    0.862
     2   6 C    3.955 --     1 O    0.999     3 C    0.994     8 H    0.972
                             9 H    0.971
     3   6 C    3.992 --     4 C    1.012     2 C    0.994    11 H    0.972
                            10 H    0.971
     4   6 C    3.931 --     3 C    1.012    13 H    0.969     5 N    0.968
                            12 H    0.965
     5   7 N    3.648 --     4 C    0.968    14 H    0.898    15 H    0.894
                            16 H    0.836
     6  17 Cl   0.098
     7   1 H    0.874 --     1 O    0.862
     8   1 H    1.000 --     2 C    0.972
     9   1 H    0.997 --     2 C    0.971
    10   1 H    0.995 --     3 C    0.971
    11   1 H    0.996 --     3 C    0.972
    12   1 H    0.987 --     4 C    0.965
    13   1 H    0.990 --     4 C    0.969
    14   1 H    0.915 --     5 N    0.898
    15   1 H    0.907 --     5 N    0.894
    16   1 H    0.914 --     5 N    0.836
 ---------------------------------------------------------------------------

Topologies differ in total number of bonds
Writing topology from bond orders to xtbtopo.mol

molecular dipole:
                 x           y           z       tot (Debye)
 q only:        3.706       3.760      -1.714
   full:        3.096       3.260      -1.574      12.108
molecular quadrupole (traceless):
                xx          xy          yy          xz          yz          zz
 q only:       65.153      10.123     -56.366     -14.091       5.715      -8.787
  q+dip:       55.911       9.862     -47.098     -13.607       2.662      -8.813
   full:       55.897      10.012     -47.139     -13.442       2.505      -8.758

           -------------------------------------------------
          |                Geometry Summary                 |
           -------------------------------------------------

      molecular mass/u    :      111.5706609
   center of mass at/Å    :        3.2879998      -1.0245995      -0.1508426
  moments of inertia/u·Å² :        0.1285468E+03   0.4661748E+03   0.5110433E+03
rotational constants/cm⁻¹ :        0.1311401E+00   0.3616161E-01   0.3298670E-01

 * 14 selected distances

     #   Z          #   Z                                           value/Å
     1   8 O        2   6 C                                       1.4127911
     2   6 C        3   6 C                                       1.5348022 (max)
     3   6 C        4   6 C                                       1.5245573
     4   6 C        5   7 N                                       1.4765818
     1   8 O        7   1 H                                       0.9664719 (min)
     2   6 C        8   1 H                                       1.0963098
     2   6 C        9   1 H                                       1.0925309
     3   6 C       10   1 H                                       1.0896632
     3   6 C       11   1 H                                       1.0898725
     4   6 C       12   1 H                                       1.0906971
     4   6 C       13   1 H                                       1.0886722
     5   7 N       14   1 H                                       1.0232089
     5   7 N       15   1 H                                       1.0215896
     5   7 N       16   1 H                                       1.0506542

 * 6 distinct bonds (by element types)

   Z      Z             #   av. dist./Å        max./Å        min./Å
   1 H    6 C           6     1.0912909     1.0963098     1.0886722
   6 C    6 C           2     1.5296798     1.5348022     1.5245573
   1 H    7 N           3     1.0318176     1.0506542     1.0215896
   6 C    7 N           1     1.4765818     1.4765818     1.4765818
   1 H    8 O           1     0.9664719     0.9664719     0.9664719
   6 C    8 O           1     1.4127911     1.4127911     1.4127911


optimized geometry written to: xtbopt.xyz


           -------------------------------------------------
          | TOTAL ENERGY              -23.094430459668 Eh   |
          | GRADIENT NORM               0.000585370135 Eh/α |
          | HOMO-LUMO GAP              10.281125529412 eV   |
           -------------------------------------------------

------------------------------------------------------------------------
 * finished run on 2023/01/24 at 15:06:40.397     
------------------------------------------------------------------------
 total:
 * wall-time:     0 d,  0 h,  0 min,  0.203 sec
 *  cpu-time:     0 d,  0 h,  0 min, 22.112 sec
 * ratio c/w:   109.173 speedup
 SCF:
 * wall-time:     0 d,  0 h,  0 min,  0.016 sec
 *  cpu-time:     0 d,  0 h,  0 min,  2.238 sec
 * ratio c/w:   140.631 speedup
 ANC optimizer:
 * wall-time:     0 d,  0 h,  0 min,  0.158 sec
 *  cpu-time:     0 d,  0 h,  0 min, 16.164 sec
 * ratio c/w:   102.136 speedup

