 Entering Gaussian System
 *********************************************
 Gaussian 98:
 frequency output generated by the xtb code
 *********************************************
                         Standard orientation:
 --------------------------------------------------------------------
  Center     Atomic     Atomic              Coordinates (Angstroms)
  Number     Number      Type              X           Y           Z
 --------------------------------------------------------------------
    1          7             0        0.208045   -1.478860    0.841452
    2          6             0        1.093921   -1.547726   -0.356001
    3          6             0        1.420136   -0.159959   -0.905925
    4          6             0        2.177934    0.684849    0.062211
    5          6             0        1.812342    1.905731    0.401400
    6         17             0       -2.610959    0.380854   -0.083372
    7          1             0       -0.665883   -0.973266    0.613844
    8          1             0        0.664641   -0.963841    1.607040
    9          1             0       -0.046888   -2.412668    1.194354
   10          1             0        0.615345   -2.160615   -1.130088
   11          1             0        2.022189   -2.070731   -0.097813
   12          1             0        0.486738    0.347345   -1.176012
   13          1             0        1.987853   -0.239254   -1.842197
   14          1             0        3.068663    0.257015    0.494549
   15          1             0        0.930632    2.355755   -0.012157
   16          1             0        2.375237    2.493980    1.101117
 --------------------------------------------------------------------
     1 basis functions        1 primitive gaussians
     1 alpha electrons        1 beta electrons

 Harmonic frequencies (cm**-1), IR intensities (km*mol⁻¹),
 Raman scattering activities (A**4/amu), Raman depolarization ratios,
 reduced masses (AMU), force constants (mDyne/A) and normal coordinates:
                      1                      2                      3
                        a                      a                      a 
 Frequencies --   -63.3477               -26.8076                49.6628
 Red. masses --     7.8875                24.5728                16.6449
 Frc consts  --     0.0000                 0.0000                 0.0000
 IR Inten    --     1.5050               100.6510                18.2820
 Raman Activ --     0.0000                 0.0000                 0.0000
 Depolar     --     0.0000                 0.0000                 0.0000
 Atom AN      X      Y      Z        X      Y      Z        X      Y      Z
   1   7    -0.07  -0.17  -0.08     0.42  -0.25   0.10    -0.16   0.31   0.01
   2   6    -0.07   0.01  -0.09     0.27  -0.09  -0.01    -0.14   0.16   0.03
   3   6    -0.03   0.08   0.13     0.09  -0.04   0.03     0.05   0.11  -0.01
   4   6    -0.16  -0.04   0.33     0.09  -0.01   0.01     0.35  -0.04  -0.11
   5   6     0.39   0.31  -0.32     0.09  -0.01  -0.01     0.49  -0.06   0.14
   6  17    -0.04  -0.12   0.05    -0.68   0.29  -0.09    -0.37  -0.35  -0.05
   7   1    -0.02  -0.03  -0.00     0.10  -0.08   0.06    -0.05   0.07  -0.01
   8   1    -0.02  -0.08   0.00     0.13  -0.07   0.02    -0.05   0.11  -0.01
   9   1    -0.03  -0.06  -0.06     0.14  -0.08   0.02    -0.04   0.09   0.03
  10   1    -0.02   0.04  -0.05     0.07  -0.03   0.00    -0.06   0.06   0.01
  11   1    -0.02  -0.01  -0.05     0.10  -0.01  -0.04    -0.06   0.02   0.01
  12   1     0.00   0.03   0.02     0.01  -0.03   0.03     0.03   0.08   0.03
  13   1     0.02   0.06   0.05     0.01   0.02  -0.00    -0.02   0.00  -0.02
  14   1    -0.21  -0.13   0.31     0.03   0.00   0.00     0.13  -0.04  -0.12
  15   1     0.28   0.22  -0.31     0.02  -0.00  -0.00     0.11   0.01   0.13
  16   1     0.09   0.05  -0.04     0.03   0.00  -0.01     0.21  -0.05   0.01
                      4                      5                      6
                        a                      a                      a 
 Frequencies --    76.4043               148.9759               263.6707
 Red. masses --    11.7917                 8.5543                 5.9236
 Frc consts  --     0.0000                 0.0000                 0.0000
 IR Inten    --    13.8811                23.2914                 4.4927
 Raman Activ --     0.0000                 0.0000                 0.0000
 Depolar     --     0.0000                 0.0000                 0.0000
 Atom AN      X      Y      Z        X      Y      Z        X      Y      Z
   1   7     0.19  -0.23   0.28    -0.38  -0.36  -0.21     0.03   0.21  -0.15
   2   6    -0.16   0.04   0.00     0.23  -0.05   0.21     0.34  -0.02   0.11
   3   6    -0.51   0.16   0.10    -0.05   0.01   0.18    -0.25  -0.02  -0.16
   4   6    -0.07   0.04  -0.13     0.18   0.21  -0.16    -0.29  -0.16  -0.02
   5   6     0.18   0.05   0.10     0.09   0.16  -0.10     0.12  -0.09   0.13
   6  17     0.23  -0.02  -0.27    -0.00   0.06   0.07     0.00   0.03   0.03
   7   1     0.03  -0.08   0.15    -0.09  -0.12  -0.14    -0.07  -0.13  -0.18
   8   1     0.09  -0.08   0.06    -0.23  -0.11   0.03    -0.13   0.30  -0.12
   9   1     0.10  -0.08   0.06    -0.11  -0.12  -0.13     0.16   0.08   0.14
  10   1    -0.09   0.02   0.02     0.23  -0.08   0.01     0.24  -0.18   0.08
  11   1    -0.00   0.04  -0.10     0.09   0.09   0.19     0.16   0.17   0.17
  12   1    -0.19   0.04   0.18    -0.05  -0.03   0.12    -0.12  -0.07   0.01
  13   1    -0.27   0.11  -0.05    -0.08   0.02   0.01    -0.10   0.06  -0.07
  14   1     0.02  -0.02  -0.15     0.14   0.13  -0.16    -0.16  -0.15   0.05
  15   1     0.01   0.04   0.14    -0.07  -0.02   0.10     0.13   0.12   0.00
  16   1     0.15  -0.01  -0.03     0.09   0.10  -0.12     0.06  -0.15   0.12
                      7                      8                      9
                        a                      a                      a 
 Frequencies --   338.7726               390.1206               450.9002
 Red. masses --     2.5230                 7.3370                 7.4848
 Frc consts  --     0.0000                 0.0000                 0.0000
 IR Inten    --     0.8671                20.4847                 3.4300
 Raman Activ --     0.0000                 0.0000                 0.0000
 Depolar     --     0.0000                 0.0000                 0.0000
 Atom AN      X      Y      Z        X      Y      Z        X      Y      Z
   1   7    -0.03  -0.12  -0.01     0.12   0.30  -0.25    -0.05  -0.07   0.10
   2   6    -0.18  -0.02  -0.12     0.10  -0.21  -0.14     0.06   0.38   0.10
   3   6     0.09   0.02   0.13    -0.18  -0.02   0.38    -0.05   0.29  -0.06
   4   6     0.15   0.03   0.10     0.12  -0.13   0.25     0.29  -0.24   0.04
   5   6    -0.05   0.02  -0.07    -0.07  -0.07  -0.16    -0.14  -0.34  -0.20
   6  17     0.02   0.03   0.01    -0.02  -0.01   0.00     0.00   0.00  -0.00
   7   1    -0.22  -0.44  -0.08     0.10   0.19  -0.11    -0.04  -0.06   0.05
   8   1    -0.16   0.42  -0.21     0.10   0.07  -0.10    -0.08  -0.07   0.10
   9   1     0.44  -0.03   0.31    -0.12   0.15   0.00     0.05  -0.08  -0.08
  10   1    -0.11   0.07  -0.06     0.01  -0.02  -0.05     0.08   0.05   0.04
  11   1    -0.07  -0.07  -0.09     0.01  -0.09  -0.05     0.06   0.20   0.05
  12   1     0.05   0.05   0.04    -0.13  -0.02   0.33    -0.01   0.15   0.12
  13   1     0.03   0.00   0.04    -0.21   0.19  -0.00    -0.14   0.08  -0.09
  14   1     0.08   0.06  -0.00     0.11   0.04  -0.02    -0.02  -0.14   0.14
  15   1    -0.06  -0.08  -0.02    -0.12  -0.18  -0.02     0.02  -0.19  -0.30
  16   1    -0.03   0.09  -0.08    -0.02   0.15  -0.19    -0.27  -0.01   0.05
                     10                     11                     12
                        a                      a                      a 
 Frequencies --   616.3282               829.2150               875.0685
 Red. masses --     5.1634                 3.5047                 7.4056
 Frc consts  --     0.0000                 0.0000                 0.0000
 IR Inten    --     6.4565                44.7494                 8.2928
 Raman Activ --     0.0000                 0.0000                 0.0000
 Depolar     --     0.0000                 0.0000                 0.0000
 Atom AN      X      Y      Z        X      Y      Z        X      Y      Z
   1   7    -0.03   0.00  -0.02    -0.07  -0.09  -0.02    -0.21  -0.01   0.27
   2   6    -0.01  -0.24   0.01    -0.24  -0.18  -0.15     0.10  -0.18  -0.16
   3   6     0.03  -0.10   0.08    -0.14   0.06  -0.06     0.23   0.07  -0.40
   4   6     0.29   0.28  -0.32     0.20   0.09   0.07    -0.09  -0.06   0.26
   5   6    -0.09   0.07   0.16     0.05   0.08   0.10     0.15   0.17  -0.15
   6  17    -0.00   0.00  -0.00     0.00  -0.00  -0.00     0.00  -0.00  -0.00
   7   1     0.01   0.02  -0.05    -0.01   0.10   0.23    -0.06  -0.00   0.08
   8   1     0.01   0.04  -0.04     0.35   0.00  -0.24    -0.03  -0.01   0.06
   9   1    -0.05   0.04   0.07    -0.03   0.06   0.22    -0.06   0.00   0.09
  10   1    -0.08   0.03  -0.03     0.30  -0.36  -0.02    -0.00  -0.10   0.01
  11   1    -0.06  -0.19  -0.04     0.06   0.30   0.24    -0.01  -0.08   0.04
  12   1    -0.08  -0.06   0.24     0.05   0.10  -0.15    -0.06  -0.03   0.20
  13   1    -0.24   0.00  -0.13     0.07  -0.08   0.05    -0.15   0.30  -0.26
  14   1    -0.11  -0.02   0.22     0.04  -0.01   0.02     0.11   0.11  -0.08
  15   1     0.21   0.20  -0.26     0.02  -0.09  -0.11    -0.13  -0.08   0.18
  16   1    -0.24  -0.14   0.36    -0.13   0.14   0.04    -0.17  -0.05   0.21
                     13                     14                     15
                        a                      a                      a 
 Frequencies --   895.2664               903.9161               952.6544
 Red. masses --     4.2112                 3.8976                 5.0424
 Frc consts  --     0.0000                 0.0000                 0.0000
 IR Inten    --     7.4380                28.2478                20.8070
 Raman Activ --     0.0000                 0.0000                 0.0000
 Depolar     --     0.0000                 0.0000                 0.0000
 Atom AN      X      Y      Z        X      Y      Z        X      Y      Z
   1   7    -0.14   0.01   0.15     0.03  -0.12   0.18    -0.12  -0.21   0.17
   2   6     0.06  -0.06  -0.12     0.12  -0.18  -0.01     0.12   0.01  -0.11
   3   6     0.18   0.01  -0.19    -0.19   0.18  -0.18     0.09   0.27   0.20
   4   6     0.06   0.04  -0.06     0.10   0.06   0.04    -0.06  -0.08  -0.11
   5   6    -0.23  -0.12   0.27     0.09   0.04   0.17    -0.15  -0.17  -0.21
   6  17     0.00   0.00  -0.00    -0.00   0.00   0.00    -0.00  -0.00   0.00
   7   1    -0.06  -0.01   0.12     0.15   0.03  -0.36     0.10   0.11  -0.11
   8   1     0.02  -0.02   0.03    -0.25   0.12   0.10     0.09   0.12  -0.14
   9   1     0.01  -0.01   0.03    -0.30   0.09   0.16    -0.30   0.14   0.37
  10   1     0.03  -0.06  -0.01    -0.15  -0.01   0.08     0.09   0.08  -0.12
  11   1    -0.01  -0.02   0.06     0.09  -0.07  -0.24     0.07   0.04  -0.08
  12   1    -0.02  -0.01   0.14    -0.01   0.03  -0.23     0.09   0.17   0.00
  13   1    -0.08   0.20  -0.15     0.11  -0.01   0.05     0.09   0.05   0.09
  14   1    -0.12  -0.03   0.22    -0.03  -0.16  -0.04     0.01   0.09   0.00
  15   1     0.12   0.14  -0.12     0.00  -0.21  -0.17     0.03   0.24   0.11
  16   1     0.41   0.22  -0.52    -0.11   0.29  -0.09     0.17  -0.35   0.03
                     16                     17                     18
                        a                      a                      a 
 Frequencies --   998.5702              1011.2827              1046.2424
 Red. masses --     3.5510                 2.1313                 8.0219
 Frc consts  --     0.0000                 0.0000                 0.0000
 IR Inten    --    14.6421                10.8853                23.8667
 Raman Activ --     0.0000                 0.0000                 0.0000
 Depolar     --     0.0000                 0.0000                 0.0000
 Atom AN      X      Y      Z        X      Y      Z        X      Y      Z
   1   7    -0.22   0.00   0.05    -0.08  -0.03  -0.00     0.13  -0.25  -0.30
   2   6     0.28   0.07  -0.02     0.11   0.05   0.01    -0.17   0.12   0.52
   3   6     0.01   0.08   0.11     0.00   0.01   0.05     0.15   0.08  -0.27
   4   6    -0.19  -0.02  -0.10     0.04   0.07  -0.20    -0.10  -0.06   0.11
   5   6     0.08  -0.06   0.11     0.13   0.05  -0.09     0.01   0.03   0.05
   6  17     0.00  -0.00  -0.00    -0.00  -0.00  -0.00    -0.00  -0.00   0.00
   7   1    -0.10   0.03   0.25    -0.02   0.03   0.09     0.12   0.08  -0.10
   8   1     0.20  -0.02  -0.12     0.11   0.00  -0.09     0.22   0.06  -0.27
   9   1     0.06   0.00   0.10    -0.01   0.02   0.09    -0.12   0.08   0.19
  10   1     0.06   0.28  -0.20     0.04   0.14  -0.10    -0.06   0.18   0.03
  11   1    -0.10  -0.25   0.07    -0.04  -0.10   0.02    -0.11  -0.12   0.08
  12   1    -0.11  -0.25  -0.08    -0.03  -0.07  -0.03    -0.01   0.03   0.11
  13   1     0.13   0.13   0.10    -0.01  -0.02   0.01    -0.19  -0.07  -0.19
  14   1     0.05  -0.14  -0.37    -0.39  -0.33   0.43     0.03   0.02  -0.05
  15   1     0.12  -0.12  -0.30    -0.33  -0.30   0.40     0.01  -0.02  -0.03
  16   1    -0.13   0.13   0.02    -0.03   0.07  -0.02     0.03   0.09  -0.08
                     19                     20                     21
                        a                      a                      a 
 Frequencies --  1092.6123              1165.0234              1213.0203
 Red. masses --     6.9764                 7.2007                 4.3013
 Frc consts  --     0.0000                 0.0000                 0.0000
 IR Inten    --    18.1277                21.2881                13.1360
 Raman Activ --     0.0000                 0.0000                 0.0000
 Depolar     --     0.0000                 0.0000                 0.0000
 Atom AN      X      Y      Z        X      Y      Z        X      Y      Z
   1   7    -0.10  -0.08   0.13    -0.19   0.07  -0.07     0.08  -0.13  -0.02
   2   6     0.15   0.40  -0.27     0.31  -0.13   0.12    -0.13   0.27   0.01
   3   6    -0.04  -0.46  -0.02    -0.37   0.12  -0.23    -0.14  -0.24  -0.10
   4   6    -0.01  -0.02   0.12     0.31  -0.01   0.26     0.27   0.06   0.09
   5   6     0.04   0.09   0.09    -0.12   0.00  -0.08    -0.06  -0.02  -0.06
   6  17    -0.00  -0.00   0.00     0.00  -0.00  -0.00    -0.00   0.00   0.00
   7   1     0.03   0.05  -0.02    -0.10   0.01   0.19     0.07   0.03  -0.07
   8   1     0.01   0.06  -0.04     0.13  -0.07  -0.07    -0.01   0.06  -0.05
   9   1    -0.13   0.06   0.16     0.14  -0.03  -0.01    -0.11   0.03   0.07
  10   1     0.07   0.16  -0.13    -0.12   0.11   0.03    -0.03   0.01   0.05
  11   1     0.11   0.19  -0.16     0.02  -0.23  -0.13    -0.06   0.06   0.08
  12   1    -0.02  -0.09   0.08    -0.05  -0.00  -0.24    -0.24  -0.49  -0.13
  13   1    -0.24  -0.40  -0.12    -0.01  -0.25   0.01     0.24   0.48   0.09
  14   1     0.07   0.13   0.04     0.12   0.17   0.16     0.05   0.07   0.12
  15   1     0.02  -0.01  -0.03     0.01   0.17   0.10     0.01   0.08   0.04
  16   1    -0.03   0.12  -0.01     0.09  -0.11  -0.01     0.04  -0.11   0.03
                     22                     23                     24
                        a                      a                      a 
 Frequencies --  1237.7499              1273.4095              1323.9654
 Red. masses --     3.0004                 3.1547                 3.7335
 Frc consts  --     0.0000                 0.0000                 0.0000
 IR Inten    --    15.6557                 7.4243                 8.1013
 Raman Activ --     0.0000                 0.0000                 0.0000
 Depolar     --     0.0000                 0.0000                 0.0000
 Atom AN      X      Y      Z        X      Y      Z        X      Y      Z
   1   7     0.22   0.02   0.14     0.04   0.02   0.04     0.06  -0.11  -0.10
   2   6    -0.11  -0.04  -0.14    -0.01  -0.06   0.05     0.16   0.22  -0.27
   3   6    -0.08   0.12  -0.07    -0.14  -0.02  -0.05     0.04   0.18   0.12
   4   6     0.11  -0.01   0.13    -0.19  -0.06  -0.19    -0.10   0.01  -0.05
   5   6    -0.08   0.03  -0.04     0.23  -0.16   0.09     0.06  -0.06   0.02
   6  17     0.00   0.00   0.00    -0.00  -0.00   0.00    -0.00  -0.00  -0.00
   7   1     0.06  -0.06  -0.13     0.01  -0.02  -0.03    -0.00   0.01   0.12
   8   1    -0.19   0.06   0.14    -0.03   0.01   0.03    -0.08   0.01   0.00
   9   1    -0.10   0.01  -0.07    -0.01  -0.00  -0.03    -0.10   0.06   0.12
  10   1     0.32   0.13  -0.37     0.11   0.14  -0.18    -0.30  -0.33   0.44
  11   1    -0.29  -0.23   0.47    -0.05  -0.06   0.09    -0.22  -0.22   0.31
  12   1    -0.05  -0.06  -0.09     0.05   0.15  -0.03    -0.07  -0.12  -0.01
  13   1    -0.11  -0.24  -0.05     0.10   0.14   0.06    -0.06  -0.22   0.01
  14   1     0.02  -0.10  -0.04     0.07   0.67   0.38     0.00   0.16   0.08
  15   1    -0.00   0.09   0.04     0.02  -0.20  -0.08    -0.00  -0.12  -0.06
  16   1     0.04  -0.04  -0.02    -0.08   0.10   0.01     0.03  -0.04   0.00
                     25                     26                     27
                        a                      a                      a 
 Frequencies --  1345.5918              1401.5485              1407.7688
 Red. masses --     3.9229                 2.6887                 1.7021
 Frc consts  --     0.0000                 0.0000                 0.0000
 IR Inten    --     1.5296               207.4376                89.0905
 Raman Activ --     0.0000                 0.0000                 0.0000
 Depolar     --     0.0000                 0.0000                 0.0000
 Atom AN      X      Y      Z        X      Y      Z        X      Y      Z
   1   7    -0.01   0.07   0.02     0.13   0.07  -0.32    -0.19   0.01   0.01
   2   6    -0.18  -0.17   0.05    -0.04  -0.06   0.04    -0.02   0.06  -0.05
   3   6     0.22   0.36   0.06     0.01   0.01  -0.02    -0.02  -0.06   0.01
   4   6    -0.07   0.07   0.03     0.01  -0.04  -0.01    -0.00   0.08   0.04
   5   6     0.04  -0.08  -0.01     0.00  -0.02  -0.01    -0.01   0.03   0.01
   6  17    -0.00   0.00   0.00     0.00   0.00  -0.00    -0.00  -0.00   0.00
   7   1    -0.02  -0.03  -0.03    -0.13  -0.09   0.29     0.25   0.27  -0.43
   8   1     0.01  -0.03   0.03    -0.29  -0.35   0.39     0.09  -0.34   0.16
   9   1     0.03  -0.01  -0.04    -0.04   0.24   0.54     0.53  -0.04   0.30
  10   1     0.07   0.00  -0.09     0.02   0.09  -0.09     0.02  -0.03   0.00
  11   1     0.16   0.22  -0.21     0.05   0.09  -0.03    -0.07  -0.06   0.09
  12   1    -0.26  -0.54  -0.08    -0.02  -0.03   0.03     0.04   0.05  -0.05
  13   1    -0.13  -0.25  -0.07     0.04   0.01   0.02    -0.04   0.04  -0.02
  14   1     0.00   0.15   0.09     0.01  -0.00  -0.00    -0.01  -0.01  -0.01
  15   1    -0.03  -0.22  -0.11     0.02   0.10   0.06    -0.03  -0.16  -0.11
  16   1     0.15  -0.17  -0.01    -0.07   0.08  -0.01     0.13  -0.15   0.02
                     28                     29                     30
                        a                      a                      a 
 Frequencies --  1410.9030              1438.4462              1477.9898
 Red. masses --     2.6172                 1.6397                 1.8685
 Frc consts  --     0.0000                 0.0000                 0.0000
 IR Inten    --    27.7801                78.1793                 8.1585
 Raman Activ --     0.0000                 0.0000                 0.0000
 Depolar     --     0.0000                 0.0000                 0.0000
 Atom AN      X      Y      Z        X      Y      Z        X      Y      Z
   1   7    -0.09  -0.01   0.06    -0.01  -0.19  -0.08    -0.01  -0.00   0.00
   2   6    -0.04  -0.00  -0.04    -0.02  -0.07   0.02    -0.08   0.19   0.08
   3   6     0.09   0.18   0.07     0.01   0.00   0.01    -0.04   0.03  -0.16
   4   6    -0.01  -0.23  -0.11    -0.00   0.00   0.00    -0.00   0.02  -0.00
   5   6     0.05  -0.13  -0.03     0.00   0.00   0.00    -0.00   0.01   0.00
   6  17    -0.00  -0.00   0.00    -0.00  -0.00  -0.00    -0.00  -0.00  -0.00
   7   1     0.11   0.12  -0.19     0.24   0.58   0.39     0.01   0.05   0.04
   8   1     0.07  -0.04  -0.01    -0.44   0.36  -0.00    -0.05   0.02   0.02
   9   1     0.20  -0.06  -0.00     0.23  -0.10  -0.04     0.02   0.00   0.01
  10   1    -0.01  -0.05   0.03     0.01   0.04  -0.05     0.43  -0.33   0.00
  11   1    -0.00   0.02   0.00     0.04   0.04  -0.02    -0.11  -0.36  -0.38
  12   1    -0.11  -0.21   0.01     0.02   0.01  -0.05    -0.12  -0.01   0.41
  13   1     0.01  -0.09   0.02    -0.04   0.02  -0.03     0.30  -0.16   0.19
  14   1     0.02   0.06   0.05    -0.00  -0.00  -0.00    -0.01  -0.00   0.01
  15   1     0.10   0.47   0.31    -0.00  -0.01  -0.01    -0.01  -0.03  -0.01
  16   1    -0.38   0.44  -0.06     0.01  -0.02   0.00     0.02  -0.02   0.00
                     31                     32                     33
                        a                      a                      a 
 Frequencies --  1482.6628              1721.7753              2922.5831
 Red. masses --     1.9737                11.2931                 1.8634
 Frc consts  --     0.0000                 0.0000                 0.0000
 IR Inten    --     6.4265                10.8642                21.2157
 Raman Activ --     0.0000                 0.0000                 0.0000
 Depolar     --     0.0000                 0.0000                 0.0000
 Atom AN      X      Y      Z        X      Y      Z        X      Y      Z
   1   7    -0.02  -0.02   0.02    -0.00   0.00  -0.00     0.00  -0.00  -0.00
   2   6     0.05  -0.14  -0.07     0.00   0.01   0.01     0.00  -0.01   0.00
   3   6    -0.06   0.04  -0.22     0.02   0.08   0.06    -0.20   0.05   0.18
   4   6     0.01   0.02   0.01     0.12  -0.66  -0.25    -0.00   0.01   0.01
   5   6    -0.02   0.03   0.00    -0.17   0.59   0.17     0.00  -0.00   0.00
   6  17    -0.00  -0.00   0.00    -0.00   0.00   0.00    -0.00   0.00   0.00
   7   1     0.05   0.05  -0.05    -0.00  -0.00  -0.00    -0.01   0.00  -0.00
   8   1     0.01   0.02  -0.02     0.00  -0.00   0.00     0.00   0.00   0.00
   9   1     0.05  -0.03  -0.02     0.00   0.00   0.00     0.00  -0.00   0.00
  10   1    -0.30   0.26  -0.03     0.01  -0.00   0.00     0.01   0.01   0.02
  11   1     0.08   0.28   0.29    -0.00  -0.00  -0.00    -0.05   0.03  -0.02
  12   1    -0.16   0.00   0.53    -0.02  -0.05  -0.03     0.25  -0.14   0.10
  13   1     0.39  -0.23   0.24     0.03   0.03   0.02     0.47  -0.07  -0.77
  14   1    -0.01  -0.03   0.00     0.09   0.03   0.08    -0.01   0.00  -0.00
  15   1    -0.02  -0.04  -0.02    -0.10  -0.05  -0.10     0.00  -0.00   0.00
  16   1     0.04  -0.04   0.00     0.12  -0.02   0.08    -0.00  -0.00  -0.00
                     34                     35                     36
                        a                      a                      a 
 Frequencies --  2945.6906              2967.5637              2973.7239
 Red. masses --     1.9542                 1.5984                 1.5426
 Frc consts  --     0.0000                 0.0000                 0.0000
 IR Inten    --     5.8789                31.5979                32.8438
 Raman Activ --     0.0000                 0.0000                 0.0000
 Depolar     --     0.0000                 0.0000                 0.0000
 Atom AN      X      Y      Z        X      Y      Z        X      Y      Z
   1   7    -0.00   0.00  -0.00    -0.00   0.00  -0.00    -0.00   0.01  -0.00
   2   6     0.23   0.02   0.17     0.02   0.06   0.06     0.09  -0.17  -0.06
   3   6    -0.02   0.02  -0.02     0.15  -0.10   0.12     0.07  -0.04   0.03
   4   6    -0.00   0.00  -0.00    -0.00   0.00   0.00    -0.00   0.00   0.00
   5   6     0.00   0.00   0.00    -0.00  -0.00  -0.00    -0.00   0.00  -0.00
   6  17     0.00  -0.00  -0.00     0.00  -0.00  -0.00     0.00  -0.00   0.00
   7   1     0.02  -0.01   0.01    -0.01   0.00   0.00     0.04  -0.02   0.01
   8   1     0.01   0.01   0.01     0.01   0.01   0.01    -0.01  -0.01  -0.01
   9   1    -0.00   0.00  -0.00    -0.00  -0.01   0.00     0.00  -0.00  -0.00
  10   1    -0.29  -0.38  -0.48    -0.16  -0.19  -0.25     0.28   0.30   0.42
  11   1    -0.54   0.31  -0.14     0.10  -0.04   0.04    -0.61   0.31  -0.19
  12   1     0.16  -0.09   0.04    -0.72   0.39  -0.18    -0.27   0.15  -0.07
  13   1    -0.05   0.01   0.07     0.19  -0.04  -0.25     0.04  -0.01  -0.04
  14   1     0.00  -0.00   0.00     0.02  -0.01   0.01     0.01  -0.01   0.01
  15   1    -0.00  -0.00  -0.00     0.01  -0.00   0.00     0.00  -0.00   0.00
  16   1    -0.00   0.00   0.00     0.00   0.00   0.00    -0.00  -0.00  -0.00
                     37                     38                     39
                        a                      a                      a 
 Frequencies --  3089.1840              3124.8696              3137.5960
 Red. masses --     1.8065                 1.9298                 1.5477
 Frc consts  --     0.0000                 0.0000                 0.0000
 IR Inten    --    62.0756               539.0837                45.6031
 Raman Activ --     0.0000                 0.0000                 0.0000
 Depolar     --     0.0000                 0.0000                 0.0000
 Atom AN      X      Y      Z        X      Y      Z        X      Y      Z
   1   7    -0.00   0.00  -0.00     0.21  -0.13   0.09     0.00  -0.00   0.00
   2   6     0.00  -0.00   0.00     0.01  -0.01  -0.00     0.00  -0.00  -0.00
   3   6     0.01  -0.01   0.00     0.00  -0.00  -0.00    -0.00   0.00   0.00
   4   6     0.22  -0.12   0.10     0.00  -0.00   0.00    -0.02   0.02  -0.01
   5   6    -0.02  -0.01  -0.02    -0.01   0.00  -0.00     0.01  -0.20  -0.09
   6  17     0.00   0.00   0.00    -0.00   0.00  -0.00    -0.00  -0.00   0.00
   7   1     0.01  -0.01   0.00    -0.80   0.46  -0.22    -0.01   0.01  -0.00
   8   1     0.00   0.00  -0.00    -0.03  -0.07  -0.07     0.00  -0.00  -0.00
   9   1     0.00   0.00  -0.00     0.04   0.09  -0.02    -0.00  -0.00   0.00
  10   1    -0.00  -0.00  -0.00     0.00   0.00   0.00     0.00   0.00   0.00
  11   1    -0.00   0.00  -0.00    -0.04   0.02  -0.01    -0.00   0.00  -0.00
  12   1    -0.02   0.01  -0.00    -0.01   0.00  -0.00     0.00  -0.00   0.00
  13   1     0.00  -0.00  -0.00    -0.00   0.00   0.01     0.00  -0.00  -0.00
  14   1    -0.79   0.38  -0.38    -0.01   0.00  -0.01     0.06  -0.03   0.03
  15   1     0.02  -0.02   0.01     0.02  -0.01   0.01    -0.46   0.21  -0.22
  16   1     0.06   0.06   0.07     0.00   0.00   0.00     0.43   0.43   0.52
                     40                     41                     42
                        a                      a                      a 
 Frequencies --  3163.1869              3217.9714              3238.1209
 Red. masses --     2.0783                 1.9902                 1.4974
 Frc consts  --     0.0000                 0.0000                 0.0000
 IR Inten    --    93.3637               168.7006                71.2422
 Raman Activ --     0.0000                 0.0000                 0.0000
 Depolar     --     0.0000                 0.0000                 0.0000
 Atom AN      X      Y      Z        X      Y      Z        X      Y      Z
   1   7    -0.01   0.00  -0.00     0.11   0.25   0.01     0.04   0.03   0.19
   2   6    -0.00  -0.00  -0.00     0.00   0.00   0.00    -0.00   0.00   0.01
   3   6    -0.00   0.00   0.00    -0.00  -0.00  -0.00     0.00   0.00   0.00
   4   6    -0.03   0.01  -0.02     0.00  -0.00   0.00    -0.00  -0.00  -0.00
   5   6    -0.25   0.01  -0.18    -0.00   0.00  -0.00    -0.00  -0.00  -0.00
   6  17    -0.00  -0.00  -0.00    -0.00  -0.00  -0.00    -0.00  -0.00  -0.00
   7   1     0.01  -0.01   0.00    -0.03   0.05  -0.01     0.13  -0.07   0.05
   8   1     0.00   0.01   0.01    -0.19  -0.19  -0.32    -0.40  -0.44  -0.63
   9   1    -0.00  -0.00   0.00    -0.20  -0.79   0.29     0.11   0.39  -0.12
  10   1     0.00   0.00   0.00    -0.00  -0.01  -0.01    -0.01  -0.01  -0.02
  11   1     0.00  -0.00   0.00    -0.00  -0.00   0.00     0.01  -0.00   0.00
  12   1     0.01  -0.00   0.00     0.00  -0.00   0.00    -0.00   0.00   0.00
  13   1    -0.00  -0.00  -0.00    -0.00   0.00   0.00     0.00  -0.00  -0.01
  14   1     0.07  -0.03   0.04    -0.00   0.00  -0.00     0.00  -0.00   0.00
  15   1     0.65  -0.34   0.30     0.01  -0.00   0.00     0.00  -0.00   0.00
  16   1     0.26   0.30   0.34    -0.00  -0.00  -0.00     0.00   0.00   0.00
