      -----------------------------------------------------------      
     |                   =====================                   |     
     |                           x T B                           |     
     |                   =====================                   |     
     |                         S. Grimme                         |     
     |          Mulliken Center for Theoretical Chemistry        |     
     |                    University of Bonn                     |     
      -----------------------------------------------------------      

   * xtb version 6.5.1 (fef0646) compiled by 'conda@b96dff2e9fd6' on 2023-01-04

   xtb is free software: you can redistribute it and/or modify it under
   the terms of the GNU Lesser General Public License as published by
   the Free Software Foundation, either version 3 of the License, or
   (at your option) any later version.
   
   xtb is distributed in the hope that it will be useful,
   but WITHOUT ANY WARRANTY; without even the implied warranty of
   MERCHANTABILITY or FITNESS FOR A PARTICULAR PURPOSE.  See the
   GNU Lesser General Public License for more details.
   
   Cite this work as:
   * C. Bannwarth, E. Caldeweyher, S. Ehlert, A. Hansen, P. Pracht,
     J. Seibert, S. Spicher, S. Grimme, WIREs Comput. Mol. Sci., 2020, 11,
     e01493. DOI: 10.1002/wcms.1493
   
   for GFN2-xTB:
   * C. Bannwarth, S. Ehlert and S. Grimme., J. Chem. Theory Comput., 2019,
     15, 1652-1671. DOI: 10.1021/acs.jctc.8b01176
   for GFN1-xTB:
   * S. Grimme, C. Bannwarth, P. Shushkov, J. Chem. Theory Comput., 2017,
     13, 1989-2009. DOI: 10.1021/acs.jctc.7b00118
   for GFN0-xTB:
   * P. Pracht, E. Caldeweyher, S. Ehlert, S. Grimme, ChemRxiv, 2019, preprint.
     DOI: 10.26434/chemrxiv.8326202.v1
   for GFN-FF:
   * S. Spicher and S. Grimme, Angew. Chem. Int. Ed., 2020, 59, 15665-15673.
     DOI: 10.1002/anie.202004239
   
   for ALPB and GBSA implicit solvation:
   * S. Ehlert, M. Stahn, S. Spicher, S. Grimme, J. Chem. Theory Comput.,
     2021, 17, 4250-4261. DOI: 10.1021/acs.jctc.1c00471
   
   for DFT-D4:
   * E. Caldeweyher, C. Bannwarth and S. Grimme, J. Chem. Phys., 2017,
     147, 034112. DOI: 10.1063/1.4993215
   * E. Caldeweyher, S. Ehlert, A. Hansen, H. Neugebauer, S. Spicher,
     C. Bannwarth and S. Grimme, J. Chem. Phys., 2019, 150, 154122.
     DOI: 10.1063/1.5090222
   * E. Caldeweyher, J.-M. Mewes, S. Ehlert and S. Grimme, Phys. Chem. Chem. Phys.
     2020, 22, 8499-8512. DOI: 10.1039/D0CP00502A
   
   for sTDA-xTB:
   * S. Grimme and C. Bannwarth, J. Chem. Phys., 2016, 145, 054103.
     DOI: 10.1063/1.4959605
   
   in the mass-spec context:
   * V. Asgeirsson, C. Bauer and S. Grimme, Chem. Sci., 2017, 8, 4879.
     DOI: 10.1039/c7sc00601b
   * J. Koopman and S. Grimme, ACS Omega 2019, 4, 12, 15120-15133.
     DOI: 10.1021/acsomega.9b02011
   
   for metadynamics refer to:
   * S. Grimme, J. Chem. Theory Comput., 2019, 155, 2847-2862
     DOI: 10.1021/acs.jctc.9b00143
   
   for SPH calculations refer to:
   * S. Spicher and S. Grimme, J. Chem. Theory Comput., 2021, 17, 1701-1714
     DOI: 10.1021/acs.jctc.0c01306
   
   with help from (in alphabetical order)
   P. Atkinson, C. Bannwarth, F. Bohle, G. Brandenburg, E. Caldeweyher
   M. Checinski, S. Dohm, S. Ehlert, S. Ehrlich, I. Gerasimov, C. Hölzer
   A. Katbashev, J. Koopman, C. Lavigne, S. Lehtola, F. März, M. Müller,
   F. Musil, H. Neugebauer, J. Pisarek, C. Plett, P. Pracht, F. Pultar,
   J. Seibert, P. Shushkov, S. Spicher, M. Stahn, M. Steiner, T. Strunk,
   J. Stückrath, T. Rose, and J. Unsleber
   
 * started run on 2023/01/23 at 13:48:03.928     

           -------------------------------------------------
          |                Calculation Setup                |
           -------------------------------------------------

          program call               : xtb init.xyz --opt -c 0 -u 0 -P 16
          hostname                   : gpg-woodward
          coordinate file            : init.xyz
          omp threads                :                    16

   ID    Z sym.   atoms
    1    7 N      1
    2    6 C      2-5
    3   17 Cl     6
    4    1 H      7-14

molecular fragmentation (1/2 indicates fragments):
11111211111111
# atoms in fragment 1/2:    13     1
 fragment masses (1/2) :       70.11       35.45
CMA distance (Bohr)    :   7.616
constraining FC (au)   :  0.0500

           -------------------------------------------------
          |                 G F N 2 - x T B                 |
           -------------------------------------------------

        Reference                      10.1021/acs.jctc.8b01176
      * Hamiltonian:
        H0-scaling (s, p, d)           1.850000    2.230000    2.230000
        zeta-weighting                 0.500000
      * Dispersion:
        s8                             2.700000
        a1                             0.520000
        a2                             5.000000
        s9                             5.000000
      * Repulsion:
        kExp                           1.500000    1.000000
        rExp                           1.000000
      * Coulomb:
        alpha                          2.000000
        third order                    shell-resolved
        anisotropic                    true
        a3                             3.000000
        a5                             4.000000
        cn-shift                       1.200000
        cn-exp                         4.000000
        max-rad                        5.000000


          ...................................................
          :                      SETUP                      :
          :.................................................:
          :  # basis functions                  38          :
          :  # atomic orbitals                  37          :
          :  # shells                           21          :
          :  # electrons                        36          :
          :  max. iterations                   250          :
          :  Hamiltonian                  GFN2-xTB          :
          :  restarted?                      false          :
          :  GBSA solvation                  false          :
          :  PC potential                    false          :
          :  electronic temp.          300.0000000     K    :
          :  accuracy                    1.0000000          :
          :  -> integral cutoff          0.2500000E+02      :
          :  -> integral neglect         0.1000000E-07      :
          :  -> SCF convergence          0.1000000E-05 Eh   :
          :  -> wf. convergence          0.1000000E-03 e    :
          :  Broyden damping             0.4000000          :
          ...................................................

 iter      E             dE          RMSdq      gap      omega  full diag
   1    -20.0897178 -0.200897E+02  0.685E+00    5.65       0.0  T
   2    -20.1909485 -0.101231E+00  0.408E+00    4.65       1.0  T
   3    -20.1086384  0.823100E-01  0.300E+00    3.73       1.0  T
   4    -20.1547397 -0.461012E-01  0.210E+00    3.58       1.0  T
   5    -20.2077355 -0.529959E-01  0.403E-01    3.39       1.0  T
   6    -20.2081689 -0.433329E-03  0.263E-01    3.44       1.0  T
   7    -20.2084206 -0.251726E-03  0.119E-01    3.48       1.0  T
   8    -20.2084879 -0.672875E-04  0.486E-02    3.46       1.0  T
   9    -20.2084964 -0.849293E-05  0.189E-02    3.45       1.4  T
  10    -20.2084971 -0.780064E-06  0.406E-03    3.46       6.6  T
  11    -20.2084972 -0.322103E-07  0.162E-03    3.45      16.5  T
  12    -20.2084972 -0.334022E-08  0.628E-04    3.45      42.6  T
  13    -20.2084972 -0.828436E-09  0.429E-04    3.45      62.4  T

   *** convergence criteria satisfied after 13 iterations ***

         #    Occupation            Energy/Eh            Energy/eV
      -------------------------------------------------------------
         1        2.0000           -0.9459444             -25.7405
       ...           ...                  ...                  ...
        12        2.0000           -0.4936245             -13.4322
        13        2.0000           -0.4895400             -13.3211
        14        2.0000           -0.4192067             -11.4072
        15        2.0000           -0.4155742             -11.3084
        16        2.0000           -0.3451845              -9.3929
        17        2.0000           -0.3399441              -9.2503
        18        2.0000           -0.3387995              -9.2192 (HOMO)
        19                         -0.2118633              -5.7651 (LUMO)
        20                         -0.2071918              -5.6380
        21                         -0.0947178              -2.5774
        22                         -0.0268849              -0.7316
        23                          0.0446248               1.2143
       ...                                ...                  ...
        37                          0.9054121              24.6375
      -------------------------------------------------------------
                  HL-Gap            0.1269361 Eh            3.4541 eV
             Fermi-level           -0.2753314 Eh           -7.4921 eV

 SCC (total)                   0 d,  0 h,  0 min,  0.017 sec
 SCC setup                      ...        0 min,  0.000 sec (  1.095%)
 Dispersion                     ...        0 min,  0.000 sec (  2.007%)
 classical contributions        ...        0 min,  0.000 sec (  0.360%)
 integral evaluation            ...        0 min,  0.001 sec (  5.535%)
 iterations                     ...        0 min,  0.013 sec ( 79.202%)
 molecular gradient             ...        0 min,  0.002 sec (  9.281%)
 printout                       ...        0 min,  0.000 sec (  0.998%)

         :::::::::::::::::::::::::::::::::::::::::::::::::::::
         ::                     SUMMARY                     ::
         :::::::::::::::::::::::::::::::::::::::::::::::::::::
         :: total energy             -19.979981795809 Eh    ::
         :: gradient norm              0.219386908639 Eh/a0 ::
         :: HOMO-LUMO gap              3.454108293960 eV    ::
         ::.................................................::
         :: SCC energy               -20.208497178589 Eh    ::
         :: -> isotropic ES            0.100559976353 Eh    ::
         :: -> anisotropic ES         -0.026367651532 Eh    ::
         :: -> anisotropic XC          0.007348929785 Eh    ::
         :: -> dispersion             -0.007323504982 Eh    ::
         :: repulsion energy           0.228520299739 Eh    ::
         :: add. restraining           0.000000000000 Eh    ::
         :: total charge               0.000000000000 e     ::
         :::::::::::::::::::::::::::::::::::::::::::::::::::::

      ----------------------------------------------------------- 
     |                   =====================                   |
     |                        A N C O P T                        |
     |                   =====================                   |
     |               Approximate Normal Coordinate               |
     |                Rational Function Optimizer                |
      ----------------------------------------------------------- 

          ...................................................
          :                      SETUP                      :
          :.................................................:
          :   optimization level            normal          :
          :   max. optcycles                   200          :
          :   ANC micro-cycles                  20          :
          :   degrees of freedom                36          :
          :.................................................:
          :   RF solver                   davidson          :
          :   write xtbopt.log                true          :
          :   linear?                        false          :
          :   energy convergence         0.5000000E-05 Eh   :
          :   grad. convergence          0.1000000E-02 Eh/α :
          :   maximium RF displ.         1.0000000          :
          :   Hlow (freq-cutoff)         0.1000000E-01      :
          :   Hmax (freq-cutoff)         5.0000000          :
          :   S6 in model hess.         20.0000000          :
          ...................................................

generating ANC from model Hessian ...
Using Lindh-Hessian (1995)
 Shifting diagonal of input Hessian by    1.1455623065747780E-002
 Lowest  eigenvalues of input Hessian
    0.010000    0.011424    0.000000    0.000000    0.000000    0.000000
    0.000000    0.000000    0.012484    0.013066    0.015807    0.019844
    0.024114    0.030791    0.031490    0.053673    0.068336    0.071219
 Highest eigenvalues
    1.136004    1.204498    1.257819    1.461175    1.572504    2.042230


........................................................................
.............................. CYCLE    1 ..............................
........................................................................
   1    -20.2084972 -0.202085E+02  0.164E-04    3.45       0.0  T
   2    -20.2084972  0.159517E-11  0.129E-04    3.45     206.7  T
   3    -20.2084972  0.110351E-09  0.144E-04    3.45     186.2  T
     SCC iter.                  ...        0 min,  0.003 sec
     gradient                   ...        0 min,  0.001 sec
 * total energy  :   -19.9799818 Eh     change       -0.7264589E-09 Eh
   gradient norm :     0.2193874 Eh/α   predicted     0.0000000E+00 (-100.00%)
   displ. norm   :     0.3855669 α      lambda       -0.4784709E-01
   maximum displ.:     0.1267041 α      in ANC's #16, #7, #8, ...

........................................................................
.............................. CYCLE    2 ..............................
........................................................................
   1    -20.2968245 -0.202968E+02  0.549E-01    4.68       0.0  T
   2    -20.2969652 -0.140719E-03  0.336E-01    4.67       1.0  T
   3    -20.2962839  0.681338E-03  0.273E-01    4.68       1.0  T
   4    -20.2971090 -0.825147E-03  0.414E-02    4.70       1.0  T
   5    -20.2971232 -0.141631E-04  0.118E-02    4.70       2.3  T
   6    -20.2971236 -0.460081E-06  0.604E-03    4.70       4.4  T
   7    -20.2971237 -0.793371E-07  0.326E-03    4.70       8.2  T
   8    -20.2971237 -0.325181E-07  0.213E-03    4.70      12.5  T
   9    -20.2971238 -0.226022E-07  0.747E-04    4.70      35.8  T
  10    -20.2971238 -0.190574E-08  0.144E-04    4.70     186.1  T
     SCC iter.                  ...        0 min,  0.009 sec
     gradient                   ...        0 min,  0.001 sec
 * total energy  :   -20.0067546 Eh     change       -0.2677282E-01 Eh
   gradient norm :     0.0504623 Eh/α   predicted    -0.2748006E-01 (   2.64%)
   displ. norm   :     0.3707797 α      lambda       -0.5377428E-02
   maximum displ.:     0.2756341 α      in ANC's #1, #9, #7, ...

........................................................................
.............................. CYCLE    3 ..............................
........................................................................
   1    -20.3058368 -0.203058E+02  0.205E-01    4.68       0.0  T
   2    -20.3058478 -0.109800E-04  0.139E-01    4.72       1.0  T
   3    -20.3057894  0.584592E-04  0.106E-01    4.74       1.0  T
   4    -20.3059020 -0.112623E-03  0.201E-02    4.76       1.3  T
   5    -20.3059036 -0.161412E-05  0.983E-03    4.76       2.7  T
   6    -20.3059038 -0.234401E-06  0.635E-03    4.76       4.2  T
   7    -20.3059040 -0.145798E-06  0.344E-03    4.76       7.8  T
   8    -20.3059040 -0.508173E-07  0.799E-04    4.76      33.5  T
   9    -20.3059040 -0.171080E-08  0.280E-04    4.76      95.6  T
     SCC iter.                  ...        0 min,  0.008 sec
     gradient                   ...        0 min,  0.001 sec
 * total energy  :   -20.0113821 Eh     change       -0.4627453E-02 Eh
   gradient norm :     0.0342193 Eh/α   predicted    -0.3058351E-02 ( -33.91%)
   displ. norm   :     0.7644004 α      lambda       -0.1121703E-01
   maximum displ.:     0.3952211 α      in ANC's #1, #9, #8, ...

........................................................................
.............................. CYCLE    4 ..............................
........................................................................
   1    -20.3046577 -0.203047E+02  0.715E-01    4.78       0.0  T
   2    -20.3058773 -0.121964E-02  0.442E-01    5.04       1.0  T
   3    -20.3052900  0.587276E-03  0.352E-01    5.20       1.0  T
   4    -20.3063233 -0.103332E-02  0.155E-01    5.31       1.0  T
   5    -20.3064491 -0.125795E-03  0.814E-02    5.35       1.0  T
   6    -20.3064750 -0.258531E-04  0.469E-02    5.34       1.0  T
   7    -20.3064870 -0.120106E-04  0.223E-02    5.34       1.2  T
   8    -20.3064900 -0.299484E-05  0.465E-03    5.34       5.8  T
   9    -20.3064901 -0.937292E-07  0.186E-03    5.34      14.4  T
  10    -20.3064901 -0.815549E-08  0.134E-03    5.34      20.0  T
  11    -20.3064901 -0.761785E-08  0.661E-04    5.34      40.4  T
  12    -20.3064901 -0.187459E-08  0.186E-04    5.34     143.9  T
     SCC iter.                  ...        0 min,  0.011 sec
     gradient                   ...        0 min,  0.001 sec
 * total energy  :   -20.0158614 Eh     change       -0.4479304E-02 Eh
   gradient norm :     0.0934263 Eh/α   predicted    -0.8885593E-02 (  98.37%)
   displ. norm   :     0.5367083 α      lambda       -0.1044664E-01
   maximum displ.:     0.5022891 α      in ANC's #1, #6, #4, ...

........................................................................
.............................. CYCLE    5 ..............................
........................................................................
   1    -20.3125632 -0.203126E+02  0.352E-01    5.29       0.0  T
   2    -20.3126422 -0.789838E-04  0.219E-01    5.25       1.0  T
   3    -20.3124089  0.233324E-03  0.172E-01    5.25       1.0  T
   4    -20.3127186 -0.309702E-03  0.601E-02    5.24       1.0  T
   5    -20.3127322 -0.135777E-04  0.388E-02    5.24       1.0  T
   6    -20.3127392 -0.701740E-05  0.230E-02    5.25       1.2  T
   7    -20.3127421 -0.288010E-05  0.740E-03    5.25       3.6  T
   8    -20.3127423 -0.227557E-06  0.232E-03    5.25      11.5  T
   9    -20.3127423 -0.159483E-07  0.158E-03    5.25      16.9  T
  10    -20.3127423 -0.964165E-08  0.100E-03    5.25      26.7  T
  11    -20.3127423 -0.512271E-08  0.354E-04    5.25      75.4  T
     SCC iter.                  ...        0 min,  0.010 sec
     gradient                   ...        0 min,  0.001 sec
 * total energy  :   -20.0200435 Eh     change       -0.4182152E-02 Eh
   gradient norm :     0.0640484 Eh/α   predicted    -0.6727921E-02 (  60.87%)
   displ. norm   :     0.2382024 α      lambda       -0.6877031E-02
   maximum displ.:     0.1140278 α      in ANC's #1, #9, #3, ...

........................................................................
.............................. CYCLE    6 ..............................
........................................................................
   1    -20.3165857 -0.203166E+02  0.250E-01    5.37       0.0  T
   2    -20.3166103 -0.246880E-04  0.187E-01    5.38       1.0  T
   3    -20.3166709 -0.605298E-04  0.117E-01    5.40       1.0  T
   4    -20.3167661 -0.952384E-04  0.355E-02    5.42       1.0  T
   5    -20.3167713 -0.517283E-05  0.168E-02    5.43       1.6  T
   6    -20.3167722 -0.963389E-06  0.839E-03    5.42       3.2  T
   7    -20.3167725 -0.301530E-06  0.442E-03    5.42       6.1  T
   8    -20.3167726 -0.820969E-07  0.797E-04    5.42      33.5  T
   9    -20.3167726 -0.165283E-08  0.528E-04    5.42      50.6  T
     SCC iter.                  ...        0 min,  0.008 sec
     gradient                   ...        0 min,  0.001 sec
 * total energy  :   -20.0237752 Eh     change       -0.3731640E-02 Eh
   gradient norm :     0.0293784 Eh/α   predicted    -0.3633616E-02 (  -2.63%)
   displ. norm   :     0.4673785 α      lambda       -0.6790021E-02
   maximum displ.:     0.2876146 α      in ANC's #8, #1, #9, ...

........................................................................
.............................. CYCLE    7 ..............................
........................................................................
   1    -20.3144670 -0.203145E+02  0.584E-01    5.51       0.0  T
   2    -20.3153270 -0.860016E-03  0.340E-01    5.74       1.0  T
   3    -20.3154226 -0.955931E-04  0.162E-01    5.96       1.0  T
   4    -20.3153678  0.547650E-04  0.141E-01    6.02       1.0  T
   5    -20.3155239 -0.156053E-03  0.835E-02    6.04       1.0  T
   6    -20.3155569 -0.330589E-04  0.503E-02    6.03       1.0  T
   7    -20.3155756 -0.186607E-04  0.194E-02    6.03       1.4  T
   8    -20.3155780 -0.242396E-05  0.533E-03    6.03       5.0  T
   9    -20.3155781 -0.108538E-06  0.347E-03    6.03       7.7  T
  10    -20.3155782 -0.401818E-07  0.237E-03    6.03      11.3  T
  11    -20.3155782 -0.297493E-07  0.632E-04    6.03      42.3  T
  12    -20.3155782 -0.123562E-08  0.193E-04    6.03     138.1  T
     SCC iter.                  ...        0 min,  0.011 sec
     gradient                   ...        0 min,  0.001 sec
 * total energy  :   -20.0281118 Eh     change       -0.4336666E-02 Eh
   gradient norm :     0.0238972 Eh/α   predicted    -0.4136618E-02 (  -4.61%)
   displ. norm   :     0.3294028 α      lambda       -0.2584097E-02
   maximum displ.:     0.2294246 α      in ANC's #1, #8, #22, ...

........................................................................
.............................. CYCLE    8 ..............................
........................................................................
   1    -20.3138834 -0.203139E+02  0.267E-01    6.03       0.0  T
   2    -20.3140064 -0.122977E-03  0.155E-01    6.11       1.0  T
   3    -20.3140235 -0.170871E-04  0.524E-02    6.21       1.0  T
   4    -20.3140270 -0.357383E-05  0.299E-02    6.23       1.0  T
   5    -20.3140278 -0.761968E-06  0.254E-02    6.23       1.1  T
   6    -20.3140307 -0.290695E-05  0.174E-02    6.23       1.5  T
   7    -20.3140328 -0.204082E-05  0.821E-03    6.22       3.3  T
   8    -20.3140332 -0.404670E-06  0.227E-03    6.22      11.7  T
   9    -20.3140332 -0.186888E-07  0.169E-03    6.22      15.8  T
  10    -20.3140332 -0.133535E-07  0.110E-03    6.22      24.3  T
  11    -20.3140332 -0.879629E-08  0.285E-04    6.22      93.8  T
  12    -20.3140332 -0.354092E-09  0.649E-05    6.22     411.5  T
     SCC iter.                  ...        0 min,  0.011 sec
     gradient                   ...        0 min,  0.001 sec
 * total energy  :   -20.0299084 Eh     change       -0.1796568E-02 Eh
   gradient norm :     0.0196822 Eh/α   predicted    -0.1432246E-02 ( -20.28%)
   displ. norm   :     0.1905589 α      lambda       -0.1519730E-02
   maximum displ.:     0.1043328 α      in ANC's #1, #8, #22, ...

........................................................................
.............................. CYCLE    9 ..............................
........................................................................
   1    -20.3160909 -0.203161E+02  0.159E-01    6.25       0.0  T
   2    -20.3161499 -0.589981E-04  0.900E-02    6.30       1.0  T
   3    -20.3161492  0.705647E-06  0.404E-02    6.35       1.0  T
   4    -20.3161427  0.646775E-05  0.357E-02    6.37       1.0  T
   5    -20.3161572 -0.144780E-04  0.114E-02    6.37       2.3  T
   6    -20.3161576 -0.421421E-06  0.761E-03    6.37       3.5  T
   7    -20.3161579 -0.304155E-06  0.492E-03    6.37       5.4  T
   8    -20.3161581 -0.211803E-06  0.114E-03    6.37      23.5  T
   9    -20.3161582 -0.634566E-08  0.584E-04    6.37      45.8  T
  10    -20.3161582 -0.103413E-08  0.374E-04    6.37      71.5  T
     SCC iter.                  ...        0 min,  0.007 sec
     gradient                   ...        0 min,  0.001 sec
 * total energy  :   -20.0309769 Eh     change       -0.1068459E-02 Eh
   gradient norm :     0.0131041 Eh/α   predicted    -0.7874564E-03 ( -26.30%)
   displ. norm   :     0.2069722 α      lambda       -0.1360546E-02
   maximum displ.:     0.1037083 α      in ANC's #2, #3, #21, ...

........................................................................
.............................. CYCLE   10 ..............................
........................................................................
   1    -20.3176464 -0.203176E+02  0.202E-01    6.38       0.0  T
   2    -20.3176820 -0.356125E-04  0.120E-01    6.42       1.0  T
   3    -20.3176416  0.403955E-04  0.673E-02    6.46       1.0  T
   4    -20.3176840 -0.423788E-04  0.276E-02    6.47       1.0  T
   5    -20.3176910 -0.696488E-05  0.943E-03    6.47       2.8  T
   6    -20.3176912 -0.225631E-06  0.594E-03    6.47       4.5  T
   7    -20.3176913 -0.142435E-06  0.368E-03    6.47       7.3  T
   8    -20.3176914 -0.833229E-07  0.959E-04    6.47      27.9  T
   9    -20.3176914 -0.395472E-08  0.569E-04    6.47      47.0  T
     SCC iter.                  ...        0 min,  0.006 sec
     gradient                   ...        0 min,  0.001 sec
 * total energy  :   -20.0315443 Eh     change       -0.5674381E-03 Eh
   gradient norm :     0.0098003 Eh/α   predicted    -0.7094126E-03 (  25.02%)
   displ. norm   :     0.1984933 α      lambda       -0.1286967E-02
   maximum displ.:     0.1040571 α      in ANC's #2, #21, #3, ...

........................................................................
.............................. CYCLE   11 ..............................
........................................................................
   1    -20.3217119 -0.203217E+02  0.267E-01    6.49       0.0  T
   2    -20.3217266 -0.146944E-04  0.159E-01    6.51       1.0  T
   3    -20.3217301 -0.356678E-05  0.201E-02    6.54       1.3  T
   4    -20.3217307 -0.530269E-06  0.140E-02    6.54       1.9  T
   5    -20.3217307 -0.750533E-08  0.123E-02    6.54       2.2  T
   6    -20.3217316 -0.956081E-06  0.574E-03    6.54       4.7  T
   7    -20.3217318 -0.148368E-06  0.253E-03    6.54      10.6  T
   8    -20.3217318 -0.240188E-07  0.557E-04    6.54      48.0  T
   9    -20.3217318 -0.480586E-09  0.236E-04    6.54     113.2  T
     SCC iter.                  ...        0 min,  0.006 sec
     gradient                   ...        0 min,  0.001 sec
 * total energy  :   -20.0319418 Eh     change       -0.3974859E-03 Eh
   gradient norm :     0.0070967 Eh/α   predicted    -0.6688383E-03 (  68.27%)
   displ. norm   :     0.0719531 α      lambda       -0.2634415E-03
   maximum displ.:     0.0320173 α      in ANC's #2, #5, #4, ...

........................................................................
.............................. CYCLE   12 ..............................
........................................................................
   1    -20.3216115 -0.203216E+02  0.888E-02    6.55       0.0  T
   2    -20.3216129 -0.137793E-05  0.531E-02    6.54       1.0  T
   3    -20.3216050  0.795576E-05  0.257E-02    6.54       1.0  T
   4    -20.3216135 -0.855949E-05  0.433E-03    6.54       6.2  T
   5    -20.3216137 -0.145612E-06  0.170E-03    6.54      15.7  T
   6    -20.3216137 -0.589516E-08  0.962E-04    6.54      27.8  T
   7    -20.3216137 -0.272255E-08  0.632E-04    6.54      42.3  T
     SCC iter.                  ...        0 min,  0.005 sec
     gradient                   ...        0 min,  0.001 sec
 * total energy  :   -20.0321209 Eh     change       -0.1791260E-03 Eh
   gradient norm :     0.0039121 Eh/α   predicted    -0.1324024E-03 ( -26.08%)
   displ. norm   :     0.0848037 α      lambda       -0.1472059E-03
   maximum displ.:     0.0400465 α      in ANC's #2, #7, #5, ...

........................................................................
.............................. CYCLE   13 ..............................
........................................................................
   1    -20.3205419 -0.203205E+02  0.491E-02    6.52       0.0  T
   2    -20.3205434 -0.150067E-05  0.292E-02    6.52       1.0  T
   3    -20.3205418  0.168504E-05  0.140E-02    6.51       1.9  T
   4    -20.3205435 -0.175657E-05  0.610E-03    6.51       4.4  T
   5    -20.3205439 -0.348941E-06  0.286E-03    6.51       9.3  T
   6    -20.3205439 -0.468944E-07  0.151E-03    6.51      17.7  T
   7    -20.3205439 -0.167261E-07  0.857E-04    6.51      31.2  T
   8    -20.3205439 -0.608290E-08  0.164E-04    6.51     162.9  T
     SCC iter.                  ...        0 min,  0.005 sec
     gradient                   ...        0 min,  0.001 sec
 * total energy  :   -20.0322122 Eh     change       -0.9133317E-04 Eh
   gradient norm :     0.0039297 Eh/α   predicted    -0.7413220E-04 ( -18.83%)
   displ. norm   :     0.0826201 α      lambda       -0.9879671E-04
   maximum displ.:     0.0438620 α      in ANC's #6, #5, #7, ...

........................................................................
.............................. CYCLE   14 ..............................
........................................................................
   1    -20.3205785 -0.203206E+02  0.291E-02    6.52       0.0  T
   2    -20.3205788 -0.248797E-06  0.172E-02    6.52       1.6  T
   3    -20.3205787  0.897707E-07  0.470E-03    6.53       5.7  T
   4    -20.3205788 -0.160820E-06  0.282E-03    6.53       9.5  T
   5    -20.3205789 -0.503375E-07  0.184E-03    6.53      14.5  T
   6    -20.3205789 -0.154582E-07  0.124E-03    6.53      21.6  T
   7    -20.3205789 -0.117563E-07  0.612E-04    6.53      43.7  T
   8    -20.3205789 -0.281681E-08  0.158E-04    6.53     169.3  T
     SCC iter.                  ...        0 min,  0.006 sec
     gradient                   ...        0 min,  0.001 sec
 * total energy  :   -20.0322883 Eh     change       -0.7607349E-04 Eh
   gradient norm :     0.0036382 Eh/α   predicted    -0.4973507E-04 ( -34.62%)
   displ. norm   :     0.2350257 α      lambda       -0.2104287E-03
   maximum displ.:     0.1407852 α      in ANC's #6, #5, #1, ...

........................................................................
.............................. CYCLE   15 ..............................
........................................................................
   1    -20.3204018 -0.203204E+02  0.814E-02    6.53       0.0  T
   2    -20.3204023 -0.469515E-06  0.479E-02    6.54       1.0  T
   3    -20.3204023 -0.913935E-07  0.476E-03    6.54       5.6  T
   4    -20.3204024 -0.391853E-07  0.388E-03    6.54       6.9  T
   5    -20.3204025 -0.105564E-06  0.211E-03    6.54      12.7  T
   6    -20.3204025 -0.153282E-07  0.137E-03    6.54      19.5  T
   7    -20.3204025 -0.842439E-08  0.595E-04    6.54      45.0  T
   8    -20.3204025 -0.165212E-08  0.159E-04    6.54     168.4  T
     SCC iter.                  ...        0 min,  0.006 sec
     gradient                   ...        0 min,  0.001 sec
 * total energy  :   -20.0324464 Eh     change       -0.1580703E-03 Eh
   gradient norm :     0.0051693 Eh/α   predicted    -0.1110271E-03 ( -29.76%)
   displ. norm   :     0.3598015 α      lambda       -0.2879631E-03
   maximum displ.:     0.2251986 α      in ANC's #6, #5, #1, ...

........................................................................
.............................. CYCLE   16 ..............................
........................................................................
   1    -20.3197387 -0.203197E+02  0.167E-01    6.54       0.0  T
   2    -20.3197419 -0.324308E-05  0.988E-02    6.55       1.0  T
   3    -20.3197417  0.180060E-06  0.152E-02    6.57       1.8  T
   4    -20.3197425 -0.800324E-06  0.120E-02    6.57       2.2  T
   5    -20.3197435 -0.100952E-05  0.705E-03    6.57       3.8  T
   6    -20.3197438 -0.208284E-06  0.379E-03    6.57       7.1  T
   7    -20.3197438 -0.764262E-07  0.168E-03    6.57      15.9  T
   8    -20.3197438 -0.143560E-07  0.613E-04    6.57      43.6  T
   9    -20.3197438 -0.120965E-08  0.471E-04    6.57      56.8  T
     SCC iter.                  ...        0 min,  0.006 sec
     gradient                   ...        0 min,  0.001 sec
 * total energy  :   -20.0326555 Eh     change       -0.2090690E-03 Eh
   gradient norm :     0.0056801 Eh/α   predicted    -0.1626215E-03 ( -22.22%)
   displ. norm   :     0.3695228 α      lambda       -0.2831033E-03
   maximum displ.:     0.2434371 α      in ANC's #6, #5, #3, ...

........................................................................
.............................. CYCLE   17 ..............................
........................................................................
   1    -20.3187578 -0.203188E+02  0.164E-01    6.56       0.0  T
   2    -20.3187603 -0.251699E-05  0.974E-02    6.56       1.0  T
   3    -20.3187573  0.302267E-05  0.232E-02    6.57       1.2  T
   4    -20.3187621 -0.484869E-05  0.131E-02    6.57       2.0  T
   5    -20.3187628 -0.685377E-06  0.864E-03    6.57       3.1  T
   6    -20.3187631 -0.323976E-06  0.392E-03    6.57       6.8  T
   7    -20.3187632 -0.631843E-07  0.101E-03    6.57      26.5  T
   8    -20.3187632 -0.278976E-08  0.233E-04    6.57     114.6  T
   9    -20.3187632 -0.892264E-10  0.132E-04    6.57     202.5  T
     SCC iter.                  ...        0 min,  0.006 sec
     gradient                   ...        0 min,  0.001 sec
 * total energy  :   -20.0328506 Eh     change       -0.1951372E-03 Eh
   gradient norm :     0.0071162 Eh/α   predicted    -0.1608825E-03 ( -17.55%)
   displ. norm   :     0.2446695 α      lambda       -0.2856082E-03
   maximum displ.:     0.1515390 α      in ANC's #6, #3, #2, ...

........................................................................
.............................. CYCLE   18 ..............................
........................................................................
   1    -20.3207792 -0.203208E+02  0.170E-01    6.57       0.0  T
   2    -20.3207809 -0.173585E-05  0.101E-01    6.57       1.0  T
   3    -20.3207806  0.348737E-06  0.171E-02    6.57       1.6  T
   4    -20.3207825 -0.195899E-05  0.116E-02    6.57       2.3  T
   5    -20.3207831 -0.556039E-06  0.729E-03    6.57       3.7  T
   6    -20.3207833 -0.274603E-06  0.250E-03    6.57      10.7  T
   7    -20.3207834 -0.245418E-07  0.115E-03    6.57      23.2  T
   8    -20.3207834 -0.436588E-08  0.582E-04    6.57      45.9  T
   9    -20.3207834 -0.129246E-08  0.423E-04    6.57      63.2  T
     SCC iter.                  ...        0 min,  0.006 sec
     gradient                   ...        0 min,  0.001 sec
 * total energy  :   -20.0330163 Eh     change       -0.1656607E-03 Eh
   gradient norm :     0.0065922 Eh/α   predicted    -0.1513537E-03 (  -8.64%)
   displ. norm   :     0.1853097 α      lambda       -0.1181849E-03
   maximum displ.:     0.1197291 α      in ANC's #6, #3, #5, ...

........................................................................
.............................. CYCLE   19 ..............................
........................................................................
   1    -20.3209960 -0.203210E+02  0.893E-02    6.58       0.0  T
   2    -20.3209978 -0.175989E-05  0.536E-02    6.57       1.0  T
   3    -20.3209899  0.786559E-05  0.287E-02    6.56       1.0  T
   4    -20.3209995 -0.956817E-05  0.102E-02    6.56       2.6  T
   5    -20.3209998 -0.353898E-06  0.724E-03    6.56       3.7  T
   6    -20.3210001 -0.257159E-06  0.226E-03    6.56      11.8  T
   7    -20.3210001 -0.284050E-07  0.951E-04    6.56      28.1  T
   8    -20.3210001 -0.307110E-08  0.508E-04    6.56      52.6  T
     SCC iter.                  ...        0 min,  0.005 sec
     gradient                   ...        0 min,  0.001 sec
 * total energy  :   -20.0330802 Eh     change       -0.6398437E-04 Eh
   gradient norm :     0.0052914 Eh/α   predicted    -0.6112179E-04 (  -4.47%)
   displ. norm   :     0.0533415 α      lambda       -0.5603609E-04
   maximum displ.:     0.0320908 α      in ANC's #3, #2, #6, ...

........................................................................
.............................. CYCLE   20 ..............................
........................................................................
   1    -20.3215245 -0.203215E+02  0.470E-02    6.55       0.0  T
   2    -20.3215248 -0.388632E-06  0.278E-02    6.55       1.0  T
   3    -20.3215233  0.154539E-05  0.119E-02    6.54       2.2  T
   4    -20.3215251 -0.175471E-05  0.305E-03    6.54       8.8  T
   5    -20.3215251 -0.386953E-07  0.192E-03    6.54      13.9  T
   6    -20.3215251 -0.113158E-07  0.125E-03    6.54      21.4  T
   7    -20.3215251 -0.680727E-08  0.623E-04    6.54      42.9  T
   8    -20.3215251 -0.189462E-08  0.145E-04    6.54     183.7  T
     SCC iter.                  ...        0 min,  0.005 sec
     gradient                   ...        0 min,  0.001 sec
 * total energy  :   -20.0331147 Eh     change       -0.3445356E-04 Eh
   gradient norm :     0.0025183 Eh/α   predicted    -0.2809769E-04 ( -18.45%)
   displ. norm   :     0.1120072 α      lambda       -0.2852009E-04
   maximum displ.:     0.0645045 α      in ANC's #6, #3, #5, ...
 * RMSD in coord.:     0.8248181 α      energy gain  -0.5313289E-01 Eh

generating ANC from model Hessian ...
Using Lindh-Hessian (1995)
 Shifting diagonal of input Hessian by    9.5518930037040480E-003
 Lowest  eigenvalues of input Hessian
    0.000000    0.000000    0.000000    0.000000    0.000000    0.000000
    0.010000    0.010141    0.010956    0.013110    0.014161    0.015907
    0.023788    0.027145    0.034697    0.043804    0.050093    0.053732
 Highest eigenvalues
    1.146842    1.175629    1.222182    1.374298    1.453413    2.552048


........................................................................
.............................. CYCLE   21 ..............................
........................................................................
   1    -20.3206187 -0.203206E+02  0.707E-02    6.53       0.0  T
   2    -20.3206189 -0.220540E-06  0.417E-02    6.53       1.0  T
   3    -20.3206183  0.564342E-06  0.786E-03    6.53       3.4  T
   4    -20.3206190 -0.693904E-06  0.326E-03    6.53       8.2  T
   5    -20.3206191 -0.505932E-07  0.225E-03    6.53      11.9  T
   6    -20.3206191 -0.208596E-07  0.108E-03    6.53      24.8  T
   7    -20.3206191 -0.493814E-08  0.364E-04    6.53      73.3  T
   8    -20.3206191 -0.440131E-09  0.125E-04    6.53     214.1  T
     SCC iter.                  ...        0 min,  0.005 sec
     gradient                   ...        0 min,  0.001 sec
 * total energy  :   -20.0331316 Eh     change       -0.1691860E-04 Eh
   gradient norm :     0.0023112 Eh/α   predicted     0.0000000E+00 (-100.00%)
   displ. norm   :     0.0389179 α      lambda       -0.2956121E-04
   maximum displ.:     0.0326071 α      in ANC's #3, #6, #4, ...

........................................................................
.............................. CYCLE   22 ..............................
........................................................................
   1    -20.3214780 -0.203215E+02  0.402E-02    6.54       0.0  T
   2    -20.3214780 -0.501190E-07  0.240E-02    6.54       1.1  T
   3    -20.3214767  0.130264E-05  0.102E-02    6.53       2.6  T
   4    -20.3214781 -0.140737E-05  0.110E-03    6.53      24.4  T
   5    -20.3214781 -0.295704E-08  0.641E-04    6.53      41.7  T
   6    -20.3214781 -0.982205E-09  0.382E-04    6.53      69.9  T
     SCC iter.                  ...        0 min,  0.004 sec
     gradient                   ...        0 min,  0.001 sec
 * total energy  :   -20.0331441 Eh     change       -0.1253628E-04 Eh
   gradient norm :     0.0013244 Eh/α   predicted    -0.1480401E-04 (  18.09%)
   displ. norm   :     0.1065267 α      lambda       -0.4350915E-04
   maximum displ.:     0.0618717 α      in ANC's #2, #3, #4, ...

........................................................................
.............................. CYCLE   23 ..............................
........................................................................
   1    -20.3234353 -0.203234E+02  0.539E-02    6.55       0.0  T
   2    -20.3234357 -0.313968E-06  0.321E-02    6.55       1.0  T
   3    -20.3234316  0.407862E-05  0.187E-02    6.54       1.4  T
   4    -20.3234361 -0.448038E-05  0.287E-03    6.54       9.3  T
   5    -20.3234361 -0.386771E-07  0.175E-03    6.54      15.2  T
   6    -20.3234361 -0.850004E-08  0.102E-03    6.54      26.1  T
   7    -20.3234361 -0.438287E-08  0.509E-04    6.54      52.5  T
   8    -20.3234361 -0.118317E-08  0.136E-04    6.54     196.4  T
     SCC iter.                  ...        0 min,  0.005 sec
     gradient                   ...        0 min,  0.001 sec
 * total energy  :   -20.0331567 Eh     change       -0.1252440E-04 Eh
   gradient norm :     0.0053212 Eh/α   predicted    -0.2186475E-04 (  74.58%)
   displ. norm   :     0.0338754 α      lambda       -0.3210945E-04
   maximum displ.:     0.0280704 α      in ANC's #3, #2, #6, ...

........................................................................
.............................. CYCLE   24 ..............................
........................................................................
   1    -20.3222703 -0.203223E+02  0.255E-02    6.53       0.0  T
   2    -20.3222704 -0.967974E-07  0.154E-02    6.53       1.7  T
   3    -20.3222704 -0.131932E-07  0.392E-03    6.53       6.8  T
   4    -20.3222705 -0.744613E-07  0.290E-03    6.53       9.2  T
   5    -20.3222706 -0.336126E-07  0.194E-03    6.53      13.8  T
   6    -20.3222706 -0.195109E-07  0.603E-04    6.53      44.3  T
   7    -20.3222706 -0.160787E-08  0.230E-04    6.53     116.2  T
     SCC iter.                  ...        0 min,  0.005 sec
     gradient                   ...        0 min,  0.001 sec
 * total energy  :   -20.0331800 Eh     change       -0.2334584E-04 Eh
   gradient norm :     0.0017439 Eh/α   predicted    -0.1607414E-04 ( -31.15%)
   displ. norm   :     0.0912643 α      lambda       -0.2190260E-04
   maximum displ.:     0.0736386 α      in ANC's #3, #2, #7, ...

........................................................................
.............................. CYCLE   25 ..............................
........................................................................
   1    -20.3207434 -0.203207E+02  0.695E-02    6.52       0.0  T
   2    -20.3207439 -0.457463E-06  0.415E-02    6.52       1.0  T
   3    -20.3207443 -0.403344E-06  0.640E-03    6.52       4.2  T
   4    -20.3207444 -0.926841E-07  0.471E-03    6.52       5.7  T
   5    -20.3207444 -0.146979E-07  0.339E-03    6.52       7.9  T
   6    -20.3207445 -0.101814E-06  0.142E-03    6.52      18.8  T
   7    -20.3207445 -0.116074E-07  0.555E-04    6.52      48.2  T
   8    -20.3207445 -0.992848E-09  0.297E-04    6.52      90.0  T
     SCC iter.                  ...        0 min,  0.005 sec
     gradient                   ...        0 min,  0.001 sec
 * total energy  :   -20.0331902 Eh     change       -0.1014247E-04 Eh
   gradient norm :     0.0024411 Eh/α   predicted    -0.1099082E-04 (   8.36%)
   displ. norm   :     0.0178270 α      lambda       -0.8071048E-05
   maximum displ.:     0.0103793 α      in ANC's #3, #5, #1, ...

........................................................................
.............................. CYCLE   26 ..............................
........................................................................
   1    -20.3211121 -0.203211E+02  0.124E-02    6.52       0.0  T
   2    -20.3211121 -0.332603E-07  0.751E-03    6.52       3.6  T
   3    -20.3211120  0.142188E-06  0.398E-03    6.52       6.7  T
   4    -20.3211121 -0.180254E-06  0.162E-03    6.52      16.5  T
   5    -20.3211122 -0.744190E-08  0.121E-03    6.52      22.1  T
   6    -20.3211122 -0.712630E-08  0.326E-04    6.52      82.1  T
   7    -20.3211122 -0.304698E-09  0.742E-05    6.52     360.0  T
     SCC iter.                  ...        0 min,  0.005 sec
     gradient                   ...        0 min,  0.001 sec
 * total energy  :   -20.0331957 Eh     change       -0.5576147E-05 Eh
   gradient norm :     0.0011712 Eh/α   predicted    -0.4035789E-05 ( -27.62%)
   displ. norm   :     0.0484594 α      lambda       -0.9094227E-05
   maximum displ.:     0.0296040 α      in ANC's #2, #3, #6, ...

........................................................................
.............................. CYCLE   27 ..............................
........................................................................
   1    -20.3219530 -0.203220E+02  0.317E-02    6.53       0.0  T
   2    -20.3219530 -0.759422E-07  0.186E-02    6.53       1.4  T
   3    -20.3219530  0.722572E-08  0.233E-03    6.53      11.5  T
   4    -20.3219531 -0.298306E-07  0.154E-03    6.53      17.4  T
   5    -20.3219531 -0.143231E-07  0.100E-03    6.53      26.6  T
   6    -20.3219531 -0.418896E-08  0.520E-04    6.53      51.4  T
   7    -20.3219531 -0.111694E-08  0.187E-04    6.53     142.6  T
     SCC iter.                  ...        0 min,  0.005 sec
     gradient                   ...        0 min,  0.001 sec
 * total energy  :   -20.0332024 Eh     change       -0.6676287E-05 Eh
   gradient norm :     0.0013275 Eh/α   predicted    -0.4553274E-05 ( -31.80%)
   displ. norm   :     0.0574678 α      lambda       -0.4637223E-05
   maximum displ.:     0.0426672 α      in ANC's #3, #2, #6, ...

........................................................................
.............................. CYCLE   28 ..............................
........................................................................
   1    -20.3218054 -0.203218E+02  0.403E-02    6.53       0.0  T
   2    -20.3218054 -0.632169E-07  0.238E-02    6.53       1.1  T
   3    -20.3218055 -0.393729E-07  0.215E-03    6.53      12.5  T
   4    -20.3218055 -0.225137E-08  0.186E-03    6.53      14.3  T
   5    -20.3218055 -0.171158E-07  0.117E-03    6.53      22.8  T
   6    -20.3218055 -0.687872E-08  0.607E-04    6.53      44.0  T
   7    -20.3218055 -0.172654E-08  0.182E-04    6.53     146.7  T
     SCC iter.                  ...        0 min,  0.005 sec
     gradient                   ...        0 min,  0.001 sec
 * total energy  :   -20.0332081 Eh     change       -0.5732517E-05 Eh
   gradient norm :     0.0008641 Eh/α   predicted    -0.2323165E-05 ( -59.47%)
   displ. norm   :     0.1240414 α      lambda       -0.8270610E-05
   maximum displ.:     0.0876705 α      in ANC's #3, #2, #6, ...

........................................................................
.............................. CYCLE   29 ..............................
........................................................................
   1    -20.3213692 -0.203214E+02  0.846E-02    6.53       0.0  T
   2    -20.3213694 -0.260355E-06  0.498E-02    6.53       1.0  T
   3    -20.3213696 -0.178989E-06  0.404E-03    6.53       6.6  T
   4    -20.3213696  0.237695E-08  0.345E-03    6.53       7.7  T
   5    -20.3213697 -0.555561E-07  0.229E-03    6.53      11.7  T
   6    -20.3213697 -0.275208E-07  0.119E-03    6.53      22.4  T
   7    -20.3213697 -0.634734E-08  0.284E-04    6.53      94.1  T
   8    -20.3213697 -0.223356E-09  0.134E-04    6.53     199.1  T
     SCC iter.                  ...        0 min,  0.006 sec
     gradient                   ...        0 min,  0.001 sec
 * total energy  :   -20.0332140 Eh     change       -0.5869719E-05 Eh
   gradient norm :     0.0004791 Eh/α   predicted    -0.4162411E-05 ( -29.09%)
   displ. norm   :     0.0162314 α      lambda       -0.1271269E-05
   maximum displ.:     0.0109731 α      in ANC's #1, #6, #3, ...

........................................................................
.............................. CYCLE   30 ..............................
........................................................................
   1    -20.3214609 -0.203215E+02  0.166E-02    6.52       0.0  T
   2    -20.3214609 -0.120688E-07  0.986E-03    6.52       2.7  T
   3    -20.3214609  0.323430E-07  0.203E-03    6.53      13.2  T
   4    -20.3214609 -0.450095E-07  0.915E-04    6.53      29.2  T
   5    -20.3214609 -0.267116E-08  0.597E-04    6.53      44.8  T
     SCC iter.                  ...        0 min,  0.003 sec
     gradient                   ...        0 min,  0.001 sec
 * total energy  :   -20.0332150 Eh     change       -0.9950128E-06 Eh
   gradient norm :     0.0004978 Eh/α   predicted    -0.6372109E-06 ( -35.96%)
   displ. norm   :     0.0161572 α      lambda       -0.9611147E-06
   maximum displ.:     0.0095368 α      in ANC's #1, #6, #2, ...

   *** GEOMETRY OPTIMIZATION CONVERGED AFTER 30 ITERATIONS ***

------------------------------------------------------------------------
 total energy gain   :        -0.0532332 Eh      -33.4043 kcal/mol
 total RMSD          :         0.8913445 a0        0.4717 Å
 total power (kW/mol):        -4.6587926 (step) -528.2241 (real)
------------------------------------------------------------------------

 ANCopt (total)                0 d,  0 h,  0 min,  0.265 sec
 optimizer setup                ...        0 min,  0.000 sec (  0.047%)
 model hessian                  ...        0 min,  0.005 sec (  1.853%)
 ANC generation                 ...        0 min,  0.001 sec (  0.422%)
 coordinate transformation      ...        0 min,  0.001 sec (  0.211%)
 single point calculation       ...        0 min,  0.249 sec ( 94.235%)
 optimization log               ...        0 min,  0.002 sec (  0.809%)
 hessian update                 ...        0 min,  0.001 sec (  0.238%)
 rational function              ...        0 min,  0.003 sec (  1.146%)

================
 final structure:
================
14
 xtb: 6.5.1 (fef0646)
N            1.09315110159003        0.00241288580511       -0.36562118876095
C            2.52869992353289       -0.13198983234968       -0.12438621922192
C            3.00972695950710        1.01622320773273        0.76734922545199
C            4.42628402594391        0.90001323911221        1.04367163545509
C            5.60018829958841        0.78967916877610        1.24658434589633
Cl          -0.34103680817373        0.14918750139967        2.19340920564174
H            0.73306803460074       -0.78399496640234       -0.89432296937333
H            0.88994345005618        0.85798773699594       -0.87276591786170
H            0.33250288683305        0.07292977245118        0.99986307011440
H            3.11041682309675       -0.14082848523764       -1.05738184052344
H            2.69406061491855       -1.08237648811464        0.38805739098198
H            2.45267093358032        0.99838749487454        1.70640017559490
H            2.82017739898345        1.97402135023190        0.27366066929154
H            6.62595635594185        0.70381741472460        1.44737241731200

 Bond Distances (Angstroems)
 ---------------------------
N1-C2=1.4619         N1-H7=1.0137         N1-H8=1.0151         C2-N1=1.4619         C2-C3=1.5313         C2-H10=1.0995        
C2-H11=1.0923        C3-C2=1.5313         C3-C4=1.4479         C3-H12=1.0920        C3-H13=1.0941        C4-C3=1.4479         
C4-C5=1.1964         C5-C4=1.1964         C5-H14=1.0488        Cl6-H9=1.3726        H7-N1=1.0137         H8-N1=1.0151         
H9-Cl6=1.3726        H10-C2=1.0995        H11-C2=1.0923        H12-C3=1.0920        H13-C3=1.0941        H14-C5=1.0488        
 C  H  Rav=1.0853 sigma=0.0185  Rmin=1.0488  Rmax=1.0995     5
 C  C  Rav=1.3919 sigma=0.1424  Rmin=1.1964  Rmax=1.5313     3
 N  H  Rav=1.0144 sigma=0.0007  Rmin=1.0137  Rmax=1.0151     2
 N  C  Rav=1.4619 sigma=0.0000  Rmin=1.4619  Rmax=1.4619     1
 Cl H  Rav=1.3726 sigma=0.0000  Rmin=1.3726  Rmax=1.3726     1

 selected bond angles (degree)
 --------------------
H7-N1-C2=111.32                H8-N1-C2=110.89                H8-N1-H7=108.79                C3-C2-N1=109.61                
H10-C2-N1=112.35               H10-C2-C3=109.51               H11-C2-N1=107.82               H11-C2-C3=109.37               
H11-C2-H10=108.12              C4-C3-C2=110.99                H12-C3-C2=109.16               H12-C3-C4=109.49               
H13-C3-C2=109.83               H13-C3-C4=109.02               H13-C3-H12=108.30              C5-C4-C3=178.59                
H14-C5-C4=178.60               

 selected dihedral angles (degree)
 ---------------------------------
C3-C2-N1-H7=184.40            C3-C2-N1-H8= 63.13            H10-C2-N1-H7= 62.41           H10-C2-N1-H8=301.14           
H11-C2-N1-H7=303.37           H11-C2-N1-H8=182.10           C4-C3-C2-N1=179.07            C4-C3-C2-H10=302.74           
C4-C3-C2-H11= 61.05           H12-C3-C2-N1= 58.29           H12-C3-C2-H10=181.96          H12-C3-C2-H11=300.28          
H13-C3-C2-N1=299.69           H13-C3-C2-H10= 63.37          H13-C3-C2-H11=181.68          C5-C4-C3-C2= 27.45            
C5-C4-C3-H12=148.03           C5-C4-C3-H13=266.34           H14-C5-C4-C3=184.06           

 CMA Distance (Angstroems)
 ---------------------------
R(CMA):  3.9280
           -------------------------------------------------
          |                Final Singlepoint                |
           -------------------------------------------------

          ...................................................
          :                      SETUP                      :
          :.................................................:
          :  # basis functions                  38          :
          :  # atomic orbitals                  37          :
          :  # shells                           21          :
          :  # electrons                        36          :
          :  max. iterations                   250          :
          :  Hamiltonian                  GFN2-xTB          :
          :  restarted?                      false          :
          :  GBSA solvation                  false          :
          :  PC potential                    false          :
          :  electronic temp.          300.0000000     K    :
          :  accuracy                    1.0000000          :
          :  -> integral cutoff          0.2500000E+02      :
          :  -> integral neglect         0.1000000E-07      :
          :  -> SCF convergence          0.1000000E-05 Eh   :
          :  -> wf. convergence          0.1000000E-03 e    :
          :  Broyden damping             0.4000000          :
          ...................................................

 iter      E             dE          RMSdq      gap      omega  full diag
   1    -20.3214609 -0.203215E+02  0.228E-04    6.53       0.0  T
   2    -20.3214609 -0.843841E-10  0.176E-04    6.53     151.7  T
   3    -20.3214609 -0.190781E-10  0.133E-04    6.53     201.4  T

   *** convergence criteria satisfied after 3 iterations ***

         #    Occupation            Energy/Eh            Energy/eV
      -------------------------------------------------------------
         1        2.0000           -1.0204960             -27.7691
       ...           ...                  ...                  ...
        12        2.0000           -0.4734456             -12.8831
        13        2.0000           -0.4685046             -12.7487
        14        2.0000           -0.4154545             -11.3051
        15        2.0000           -0.4107893             -11.1781
        16        2.0000           -0.4022051             -10.9446
        17        2.0000           -0.3972545             -10.8098
        18        2.0000           -0.3969838             -10.8025 (HOMO)
        19                         -0.1571862              -4.2773 (LUMO)
        20                         -0.1510066              -4.1091
        21                         -0.0595255              -1.6198
        22                          0.0111199               0.3026
        23                          0.0635152               1.7283
       ...                                ...                  ...
        37                          1.4342859              39.0289
      -------------------------------------------------------------
                  HL-Gap            0.2397976 Eh            6.5252 eV
             Fermi-level           -0.2770850 Eh           -7.5399 eV

 SCC (total)                   0 d,  0 h,  0 min,  0.004 sec
 SCC setup                      ...        0 min,  0.000 sec (  1.651%)
 Dispersion                     ...        0 min,  0.000 sec (  2.354%)
 classical contributions        ...        0 min,  0.000 sec (  0.504%)
 integral evaluation            ...        0 min,  0.000 sec ( 12.099%)
 iterations                     ...        0 min,  0.002 sec ( 55.615%)
 molecular gradient             ...        0 min,  0.001 sec ( 23.494%)
 printout                       ...        0 min,  0.000 sec (  2.105%)

         :::::::::::::::::::::::::::::::::::::::::::::::::::::
         ::                     SUMMARY                     ::
         :::::::::::::::::::::::::::::::::::::::::::::::::::::
         :: total energy             -20.033215008641 Eh    ::
         :: gradient norm              0.000499276966 Eh/a0 ::
         :: HOMO-LUMO gap              6.525225094607 eV    ::
         ::.................................................::
         :: SCC energy               -20.321460934474 Eh    ::
         :: -> isotropic ES            0.029033420008 Eh    ::
         :: -> anisotropic ES         -0.007605791778 Eh    ::
         :: -> anisotropic XC          0.011940504504 Eh    ::
         :: -> dispersion             -0.007834500241 Eh    ::
         :: repulsion energy           0.288240651676 Eh    ::
         :: add. restraining           0.000000000000 Eh    ::
         :: total charge              -0.000000000000 e     ::
         :::::::::::::::::::::::::::::::::::::::::::::::::::::

           -------------------------------------------------
          |                Property Printout                |
           -------------------------------------------------

    * Orbital Energies and Occupations

         #    Occupation            Energy/Eh            Energy/eV
      -------------------------------------------------------------
         1        2.0000           -1.0204960             -27.7691
       ...           ...                  ...                  ...
         6        2.0000           -0.5635757             -15.3357
         7        2.0000           -0.5546544             -15.0929
         8        2.0000           -0.5292905             -14.4027
         9        2.0000           -0.5194362             -14.1346
        10        2.0000           -0.4999905             -13.6054
        11        2.0000           -0.4855362             -13.2121
        12        2.0000           -0.4734456             -12.8831
        13        2.0000           -0.4685046             -12.7487
        14        2.0000           -0.4154545             -11.3051
        15        2.0000           -0.4107893             -11.1781
        16        2.0000           -0.4022051             -10.9446
        17        2.0000           -0.3972545             -10.8098
        18        2.0000           -0.3969838             -10.8025 (HOMO)
        19                         -0.1571862              -4.2773 (LUMO)
        20                         -0.1510066              -4.1091
        21                         -0.0595255              -1.6198
        22                          0.0111199               0.3026
        23                          0.0635152               1.7283
        24                          0.0642110               1.7473
        25                          0.0694409               1.8896
        26                          0.0698237               1.9000
        27                          0.0734698               1.9992
        28                          0.0964296               2.6240
        29                          0.1096325               2.9833
       ...                                ...                  ...
        37                          1.4342859              39.0289
      -------------------------------------------------------------
                  HL-Gap            0.2397976 Eh            6.5252 eV
             Fermi-level           -0.2770850 Eh           -7.5399 eV

     #   Z          covCN         q      C6AA      α(0)
     1   7 N        2.691    -0.305    27.859     7.839
     2   6 C        3.736     0.014    20.426     6.450
     3   6 C        3.805    -0.056    21.571     6.612
     4   6 C        1.968    -0.025    31.721     9.095
     5   6 C        1.909    -0.111    34.201     9.445
     6  17 Cl       0.837    -0.485   115.130    16.415
     7   1 H        0.860     0.165     1.301     1.786
     8   1 H        0.860     0.167     1.288     1.778
     9   1 H        0.897     0.333     0.620     1.232
    10   1 H        0.923     0.028     2.613     2.528
    11   1 H        0.924     0.055     2.258     2.350
    12   1 H        0.924     0.083     1.944     2.180
    13   1 H        0.924     0.058     2.225     2.332
    14   1 H        0.928     0.078     2.003     2.213

 Mol. C6AA /au·bohr⁶  :       2216.376585
 Mol. C8AA /au·bohr⁸  :      58223.217165
 Mol. α(0) /au        :         72.255313


Wiberg/Mayer (AO) data.
largest (>0.10) Wiberg bond orders for each atom

 ---------------------------------------------------------------------------
     #   Z sym  total        # sym  WBO       # sym  WBO       # sym  WBO
 ---------------------------------------------------------------------------
     1   7 N    3.237 --     2 C    1.005     7 H    0.959     8 H    0.958
                             9 H    0.204
     2   6 C    3.973 --     1 N    1.005     3 C    0.987    11 H    0.975
                            10 H    0.973
     3   6 C    3.994 --     4 C    1.053     2 C    0.987    13 H    0.954
                            12 H    0.949
     4   6 C    3.979 --     5 C    2.898     3 C    1.053
     5   6 C    3.973 --     4 C    2.898    14 H    0.971
     6  17 Cl   0.768 --     9 H    0.680
     7   1 H    0.972 --     1 N    0.959
     8   1 H    0.972 --     1 N    0.958
     9   1 H    0.889 --     6 Cl   0.680     1 N    0.204
    10   1 H    0.999 --     2 C    0.973
    11   1 H    0.997 --     2 C    0.975
    12   1 H    0.993 --     3 C    0.949
    13   1 H    0.997 --     3 C    0.954
    14   1 H    0.994 --     5 C    0.971
 ---------------------------------------------------------------------------

Topologies differ in total number of bonds
Writing topology from bond orders to xtbtopo.mol

molecular dipole:
                 x           y           z       tot (Debye)
 q only:        0.880      -0.028      -1.625
   full:        0.666      -0.052      -1.604       4.416
molecular quadrupole (traceless):
                xx          xy          yy          xz          yz          zz
 q only:        3.690       0.083       3.632       2.342      -0.459      -7.322
  q+dip:        4.578      -0.754       0.699      -0.223      -0.994      -5.276
   full:        2.902      -0.439       1.540      -0.628      -0.662      -4.442

           -------------------------------------------------
          |                Geometry Summary                 |
           -------------------------------------------------

      molecular mass/u    :      105.5661104
   center of mass at/Å    :        1.9890995       0.3680941       1.0408499
  moments of inertia/u·Å² :        0.1073868E+03   0.5124024E+03   0.5962271E+03
rotational constants/cm⁻¹ :        0.1569805E+00   0.3289920E-01   0.2827385E-01

 * 10 selected distances

     #   Z          #   Z                                           value/Å
     1   7 N        2   6 C                                       1.4618684
     2   6 C        3   6 C                                       1.5313304 (max)
     4   6 C        5   6 C                                       1.1964108
     1   7 N        7   1 H                                       1.0137174 (min)
     1   7 N        8   1 H                                       1.0151343
     2   6 C       10   1 H                                       1.0995243
     2   6 C       11   1 H                                       1.0923267
     3   6 C       12   1 H                                       1.0919920
     3   6 C       13   1 H                                       1.0940909
     5   6 C       14   1 H                                       1.0487556

 * 4 distinct bonds (by element types)

   Z      Z             #   av. dist./Å        max./Å        min./Å
   1 H    6 C           5     1.0853379     1.0995243     1.0487556
   6 C    6 C           2     1.3638706     1.5313304     1.1964108
   1 H    7 N           2     1.0144258     1.0151343     1.0137174
   6 C    7 N           1     1.4618684     1.4618684     1.4618684


optimized geometry written to: xtbopt.xyz


           -------------------------------------------------
          | TOTAL ENERGY              -20.033215008641 Eh   |
          | GRADIENT NORM               0.000499276966 Eh/α |
          | HOMO-LUMO GAP               6.525225094607 eV   |
           -------------------------------------------------

------------------------------------------------------------------------
 * finished run on 2023/01/23 at 13:48:04.230     
------------------------------------------------------------------------
 total:
 * wall-time:     0 d,  0 h,  0 min,  0.301 sec
 *  cpu-time:     0 d,  0 h,  0 min, 27.082 sec
 * ratio c/w:    89.964 speedup
 SCF:
 * wall-time:     0 d,  0 h,  0 min,  0.017 sec
 *  cpu-time:     0 d,  0 h,  0 min,  2.383 sec
 * ratio c/w:   141.712 speedup
 ANC optimizer:
 * wall-time:     0 d,  0 h,  0 min,  0.269 sec
 *  cpu-time:     0 d,  0 h,  0 min, 22.810 sec
 * ratio c/w:    84.797 speedup

