14
 energy: -20.033215008641 gnorm: 0.000499276966 xtb: 6.5.1 (fef0646)
N            1.09315110159003        0.00241288580511       -0.36562118876095
C            2.52869992353289       -0.13198983234968       -0.12438621922192
C            3.00972695950710        1.01622320773273        0.76734922545199
C            4.42628402594391        0.90001323911221        1.04367163545509
C            5.60018829958841        0.78967916877610        1.24658434589633
Cl          -0.34103680817373        0.14918750139967        2.19340920564174
H            0.73306803460074       -0.78399496640234       -0.89432296937333
H            0.88994345005618        0.85798773699594       -0.87276591786170
H            0.33250288683305        0.07292977245118        0.99986307011440
H            3.11041682309675       -0.14082848523764       -1.05738184052344
H            2.69406061491855       -1.08237648811464        0.38805739098198
H            2.45267093358032        0.99838749487454        1.70640017559490
H            2.82017739898345        1.97402135023190        0.27366066929154
H            6.62595635594185        0.70381741472460        1.44737241731200
