 Entering Gaussian System
 *********************************************
 Gaussian 98:
 frequency output generated by the xtb code
 *********************************************
                         Standard orientation:
 --------------------------------------------------------------------
  Center     Atomic     Atomic              Coordinates (Angstroms)
  Number     Number      Type              X           Y           Z
 --------------------------------------------------------------------
    1          7             0       -0.549693   -1.788439   -0.913595
    2          6             0        0.931599   -1.612507   -0.898661
    3          6             0        1.504914   -1.505437    0.510677
    4          6             0        1.091723   -0.244264    1.267857
    5          6             0        1.642968    1.037203    0.645533
    6          8             0        1.079575    1.346403   -0.612986
    7         17             0       -2.288584    1.138822    0.097646
    8          1             0       -1.029427   -0.954796   -0.542495
    9          1             0       -0.831045   -2.592526   -0.332503
   10          1             0       -0.906457   -1.947319   -1.865844
   11          1             0        1.202171   -0.723369   -1.478993
   12          1             0        1.395262   -2.455530   -1.426651
   13          1             0        2.600354   -1.549223    0.469164
   14          1             0        1.203691   -2.393815    1.079270
   15          1             0        1.425567   -0.315823    2.311106
   16          1             0       -0.000136   -0.181908    1.318260
   17          1             0        2.727307    0.953577    0.502459
   18          1             0        1.490765    1.899355    1.308562
   19          1             0        0.100485    1.390929   -0.528463
 --------------------------------------------------------------------
     1 basis functions        1 primitive gaussians
     1 alpha electrons        1 beta electrons

 Harmonic frequencies (cm**-1), IR intensities (km*mol⁻¹),
 Raman scattering activities (A**4/amu), Raman depolarization ratios,
 reduced masses (AMU), force constants (mDyne/A) and normal coordinates:
                      1                      2                      3
                        a                      a                      a 
 Frequencies --  -117.6675                14.2850                86.4672
 Red. masses --    22.0116                17.7475                17.7398
 Frc consts  --     0.0000                 0.0000                 0.0000
 IR Inten    --   111.6971                 4.2828                16.5696
 Raman Activ --     0.0000                 0.0000                 0.0000
 Depolar     --     0.0000                 0.0000                 0.0000
 Atom AN      X      Y      Z        X      Y      Z        X      Y      Z
   1   7     0.29  -0.45  -0.16     0.11   0.09   0.03     0.07  -0.09  -0.27
   2   6     0.23  -0.11  -0.02     0.12  -0.05   0.00     0.04   0.01   0.04
   3   6     0.07  -0.05   0.04     0.14  -0.06  -0.01    -0.30   0.06   0.18
   4   6    -0.04  -0.03  -0.04     0.04  -0.14   0.05    -0.36   0.18  -0.05
   5   6    -0.03  -0.03  -0.03    -0.30  -0.04  -0.05    -0.13   0.05  -0.10
   6   8    -0.01  -0.06  -0.05    -0.69  -0.14   0.08    -0.02   0.03  -0.19
   7  17    -0.37   0.53   0.20     0.39   0.23  -0.08     0.47  -0.16   0.29
   8   1     0.05  -0.19   0.02     0.06   0.06  -0.04     0.01  -0.09   0.06
   9   1     0.11  -0.18  -0.11     0.01   0.07   0.05     0.01  -0.12  -0.20
  10   1     0.09  -0.06  -0.06     0.03  -0.02   0.02     0.05   0.12  -0.11
  11   1     0.03  -0.01   0.01     0.05  -0.02  -0.01     0.03   0.01   0.03
  12   1     0.13   0.00  -0.01     0.01  -0.03   0.00     0.06   0.01   0.04
  13   1     0.02  -0.00   0.04     0.04   0.01  -0.01    -0.08  -0.02   0.13
  14   1     0.01  -0.01   0.01     0.07  -0.03  -0.01    -0.15   0.04   0.05
  15   1    -0.04   0.00  -0.00     0.07  -0.02  -0.00    -0.17   0.08   0.01
  16   1    -0.01  -0.01  -0.04     0.01  -0.10   0.07    -0.10   0.09  -0.08
  17   1    -0.01  -0.01  -0.00    -0.09   0.04  -0.08    -0.04  -0.03  -0.01
  18   1    -0.01  -0.01  -0.01    -0.09  -0.02  -0.00    -0.02   0.04  -0.05
  19   1    -0.00   0.01  -0.01    -0.17  -0.05   0.07    -0.01   0.00  -0.06
                      4                      5                      6
                        a                      a                      a 
 Frequencies --   121.1335               150.3648               203.0287
 Red. masses --    13.4827                 9.5769                 9.7244
 Frc consts  --     0.0000                 0.0000                 0.0000
 IR Inten    --    32.2385                 6.4834                 1.9408
 Raman Activ --     0.0000                 0.0000                 0.0000
 Depolar     --     0.0000                 0.0000                 0.0000
 Atom AN      X      Y      Z        X      Y      Z        X      Y      Z
   1   7     0.15   0.52  -0.16    -0.04  -0.19  -0.12     0.05   0.13  -0.00
   2   6     0.19   0.01   0.11    -0.07   0.11   0.07     0.12  -0.50   0.03
   3   6    -0.02  -0.11   0.21    -0.18  -0.08   0.13     0.03  -0.13   0.04
   4   6     0.11   0.01   0.09     0.23   0.09   0.07    -0.12  -0.02  -0.23
   5   6     0.10  -0.12  -0.18     0.36  -0.09  -0.16     0.04   0.01  -0.06
   6   8    -0.04  -0.32  -0.19    -0.32   0.28   0.24    -0.03   0.52   0.10
   7  17    -0.34  -0.04   0.10    -0.00  -0.06  -0.15    -0.06  -0.02   0.07
   8   1     0.08   0.13   0.03    -0.07  -0.10   0.01     0.10   0.14  -0.11
   9   1    -0.05   0.10  -0.14     0.02  -0.10  -0.09    -0.09   0.15   0.10
  10   1     0.06   0.27  -0.07     0.02  -0.00  -0.05     0.02  -0.05   0.01
  11   1     0.16  -0.02   0.04    -0.06   0.08   0.08     0.15  -0.25  -0.10
  12   1     0.00  -0.04   0.06     0.03   0.09  -0.02    -0.05  -0.26   0.12
  13   1    -0.01  -0.10   0.11    -0.05  -0.14   0.07     0.01  -0.03   0.04
  14   1    -0.09  -0.01   0.05    -0.16   0.01   0.03     0.01  -0.01   0.06
  15   1     0.06   0.04   0.02     0.11   0.03   0.01    -0.11   0.01  -0.04
  16   1     0.03   0.01   0.06     0.07   0.09   0.07    -0.04   0.01  -0.14
  17   1     0.02  -0.06  -0.09     0.07  -0.14  -0.24     0.00  -0.04  -0.06
  18   1     0.07  -0.00  -0.08     0.33  -0.02   0.00     0.08  -0.04   0.05
  19   1    -0.01  -0.04  -0.02    -0.08   0.04   0.17    -0.01   0.11   0.04
                      7                      8                      9
                        a                      a                      a 
 Frequencies --   251.4025               273.2789               347.7902
 Red. masses --     3.4080                 8.6271                 7.9947
 Frc consts  --     0.0000                 0.0000                 0.0000
 IR Inten    --     0.8549                10.7991                 0.2438
 Raman Activ --     0.0000                 0.0000                 0.0000
 Depolar     --     0.0000                 0.0000                 0.0000
 Atom AN      X      Y      Z        X      Y      Z        X      Y      Z
   1   7    -0.10   0.01   0.10    -0.17  -0.11  -0.43     0.03  -0.01   0.02
   2   6    -0.07  -0.20   0.03    -0.12  -0.28   0.01     0.01   0.11   0.07
   3   6     0.12  -0.06  -0.04    -0.07   0.13   0.01    -0.12  -0.39   0.13
   4   6     0.14  -0.04  -0.03     0.31   0.18   0.18     0.24  -0.18  -0.01
   5   6    -0.08   0.11   0.06    -0.01   0.29   0.14    -0.27   0.09  -0.06
   6   8    -0.01   0.15   0.04     0.01  -0.15   0.06     0.12   0.34  -0.23
   7  17     0.02   0.01  -0.13     0.02  -0.01   0.06     0.01  -0.00   0.02
   8   1     0.05  -0.16   0.48    -0.05   0.02  -0.23    -0.03   0.01  -0.07
   9   1    -0.03  -0.29  -0.37    -0.14   0.04  -0.07     0.03   0.03   0.07
  10   1    -0.10   0.53  -0.03     0.05  -0.11  -0.14     0.03  -0.10   0.01
  11   1    -0.00  -0.08  -0.02     0.03  -0.16  -0.09    -0.01   0.11   0.14
  12   1    -0.06  -0.08   0.02    -0.04  -0.16   0.13     0.02   0.11  -0.09
  13   1     0.03  -0.00  -0.06    -0.02  -0.00  -0.06    -0.04  -0.28   0.11
  14   1     0.07  -0.00   0.03    -0.01   0.07   0.06    -0.21  -0.06   0.02
  15   1     0.07  -0.01  -0.02     0.21   0.02   0.01     0.20   0.01  -0.04
  16   1     0.04  -0.04   0.03     0.10   0.04   0.18     0.07  -0.11   0.14
  17   1    -0.01   0.10   0.05     0.01   0.19   0.08    -0.05   0.19   0.08
  18   1    -0.10   0.00   0.04    -0.12   0.09   0.01    -0.26  -0.04   0.02
  19   1    -0.01   0.01  -0.02    -0.00  -0.06   0.01     0.02   0.07  -0.13
                     10                     11                     12
                        a                      a                      a 
 Frequencies --   419.4402               514.9111               741.4528
 Red. masses --     7.8012                 7.1477                 2.0331
 Frc consts  --     0.0000                 0.0000                 0.0000
 IR Inten    --     8.8390                 6.9082               208.7242
 Raman Activ --     0.0000                 0.0000                 0.0000
 Depolar     --     0.0000                 0.0000                 0.0000
 Atom AN      X      Y      Z        X      Y      Z        X      Y      Z
   1   7    -0.22  -0.02  -0.25    -0.10   0.02  -0.03    -0.01   0.06   0.01
   2   6    -0.15   0.08   0.37    -0.04   0.04   0.15     0.01   0.11   0.03
   3   6     0.38  -0.01   0.18     0.16  -0.23   0.08     0.01   0.05   0.01
   4   6    -0.05  -0.14   0.06     0.10   0.07  -0.43     0.01  -0.03  -0.04
   5   6    -0.08  -0.17  -0.12     0.18   0.27   0.10     0.01  -0.11  -0.03
   6   8     0.05   0.18  -0.13    -0.12  -0.23   0.15     0.02   0.19   0.03
   7  17     0.02   0.01   0.02    -0.01   0.01   0.00    -0.01   0.04   0.01
   8   1    -0.15  -0.01  -0.16    -0.07   0.00  -0.06    -0.19  -0.08   0.00
   9   1    -0.15  -0.01  -0.13    -0.06   0.01  -0.02     0.11  -0.04  -0.02
  10   1     0.14  -0.01  -0.14     0.05  -0.01  -0.03     0.05  -0.05  -0.01
  11   1    -0.06   0.07   0.17    -0.04   0.10   0.16     0.10  -0.07  -0.10
  12   1    -0.02   0.08   0.03    -0.02   0.09  -0.08    -0.06  -0.07   0.11
  13   1     0.11   0.20  -0.13     0.04  -0.17   0.04     0.00  -0.01   0.02
  14   1     0.36  -0.06   0.08    -0.06   0.01   0.08    -0.03   0.01  -0.02
  15   1    -0.05   0.05   0.04    -0.29   0.02  -0.02    -0.00   0.01  -0.01
  16   1    -0.02  -0.12  -0.04     0.01   0.06  -0.43     0.00  -0.00  -0.01
  17   1    -0.03  -0.10  -0.04     0.06   0.23   0.06     0.01   0.01   0.01
  18   1     0.03  -0.05  -0.02    -0.11   0.04   0.04    -0.03  -0.06   0.02
  19   1     0.01   0.07  -0.05    -0.03  -0.10   0.09    -0.06  -0.88  -0.16
                     13                     14                     15
                        a                      a                      a 
 Frequencies --   799.1354               836.2961               872.4510
 Red. masses --     3.1302                 7.8284                 5.0477
 Frc consts  --     0.0000                 0.0000                 0.0000
 IR Inten    --     9.6453                 4.6261                 4.4481
 Raman Activ --     0.0000                 0.0000                 0.0000
 Depolar     --     0.0000                 0.0000                 0.0000
 Atom AN      X      Y      Z        X      Y      Z        X      Y      Z
   1   7     0.08  -0.04  -0.05    -0.27  -0.05  -0.10    -0.12  -0.11   0.07
   2   6     0.00  -0.24  -0.06     0.12  -0.04  -0.33     0.11  -0.06   0.04
   3   6    -0.16  -0.20   0.03     0.34  -0.13   0.13     0.22   0.25  -0.06
   4   6    -0.12   0.09   0.03    -0.00   0.04   0.43    -0.02   0.11  -0.26
   5   6     0.11   0.13   0.01    -0.01   0.15   0.07    -0.23  -0.11   0.02
   6   8     0.00   0.05   0.00    -0.02   0.08  -0.14     0.11  -0.05   0.16
   7  17    -0.01   0.00  -0.00    -0.00   0.00   0.00    -0.01  -0.00   0.00
   8   1     0.33   0.15   0.02     0.05   0.02   0.04     0.15   0.11  -0.07
   9   1    -0.17   0.11   0.07    -0.03   0.03   0.05    -0.37   0.05  -0.04
  10   1    -0.14   0.07   0.04    -0.26  -0.01   0.04     0.07   0.10  -0.04
  11   1    -0.12   0.18   0.29    -0.02   0.00  -0.09    -0.19   0.07   0.03
  12   1     0.15   0.20  -0.30     0.01   0.01  -0.14     0.13   0.10  -0.08
  13   1    -0.04   0.24  -0.12     0.09  -0.19   0.17     0.06  -0.21   0.20
  14   1     0.27  -0.10   0.08    -0.10  -0.03  -0.05    -0.27   0.21   0.03
  15   1     0.09   0.00  -0.03    -0.26   0.06   0.20     0.18   0.06  -0.13
  16   1    -0.02   0.11   0.15    -0.02  -0.07  -0.14    -0.01  -0.16   0.11
  17   1     0.03   0.03   0.00    -0.02  -0.09  -0.07    -0.08  -0.23  -0.02
  18   1     0.03   0.05  -0.02     0.15   0.14  -0.08     0.11  -0.01   0.03
  19   1    -0.02  -0.33  -0.03    -0.02  -0.08  -0.09     0.01  -0.10  -0.04
                     16                     17                     18
                        a                      a                      a 
 Frequencies --   899.7127               921.8932               978.7727
 Red. masses --     5.1918                 6.5324                 6.5204
 Frc consts  --     0.0000                 0.0000                 0.0000
 IR Inten    --     5.7435                13.4183                 5.5261
 Raman Activ --     0.0000                 0.0000                 0.0000
 Depolar     --     0.0000                 0.0000                 0.0000
 Atom AN      X      Y      Z        X      Y      Z        X      Y      Z
   1   7    -0.01  -0.13  -0.05    -0.27   0.03  -0.20     0.32   0.01  -0.19
   2   6    -0.01   0.07   0.01     0.17   0.04  -0.14    -0.43   0.02   0.10
   3   6    -0.08   0.27   0.07     0.07   0.01   0.28    -0.01   0.03   0.02
   4   6     0.21  -0.10   0.10     0.00   0.14  -0.24     0.21   0.05  -0.04
   5   6     0.13  -0.37  -0.07    -0.09  -0.19  -0.15    -0.26  -0.01   0.04
   6   8    -0.08   0.11  -0.09     0.07  -0.07   0.23     0.08  -0.03   0.09
   7  17    -0.01  -0.00  -0.00     0.00  -0.00  -0.01    -0.00  -0.00   0.00
   8   1     0.32   0.13   0.02    -0.04  -0.06   0.12     0.27   0.04   0.10
   9   1    -0.22   0.08   0.04     0.28  -0.00   0.10     0.22   0.06   0.11
  10   1    -0.14   0.09   0.02    -0.42  -0.10   0.09    -0.22  -0.02   0.07
  11   1    -0.13  -0.01  -0.10     0.17   0.01   0.03    -0.01  -0.02   0.04
  12   1     0.17   0.04   0.13    -0.00  -0.01  -0.04    -0.02   0.01   0.11
  13   1    -0.02   0.03   0.03     0.03   0.12   0.10    -0.02  -0.16  -0.27
  14   1    -0.06   0.05  -0.04     0.10   0.03   0.16    -0.01   0.11   0.15
  15   1    -0.19  -0.02   0.11     0.17   0.20  -0.11    -0.12   0.11   0.05
  16   1     0.05   0.12  -0.21     0.01   0.05   0.09     0.03  -0.14  -0.17
  17   1     0.07   0.26   0.10    -0.00   0.04   0.05    -0.10  -0.18  -0.12
  18   1    -0.32  -0.22   0.05    -0.14  -0.14   0.06     0.16   0.03   0.01
  19   1    -0.02  -0.01   0.03     0.02   0.07   0.08     0.00  -0.04  -0.14
                     19                     20                     21
                        a                      a                      a 
 Frequencies --  1014.5575              1037.8008              1060.7570
 Red. masses --     7.1102                 7.3503                 7.4519
 Frc consts  --     0.0000                 0.0000                 0.0000
 IR Inten    --    30.2628                31.9277                48.9585
 Raman Activ --     0.0000                 0.0000                 0.0000
 Depolar     --     0.0000                 0.0000                 0.0000
 Atom AN      X      Y      Z        X      Y      Z        X      Y      Z
   1   7    -0.20  -0.13  -0.13    -0.10   0.11  -0.04     0.20   0.01  -0.10
   2   6     0.21   0.27   0.26     0.14  -0.24   0.07    -0.37   0.01  -0.04
   3   6    -0.09   0.02  -0.01    -0.06   0.26  -0.09     0.27   0.02   0.12
   4   6    -0.07  -0.32  -0.18     0.13  -0.04  -0.04    -0.28  -0.05  -0.07
   5   6     0.11   0.31   0.11     0.07  -0.17   0.39     0.33  -0.00   0.11
   6   8    -0.03  -0.02  -0.11    -0.16   0.08  -0.32    -0.14   0.06  -0.21
   7  17    -0.00  -0.00  -0.00     0.00   0.00  -0.00    -0.00  -0.00  -0.00
   8   1     0.19   0.05   0.08    -0.16  -0.06   0.03     0.11   0.01   0.02
   9   1    -0.05   0.05   0.08     0.18  -0.03   0.02     0.13   0.01   0.03
  10   1    -0.29   0.02   0.05    -0.09  -0.07   0.03    -0.06  -0.01   0.02
  11   1     0.11  -0.04  -0.07     0.11   0.10   0.30    -0.10  -0.03  -0.07
  12   1     0.15  -0.03   0.33     0.02   0.06  -0.18    -0.12  -0.02   0.00
  13   1    -0.02   0.04  -0.01    -0.02  -0.02  -0.04     0.07  -0.10   0.16
  14   1     0.01  -0.06  -0.09    -0.07   0.26   0.24    -0.10   0.07   0.05
  15   1     0.07  -0.24  -0.09    -0.03  -0.29  -0.01     0.15   0.03  -0.08
  16   1    -0.02  -0.15   0.07     0.03   0.03  -0.05    -0.07  -0.17   0.22
  17   1     0.01  -0.05  -0.06     0.01  -0.10   0.06     0.12  -0.02   0.34
  18   1     0.17   0.12  -0.00     0.05  -0.00   0.03    -0.11   0.04  -0.08
  19   1    -0.01  -0.02  -0.02    -0.04   0.04  -0.11    -0.01  -0.04   0.26
                     22                     23                     24
                        a                      a                      a 
 Frequencies --  1121.2215              1127.3178              1165.3196
 Red. masses --     6.8856                 6.5130                 6.1164
 Frc consts  --     0.0000                 0.0000                 0.0000
 IR Inten    --    19.1503                 0.3916                 1.4814
 Raman Activ --     0.0000                 0.0000                 0.0000
 Depolar     --     0.0000                 0.0000                 0.0000
 Atom AN      X      Y      Z        X      Y      Z        X      Y      Z
   1   7     0.09   0.09  -0.03     0.07  -0.05   0.03    -0.02   0.00   0.16
   2   6    -0.19  -0.16  -0.10    -0.16   0.15  -0.20     0.07   0.03  -0.35
   3   6     0.03   0.27   0.20     0.04  -0.13   0.28    -0.27   0.09   0.36
   4   6    -0.03  -0.39   0.02     0.11   0.07  -0.22     0.19  -0.18  -0.11
   5   6    -0.01   0.22  -0.27    -0.04  -0.08   0.42     0.01   0.09   0.03
   6   8     0.12  -0.05   0.17    -0.09  -0.02  -0.18    -0.02   0.01  -0.06
   7  17     0.00   0.00   0.00     0.00  -0.00   0.00     0.00   0.00   0.00
   8   1    -0.05  -0.02   0.01     0.06   0.02  -0.02    -0.08   0.02  -0.08
   9   1     0.11  -0.01  -0.01    -0.09   0.01  -0.02    -0.10  -0.04  -0.07
  10   1     0.01  -0.04   0.00     0.09   0.03  -0.03     0.14   0.04  -0.02
  11   1    -0.15   0.02   0.03    -0.08  -0.06  -0.22    -0.03  -0.00  -0.14
  12   1    -0.02   0.04  -0.14    -0.09  -0.04   0.03     0.09   0.01  -0.03
  13   1     0.02   0.15   0.33     0.03   0.21   0.24    -0.07   0.13  -0.16
  14   1    -0.06   0.10   0.08     0.10  -0.11  -0.01     0.13   0.06   0.24
  15   1    -0.03  -0.34  -0.00     0.09  -0.04  -0.08    -0.05   0.17   0.02
  16   1    -0.00  -0.05   0.01     0.05   0.29   0.02     0.02  -0.45  -0.12
  17   1    -0.02   0.22  -0.31    -0.05  -0.05  -0.17     0.01  -0.16   0.17
  18   1     0.02  -0.02   0.05     0.15  -0.08   0.20     0.05   0.08  -0.06
  19   1     0.02  -0.00  -0.07    -0.04   0.06  -0.30     0.01  -0.03   0.16
                     25                     26                     27
                        a                      a                      a 
 Frequencies --  1223.8728              1241.4159              1265.1862
 Red. masses --     3.1868                 2.7754                 2.4545
 Frc consts  --     0.0000                 0.0000                 0.0000
 IR Inten    --    10.9007                 7.1146                12.5739
 Raman Activ --     0.0000                 0.0000                 0.0000
 Depolar     --     0.0000                 0.0000                 0.0000
 Atom AN      X      Y      Z        X      Y      Z        X      Y      Z
   1   7    -0.00  -0.25   0.08    -0.02  -0.00   0.03    -0.02   0.08   0.03
   2   6    -0.04   0.27  -0.13     0.03  -0.03  -0.03     0.09   0.07  -0.10
   3   6     0.05  -0.01   0.02     0.01   0.07  -0.03     0.11  -0.15   0.13
   4   6    -0.07   0.01   0.05    -0.24  -0.05   0.05    -0.19   0.08   0.02
   5   6     0.00  -0.02  -0.09     0.24   0.04   0.12     0.00  -0.03  -0.05
   6   8     0.02   0.01   0.05    -0.04  -0.06  -0.07     0.02   0.00   0.03
   7  17    -0.00  -0.00   0.00     0.00   0.00   0.00     0.00   0.00  -0.00
   8   1     0.20   0.08  -0.06    -0.01   0.01  -0.02    -0.09  -0.01  -0.01
   9   1    -0.22   0.01   0.00    -0.00  -0.02  -0.02     0.01  -0.01  -0.03
  10   1     0.08   0.09  -0.03     0.02   0.00  -0.00     0.02  -0.02   0.00
  11   1     0.53   0.00   0.10     0.06   0.02   0.05    -0.29  -0.05  -0.28
  12   1    -0.43  -0.11  -0.13     0.03   0.00  -0.01     0.27   0.05   0.13
  13   1     0.01  -0.05  -0.10    -0.01  -0.15  -0.21     0.01  -0.28  -0.40
  14   1     0.01   0.19   0.29    -0.04   0.05   0.02     0.06   0.17   0.37
  15   1    -0.02  -0.22  -0.00     0.05   0.41   0.01     0.03  -0.34  -0.04
  16   1    -0.02   0.04   0.05    -0.07  -0.29   0.11    -0.03   0.22   0.11
  17   1     0.00   0.07  -0.04     0.03   0.32  -0.34    -0.00   0.08  -0.08
  18   1    -0.03   0.01  -0.04     0.03  -0.27   0.39    -0.05  -0.00  -0.03
  19   1     0.00  -0.00  -0.00    -0.02   0.04  -0.24     0.00   0.01  -0.02
                     28                     29                     30
                        a                      a                      a 
 Frequencies --  1326.5925              1335.6141              1352.7795
 Red. masses --     3.4280                 3.1815                 4.1293
 Frc consts  --     0.0000                 0.0000                 0.0000
 IR Inten    --    18.8720                 1.1201                31.5177
 Raman Activ --     0.0000                 0.0000                 0.0000
 Depolar     --     0.0000                 0.0000                 0.0000
 Atom AN      X      Y      Z        X      Y      Z        X      Y      Z
   1   7     0.16  -0.04  -0.10     0.08  -0.01  -0.07     0.05  -0.01  -0.05
   2   6     0.24   0.02   0.23     0.15   0.03   0.12     0.08   0.08   0.10
   3   6    -0.07   0.08   0.14    -0.06   0.02  -0.00    -0.02  -0.13  -0.29
   4   6     0.03   0.12   0.01    -0.04  -0.12  -0.07     0.01  -0.29   0.08
   5   6    -0.03   0.08  -0.07     0.10  -0.21   0.18    -0.12   0.09   0.06
   6   8     0.01  -0.02  -0.08    -0.02   0.05   0.15     0.07  -0.00  -0.15
   7  17     0.00  -0.00  -0.00     0.00   0.00   0.00    -0.00   0.00  -0.00
   8   1    -0.10  -0.09  -0.03    -0.06  -0.07   0.04    -0.05  -0.06   0.04
   9   1    -0.10   0.08   0.04    -0.08   0.07   0.04    -0.07   0.07   0.06
  10   1    -0.22   0.07   0.05    -0.08   0.00   0.02    -0.05   0.03   0.01
  11   1    -0.29  -0.06  -0.20    -0.19  -0.02  -0.13    -0.13  -0.02  -0.11
  12   1    -0.46  -0.04  -0.34    -0.24  -0.04  -0.15    -0.07  -0.01  -0.01
  13   1    -0.03  -0.06  -0.17    -0.02   0.04  -0.04     0.01   0.14   0.17
  14   1     0.01  -0.10  -0.13    -0.02   0.04   0.05    -0.01   0.27   0.38
  15   1    -0.02  -0.18  -0.00     0.06   0.21  -0.02    -0.01   0.36   0.05
  16   1    -0.00  -0.11  -0.02    -0.01  -0.06  -0.01     0.02   0.29  -0.02
  17   1    -0.01  -0.09   0.06     0.02   0.22  -0.18    -0.05  -0.01  -0.09
  18   1     0.02  -0.19   0.26    -0.09   0.38  -0.54     0.09  -0.04   0.13
  19   1     0.01  -0.02   0.10    -0.02   0.06  -0.26     0.05  -0.08   0.39
                     31                     32                     33
                        a                      a                      a 
 Frequencies --  1357.3005              1366.8611              1373.8507
 Red. masses --     4.9291                 3.2712                 3.1184
 Frc consts  --     0.0000                 0.0000                 0.0000
 IR Inten    --    18.7755                59.9100               124.2422
 Raman Activ --     0.0000                 0.0000                 0.0000
 Depolar     --     0.0000                 0.0000                 0.0000
 Atom AN      X      Y      Z        X      Y      Z        X      Y      Z
   1   7    -0.05   0.01  -0.01     0.16  -0.06   0.07    -0.27   0.06   0.00
   2   6     0.02   0.07   0.09    -0.09  -0.05  -0.10     0.08  -0.02   0.07
   3   6    -0.07  -0.27  -0.24     0.05   0.06   0.12    -0.01   0.11   0.13
   4   6     0.05   0.42   0.05    -0.02   0.08  -0.06     0.01  -0.05  -0.06
   5   6     0.01  -0.14   0.05    -0.14  -0.12   0.19    -0.10  -0.05   0.13
   6   8     0.04   0.01  -0.04     0.11   0.03  -0.14     0.08   0.02  -0.11
   7  17     0.00   0.00   0.00     0.00   0.00  -0.00    -0.01  -0.00  -0.01
   8   1     0.09   0.07  -0.02    -0.25  -0.04  -0.27     0.41   0.20   0.11
   9   1     0.10  -0.05  -0.03    -0.10   0.01  -0.01     0.31  -0.18  -0.09
  10   1     0.02  -0.02  -0.01    -0.27   0.23   0.08     0.31  -0.22  -0.09
  11   1    -0.11  -0.03  -0.11     0.13   0.05   0.14    -0.06  -0.04  -0.07
  12   1     0.02   0.00   0.05     0.10  -0.01   0.09    -0.14   0.02  -0.16
  13   1     0.00   0.25   0.28     0.01  -0.07  -0.08    -0.01  -0.10  -0.15
  14   1     0.04   0.08   0.20    -0.02  -0.11  -0.18    -0.01  -0.08  -0.14
  15   1    -0.10  -0.24   0.03     0.03  -0.07  -0.03    -0.01   0.03  -0.01
  16   1    -0.03  -0.51   0.01    -0.01  -0.00   0.00     0.00   0.08   0.03
  17   1    -0.01   0.16  -0.18    -0.08   0.19  -0.36    -0.06   0.08  -0.23
  18   1    -0.03  -0.04   0.01     0.01   0.09  -0.10     0.01   0.06  -0.05
  19   1     0.02  -0.02   0.10     0.07  -0.08   0.46     0.04  -0.08   0.34
                     34                     35                     36
                        a                      a                      a 
 Frequencies --  1409.7654              1442.8397              1470.9992
 Red. masses --     1.7699                 1.8601                 1.8157
 Frc consts  --     0.0000                 0.0000                 0.0000
 IR Inten    --    97.1245                75.8285                20.0977
 Raman Activ --     0.0000                 0.0000                 0.0000
 Depolar     --     0.0000                 0.0000                 0.0000
 Atom AN      X      Y      Z        X      Y      Z        X      Y      Z
   1   7    -0.04  -0.07   0.16     0.15   0.18   0.08     0.02   0.02   0.01
   2   6     0.03  -0.00   0.11     0.01   0.04  -0.02    -0.16  -0.01   0.21
   3   6    -0.01  -0.02  -0.06     0.02  -0.03  -0.01     0.01  -0.02   0.01
   4   6    -0.01  -0.08   0.03     0.00  -0.01   0.00    -0.01  -0.00   0.02
   5   6     0.03   0.04  -0.05    -0.01   0.00  -0.01    -0.01  -0.02   0.01
   6   8    -0.03  -0.01   0.05     0.00  -0.00  -0.00    -0.01  -0.01  -0.01
   7  17    -0.00  -0.00   0.01     0.00  -0.00  -0.00     0.00   0.00  -0.00
   8   1     0.07   0.32  -0.61     0.06   0.05   0.01    -0.06  -0.04   0.05
   9   1     0.34  -0.29  -0.21    -0.32  -0.26  -0.53    -0.10   0.00  -0.04
  10   1    -0.22   0.27   0.05    -0.28  -0.57   0.21    -0.04  -0.07   0.03
  11   1    -0.06  -0.05  -0.08    -0.00   0.05   0.07     0.39  -0.38  -0.37
  12   1    -0.03   0.03  -0.07    -0.06  -0.06   0.07     0.29   0.43  -0.41
  13   1     0.00   0.03   0.03     0.00   0.06  -0.02    -0.00   0.07  -0.03
  14   1    -0.02   0.05   0.05    -0.06   0.02  -0.00    -0.08   0.01  -0.03
  15   1     0.05   0.08  -0.01    -0.01   0.01   0.01     0.06   0.00  -0.02
  16   1     0.01   0.10  -0.06     0.00   0.02   0.01    -0.00  -0.01  -0.06
  17   1     0.02  -0.05   0.10     0.00   0.00   0.01     0.01   0.06   0.02
  18   1     0.01   0.01  -0.01     0.01  -0.00   0.01     0.06   0.02  -0.00
  19   1    -0.02   0.01  -0.15     0.00   0.00   0.01     0.00   0.02   0.01
                     37                     38                     39
                        a                      a                      a 
 Frequencies --  1492.4256              1495.9975              1502.5576
 Red. masses --     1.9020                 1.8840                 1.9262
 Frc consts  --     0.0000                 0.0000                 0.0000
 IR Inten    --     5.1537                 1.5969                 3.8066
 Raman Activ --     0.0000                 0.0000                 0.0000
 Depolar     --     0.0000                 0.0000                 0.0000
 Atom AN      X      Y      Z        X      Y      Z        X      Y      Z
   1   7    -0.02  -0.01  -0.01    -0.01   0.01  -0.01     0.02   0.00   0.01
   2   6     0.02  -0.02  -0.02     0.01   0.01  -0.03    -0.01   0.01   0.01
   3   6     0.13  -0.13   0.10    -0.03   0.01   0.00    -0.11   0.14  -0.07
   4   6     0.04  -0.01  -0.06    -0.14   0.02   0.20     0.05  -0.01  -0.11
   5   6    -0.12  -0.10  -0.07    -0.09  -0.08  -0.03    -0.12  -0.12  -0.05
   6   8    -0.01  -0.00  -0.01    -0.00   0.00  -0.03    -0.01  -0.01  -0.01
   7  17    -0.00  -0.00   0.00    -0.00   0.00  -0.00     0.00  -0.00   0.00
   8   1    -0.00  -0.00  -0.00     0.04   0.00   0.05    -0.01   0.00  -0.03
   9   1     0.04   0.02   0.05     0.00   0.01   0.01    -0.02  -0.02  -0.03
  10   1     0.03   0.05  -0.02     0.03  -0.03  -0.01    -0.03  -0.01   0.02
  11   1    -0.05   0.04   0.05    -0.04   0.04   0.03     0.01  -0.02  -0.03
  12   1    -0.02  -0.04   0.04    -0.03  -0.05   0.05    -0.00   0.02  -0.03
  13   1     0.01   0.40  -0.28    -0.01  -0.06   0.04    -0.01  -0.39   0.23
  14   1    -0.47   0.10  -0.09     0.08  -0.02   0.02     0.44  -0.10   0.06
  15   1    -0.15  -0.01   0.05     0.55  -0.06  -0.18    -0.25   0.03   0.07
  16   1     0.01   0.01   0.17    -0.04  -0.04  -0.60     0.01   0.01   0.28
  17   1     0.06   0.34   0.26     0.04   0.26   0.16     0.06   0.35   0.24
  18   1     0.43   0.05   0.03     0.31   0.03   0.04     0.41   0.07   0.01
  19   1    -0.00   0.00  -0.01    -0.00  -0.01   0.02    -0.00   0.01  -0.01
                     40                     41                     42
                        a                      a                      a 
 Frequencies --  2890.8109              2922.5211              2928.8693
 Red. masses --     1.8955                 1.9029                 1.7829
 Frc consts  --     0.0000                 0.0000                 0.0000
 IR Inten    --    35.3276                31.3878                15.8115
 Raman Activ --     0.0000                 0.0000                 0.0000
 Depolar     --     0.0000                 0.0000                 0.0000
 Atom AN      X      Y      Z        X      Y      Z        X      Y      Z
   1   7    -0.00   0.00   0.00     0.00  -0.01  -0.00     0.00  -0.00  -0.00
   2   6     0.00   0.00  -0.00    -0.00   0.04  -0.01    -0.00  -0.01   0.01
   3   6     0.01   0.01  -0.01    -0.19  -0.17   0.11     0.04   0.00  -0.01
   4   6     0.00   0.01  -0.01    -0.00  -0.00  -0.03    -0.15   0.02  -0.18
   5   6    -0.15   0.19   0.15     0.01   0.01   0.00     0.11   0.03   0.00
   6   8     0.00   0.00   0.01    -0.00   0.00   0.00     0.00  -0.00   0.01
   7  17    -0.00  -0.00  -0.00     0.00   0.00  -0.00    -0.00   0.00   0.00
   8   1     0.01  -0.01  -0.01    -0.01   0.02   0.01    -0.00   0.01   0.00
   9   1    -0.00  -0.00   0.00     0.01   0.01  -0.00    -0.00  -0.00   0.00
  10   1     0.00   0.00   0.00     0.00  -0.00   0.00     0.00  -0.00  -0.00
  11   1    -0.00  -0.00   0.00    -0.04  -0.12   0.08     0.01   0.03  -0.02
  12   1    -0.00   0.00   0.00     0.02  -0.04  -0.03    -0.00  -0.00  -0.00
  13   1    -0.03  -0.00   0.00     0.48  -0.04  -0.01    -0.18   0.00   0.01
  14   1    -0.01  -0.03   0.02     0.21   0.64  -0.42     0.00  -0.01   0.00
  15   1     0.02  -0.00   0.04     0.05  -0.01   0.12     0.22  -0.04   0.68
  16   1    -0.04   0.00   0.00    -0.06   0.00  -0.00     0.35  -0.02  -0.04
  17   1     0.39  -0.00  -0.04    -0.03   0.01   0.01    -0.46   0.05   0.07
  18   1     0.13  -0.68  -0.53     0.01  -0.05  -0.03     0.05  -0.15  -0.12
  19   1    -0.00  -0.00   0.00     0.01  -0.00  -0.00     0.01  -0.00   0.00
                     43                     44                     45
                        a                      a                      a 
 Frequencies --  2937.9687              2942.2696              2955.5449
 Red. masses --     1.6104                 1.8712                 1.5585
 Frc consts  --     0.0000                 0.0000                 0.0000
 IR Inten    --    63.9535                78.1193                90.3768
 Raman Activ --     0.0000                 0.0000                 0.0000
 Depolar     --     0.0000                 0.0000                 0.0000
 Atom AN      X      Y      Z        X      Y      Z        X      Y      Z
   1   7    -0.00   0.00   0.00     0.02  -0.04  -0.02     0.01  -0.02  -0.01
   2   6     0.01  -0.03  -0.01    -0.06   0.25   0.05    -0.03   0.07   0.03
   3   6    -0.03   0.01  -0.00     0.07  -0.01   0.01    -0.15   0.11  -0.06
   4   6     0.06  -0.01   0.12     0.02  -0.00   0.03     0.02   0.01  -0.06
   5   6     0.17   0.06   0.02     0.02   0.01   0.00     0.00  -0.00  -0.00
   6   8    -0.00  -0.00   0.01    -0.00   0.00   0.00     0.00  -0.00  -0.00
   7  17     0.00  -0.00  -0.00    -0.00   0.00   0.00    -0.00   0.00   0.00
   8   1     0.01  -0.02  -0.01    -0.08   0.14   0.07    -0.05   0.08   0.04
   9   1    -0.00   0.00  -0.00     0.00   0.01  -0.01    -0.00  -0.01   0.00
  10   1    -0.00   0.00   0.00     0.00  -0.00   0.01     0.00  -0.00  -0.00
  11   1     0.01   0.03  -0.02    -0.10  -0.27   0.21    -0.01  -0.02   0.02
  12   1    -0.04   0.07   0.04     0.34  -0.62  -0.38     0.12  -0.23  -0.14
  13   1     0.15   0.00  -0.01    -0.29   0.00   0.01     0.71   0.00  -0.04
  14   1    -0.02  -0.04   0.03     0.03   0.05  -0.04    -0.18  -0.41   0.27
  15   1    -0.16   0.03  -0.47    -0.04   0.01  -0.11     0.08  -0.01   0.22
  16   1    -0.06   0.00   0.02    -0.01   0.00   0.00    -0.15   0.01  -0.00
  17   1    -0.71   0.08   0.11    -0.08   0.01   0.01    -0.00   0.00   0.00
  18   1     0.09  -0.28  -0.22     0.01  -0.03  -0.02    -0.00   0.01   0.01
  19   1     0.03  -0.00  -0.00     0.01  -0.00  -0.00    -0.00   0.00   0.00
                     46                     47                     48
                        a                      a                      a 
 Frequencies --  2971.6323              2979.7316              2995.2854
 Red. masses --     1.6489                 1.6101                 1.9732
 Frc consts  --     0.0000                 0.0000                 0.0000
 IR Inten    --    12.3385                15.4585              1092.8648
 Raman Activ --     0.0000                 0.0000                 0.0000
 Depolar     --     0.0000                 0.0000                 0.0000
 Atom AN      X      Y      Z        X      Y      Z        X      Y      Z
   1   7     0.00  -0.01  -0.00    -0.00   0.01  -0.00    -0.11   0.22   0.10
   2   6     0.00  -0.03   0.01    -0.10  -0.11   0.17    -0.02   0.05   0.01
   3   6     0.06  -0.01   0.00    -0.02  -0.03   0.02    -0.00   0.01  -0.00
   4   6     0.21  -0.01  -0.08    -0.01  -0.00   0.01     0.01  -0.00  -0.01
   5   6     0.04   0.00  -0.01    -0.01   0.00   0.00     0.01  -0.00  -0.00
   6   8    -0.00  -0.00   0.00     0.00  -0.00   0.00     0.01   0.00  -0.00
   7  17     0.00   0.00  -0.00    -0.00  -0.00  -0.00     0.00  -0.01  -0.00
   8   1    -0.02   0.03   0.01    -0.00  -0.00  -0.00     0.41  -0.76  -0.35
   9   1     0.00   0.00  -0.00    -0.01  -0.02   0.02    -0.02  -0.02   0.03
  10   1    -0.00  -0.00   0.00    -0.00   0.00   0.00    -0.02   0.01  -0.04
  11   1     0.02   0.08  -0.05     0.20   0.72  -0.45    -0.02  -0.06   0.04
  12   1    -0.02   0.03   0.02     0.16  -0.32  -0.16     0.08  -0.14  -0.08
  13   1    -0.22   0.00   0.01     0.02  -0.00   0.00     0.02   0.00  -0.00
  14   1     0.02   0.04  -0.03     0.04   0.11  -0.08    -0.01  -0.01   0.01
  15   1     0.12  -0.02   0.26    -0.02   0.00  -0.05     0.01  -0.00   0.03
  16   1    -0.88   0.05   0.02     0.06  -0.00  -0.00    -0.05  -0.00  -0.00
  17   1    -0.14   0.01   0.02     0.02  -0.00  -0.00    -0.02   0.00   0.00
  18   1     0.01  -0.01  -0.01     0.00  -0.01  -0.00    -0.00   0.01   0.01
  19   1     0.01   0.00  -0.00    -0.01   0.00   0.00    -0.03  -0.00   0.00
                     49                     50                     51
                        a                      a                      a 
 Frequencies --  3199.4494              3211.0293              3242.5162
 Red. masses --     1.9145                 1.8238                 1.6892
 Frc consts  --     0.0000                 0.0000                 0.0000
 IR Inten    --   323.7045                31.6053                44.9195
 Raman Activ --     0.0000                 0.0000                 0.0000
 Depolar     --     0.0000                 0.0000                 0.0000
 Atom AN      X      Y      Z        X      Y      Z        X      Y      Z
   1   7     0.00  -0.00  -0.01     0.05   0.17  -0.17     0.09   0.05   0.20
   2   6     0.00   0.00  -0.00     0.01   0.01  -0.01     0.00   0.00   0.00
   3   6     0.00  -0.00   0.00     0.00  -0.00   0.00     0.00  -0.00  -0.00
   4   6     0.00  -0.00   0.00     0.00  -0.00   0.00    -0.00  -0.00   0.00
   5   6     0.01  -0.00   0.01     0.00  -0.00  -0.00     0.00   0.00   0.00
   6   8     0.24  -0.01  -0.02    -0.00   0.00   0.00     0.00  -0.00  -0.00
   7  17    -0.00  -0.00   0.00     0.00  -0.00   0.00    -0.00  -0.00  -0.00
   8   1    -0.02   0.02   0.01    -0.02   0.06   0.00    -0.02   0.05   0.04
   9   1    -0.00  -0.01   0.00    -0.25  -0.75   0.54    -0.02  -0.09   0.09
  10   1     0.01   0.00   0.02     0.04   0.04   0.10    -0.31  -0.14  -0.90
  11   1    -0.00  -0.01   0.00    -0.00  -0.02   0.01     0.00   0.00  -0.00
  12   1    -0.00   0.00   0.00    -0.01   0.01   0.00    -0.00   0.00  -0.00
  13   1    -0.00   0.00   0.00    -0.01  -0.00  -0.00    -0.00   0.00   0.00
  14   1     0.00   0.00  -0.00     0.00   0.00  -0.00     0.00   0.00  -0.00
  15   1    -0.00   0.00  -0.01    -0.00  -0.00  -0.00    -0.00   0.00  -0.00
  16   1    -0.01   0.00   0.00    -0.00   0.00   0.00     0.00   0.00   0.00
  17   1    -0.03   0.00   0.00    -0.00  -0.00   0.00    -0.00   0.00   0.00
  18   1     0.00  -0.01  -0.01     0.00   0.00   0.00     0.00  -0.00  -0.00
  19   1    -0.96   0.06   0.08     0.01  -0.00  -0.00    -0.02   0.00   0.00
