43
 energy: -67.899252416953 gnorm: 0.000450388215 xtb: 6.5.1 (fef0646)
N            1.79603534286077       -0.44329986944651        1.01638113815999
C            2.33367503842500       -1.60550457261009        0.28646513077063
C            3.69313413569996       -1.25520004457539       -0.32239404147504
O            4.65264126215246       -0.93961164988119        0.67516503403064
C            5.36617470492466       -1.93162257521830        1.27608750904805
C            5.16520743943368       -3.27839653822419        1.09394025101623
C            5.96496809471685       -4.20358453957165        1.76163946311801
C            6.96966232753756       -3.82891949936912        2.63436154155108
C            7.18333273265679       -2.44103086226989        2.85578624746771
C            8.18065718161487       -1.97994563980757        3.75716150132717
C            8.37954702635180       -0.61589194023192        3.89229231325596
C            7.61631965814918        0.30993446823372        3.18492023388528
C            6.62932971273424       -0.11464480185644        2.33808577233091
C            6.39256537590917       -1.49005005652639        2.16022618319408
C            7.80707277881069       -4.80099972425505        3.32327948730777
C            7.69344268491905       -6.16351774350784        3.10242653598491
C            8.48616430651061       -7.08726148087625        3.78249246420802
C            9.40397019020224       -6.66333464814058        4.70293821852326
C            9.56710067662469       -5.28799018682014        4.96023195445644
C           10.50882610493812       -4.84430719568183        5.90924539587692
C           10.65840572116669       -3.50838393373215        6.15877440129255
C            9.89424125992505       -2.57318555902434        5.46146850932379
C            8.96538411439151       -2.95406257476857        4.50758448794905
C            8.77423819914718       -4.34027564258472        4.25778665902530
Cl          -0.64368808149742       -1.37352081337968        2.55859810992597
H            0.93140080576483       -0.72022688402755        1.55260104128411
H            1.54685827546750        0.31847948204047        0.38066454816739
H            2.48986891862056       -0.10803822140047        1.69112915200518
H            1.63718003724219       -1.89569959612101       -0.49798446573405
H            2.42743535019028       -2.43254562931828        0.99028876295042
H            3.61458745224940       -0.34278111473596       -0.91804338871112
H            4.04726826426914       -2.06302313408378       -0.96704161040843
H            4.39601850205139       -3.65448684425820        0.43948069620959
H            5.76275642858753       -5.24585028448923        1.57803071061878
H            9.14397945877589       -0.23790841462728        4.55109991579597
H            7.80938775602603        1.36397580813845        3.31514197611915
H            6.03014569335909        0.59099349408874        1.78672932410973
H            6.98084497190203       -6.54592902589908        2.39011162803311
H            8.36206958151065       -8.14099503166982        3.57890083982172
H           10.01568990143589       -7.37014371502622        5.24417585626861
H           11.10262156285021       -5.57758447229900        6.43491747911709
H           11.37158477908257       -3.16504870482410        6.89357918327225
H           10.04749427231909       -1.53187008733358        5.69289384948160
