 Entering Gaussian System
 *********************************************
 Gaussian 98:
 frequency output generated by the xtb code
 *********************************************
                         Standard orientation:
 --------------------------------------------------------------------
  Center     Atomic     Atomic              Coordinates (Angstroms)
  Number     Number      Type              X           Y           Z
 --------------------------------------------------------------------
    1          7             0        0.554221   -1.293534   -0.640080
    2          6             0        1.526757   -0.950057    0.433206
    3          6             0        1.656185    0.556043    0.643933
    4          6             0        2.249505    1.274837   -0.556780
    5         17             0       -2.479969    0.235993    0.116188
    6          1             0        0.864050   -0.936987   -1.557712
    7          1             0       -0.373186   -0.870639   -0.442917
    8          1             0        0.419675   -2.313714   -0.734007
    9          1             0        2.507754   -1.376383    0.190204
   10          1             0        1.218257   -1.437304    1.367188
   11          1             0        2.267760    0.755811    1.535171
   12          1             0        0.667128    0.972118    0.876876
   13          1             0        1.617871    1.167629   -1.441098
   14          1             0        3.232522    0.872242   -0.811753
   15          1             0        2.371671    2.346007   -0.374712
 --------------------------------------------------------------------
     1 basis functions        1 primitive gaussians
     1 alpha electrons        1 beta electrons

 Harmonic frequencies (cm**-1), IR intensities (km*mol⁻¹),
 Raman scattering activities (A**4/amu), Raman depolarization ratios,
 reduced masses (AMU), force constants (mDyne/A) and normal coordinates:
                      1                      2                      3
                        a                      a                      a 
 Frequencies --  -136.0421                72.2751               126.0560
 Red. masses --    21.9416                15.7906                 9.5000
 Frc consts  --     0.0000                 0.0000                 0.0000
 IR Inten    --   144.9217                 7.4471                 5.7739
 Raman Activ --     0.0000                 0.0000                 0.0000
 Depolar     --     0.0000                 0.0000                 0.0000
 Atom AN      X      Y      Z        X      Y      Z        X      Y      Z
   1   7     0.52  -0.24  -0.14     0.18  -0.21  -0.04    -0.07   0.21   0.17
   2   6     0.25  -0.06   0.03     0.05  -0.11   0.04     0.16  -0.07   0.04
   3   6     0.04  -0.04  -0.01    -0.23  -0.10   0.08     0.50  -0.11   0.19
   4   6     0.02  -0.01  -0.01    -0.61   0.06  -0.01    -0.22   0.01  -0.10
   5  17    -0.61   0.26   0.10     0.43   0.25  -0.04    -0.23  -0.04  -0.20
   6   1     0.17  -0.06  -0.03     0.10  -0.12  -0.02    -0.01   0.03   0.03
   7   1     0.14  -0.10  -0.08     0.07   0.00  -0.07    -0.00   0.11   0.04
   8   1     0.17  -0.07  -0.03     0.01  -0.06   0.03    -0.09   0.07   0.05
   9   1     0.10   0.01   0.06     0.04   0.01   0.03     0.01  -0.07  -0.05
  10   1     0.04  -0.02  -0.00     0.02  -0.05   0.00     0.07  -0.03   0.02
  11   1    -0.01   0.02   0.00    -0.03  -0.00  -0.01     0.31  -0.09  -0.05
  12   1    -0.00  -0.04  -0.02    -0.08  -0.09   0.07     0.20  -0.00   0.25
  13   1     0.01  -0.01  -0.00    -0.25   0.03   0.05    -0.27   0.10   0.10
  14   1     0.01   0.01   0.00    -0.19   0.05  -0.09    -0.14  -0.05  -0.27
  15   1    -0.01  -0.00  -0.00    -0.18   0.02   0.02     0.05  -0.02   0.01
                      4                      5                      6
                        a                      a                      a 
 Frequencies --   170.2372               274.9714               299.7709
 Red. masses --     7.8352                 4.4017                 2.8917
 Frc consts  --     0.0000                 0.0000                 0.0000
 IR Inten    --    12.3248                 8.9693                 0.8384
 Raman Activ --     0.0000                 0.0000                 0.0000
 Depolar     --     0.0000                 0.0000                 0.0000
 Atom AN      X      Y      Z        X      Y      Z        X      Y      Z
   1   7    -0.24  -0.23   0.30     0.08   0.35   0.01     0.01  -0.02  -0.17
   2   6     0.34  -0.08  -0.26     0.11  -0.07   0.07    -0.22  -0.01   0.07
   3   6     0.02  -0.08  -0.06     0.01  -0.09   0.09     0.20  -0.01  -0.00
   4   6     0.03   0.25   0.14    -0.17  -0.27  -0.10     0.04   0.13  -0.00
   5  17    -0.08   0.11  -0.11    -0.01   0.02  -0.02    -0.01  -0.06   0.06
   6   1    -0.16  -0.16   0.01    -0.03   0.29   0.06     0.24  -0.37  -0.11
   7   1    -0.02   0.02   0.14    -0.00  -0.00   0.10     0.10   0.30  -0.27
   8   1    -0.13  -0.06   0.18     0.09   0.10  -0.18    -0.29   0.01   0.23
   9   1     0.09   0.06  -0.26     0.03  -0.01  -0.01    -0.08  -0.11   0.14
  10   1     0.29  -0.09  -0.04     0.04  -0.07  -0.00    -0.20   0.09   0.02
  11   1    -0.04  -0.01   0.01     0.02   0.04   0.00     0.12  -0.06  -0.03
  12   1    -0.03  -0.09  -0.03    -0.01  -0.05   0.03     0.09   0.04   0.07
  13   1     0.13  -0.06  -0.03     0.13  -0.45  -0.11     0.11  -0.17  -0.05
  14   1     0.10   0.24   0.15     0.12   0.19   0.21     0.13   0.25   0.11
  15   1    -0.20   0.10   0.04    -0.42  -0.00  -0.23    -0.26   0.08  -0.06
                      7                      8                      9
                        a                      a                      a 
 Frequencies --   350.8635               451.6070               804.0625
 Red. masses --     5.3107                 7.5489                 2.6954
 Frc consts  --     0.0000                 0.0000                 0.0000
 IR Inten    --     3.0418                 9.9907                33.1779
 Raman Activ --     0.0000                 0.0000                 0.0000
 Depolar     --     0.0000                 0.0000                 0.0000
 Atom AN      X      Y      Z        X      Y      Z        X      Y      Z
   1   7    -0.07  -0.32  -0.02     0.07   0.24   0.18     0.06  -0.02   0.13
   2   6    -0.25  -0.04   0.08     0.07  -0.35   0.24    -0.18  -0.04   0.10
   3   6     0.26  -0.02  -0.07    -0.07  -0.27  -0.38    -0.24  -0.03  -0.13
   4   6    -0.00   0.31  -0.01     0.03   0.24  -0.09    -0.01   0.03  -0.10
   5  17     0.05   0.06  -0.02    -0.02  -0.01  -0.00     0.01  -0.00   0.00
   6   1    -0.16   0.20   0.06     0.10   0.15   0.11     0.26   0.09   0.15
   7   1    -0.13  -0.38   0.10     0.06   0.16   0.07    -0.01   0.04  -0.16
   8   1     0.30  -0.11  -0.20    -0.12   0.09  -0.09    -0.01   0.01  -0.11
   9   1    -0.09  -0.12   0.13    -0.01  -0.22   0.15     0.00   0.23  -0.21
  10   1    -0.17   0.10   0.05    -0.08   0.01   0.10     0.25  -0.17   0.04
  11   1     0.16  -0.09  -0.06    -0.15   0.05  -0.05     0.31  -0.17  -0.25
  12   1     0.12   0.06   0.09    -0.09  -0.16  -0.23     0.09   0.13   0.36
  13   1     0.03   0.02  -0.02     0.03   0.24  -0.06     0.22   0.15  -0.20
  14   1     0.06   0.25  -0.00     0.02   0.12  -0.08     0.03  -0.05   0.20
  15   1    -0.17   0.10   0.04     0.00   0.04   0.18     0.07  -0.02   0.11
                     10                     11                     12
                        a                      a                      a 
 Frequencies --   844.9535               883.2387               965.2042
 Red. masses --     3.8644                 6.1784                 3.2037
 Frc consts  --     0.0000                 0.0000                 0.0000
 IR Inten    --    19.1036                 9.2862                11.6279
 Raman Activ --     0.0000                 0.0000                 0.0000
 Depolar     --     0.0000                 0.0000                 0.0000
 Atom AN      X      Y      Z        X      Y      Z        X      Y      Z
   1   7     0.20   0.10   0.08     0.08   0.21   0.21    -0.24   0.09  -0.07
   2   6     0.09   0.16  -0.24    -0.17   0.32  -0.12     0.27   0.00   0.06
   3   6    -0.14  -0.12  -0.18     0.09  -0.30  -0.21     0.08   0.02   0.00
   4   6    -0.14  -0.09   0.10    -0.02  -0.22   0.12    -0.16   0.08   0.03
   5  17    -0.01  -0.00  -0.01     0.00   0.01   0.01     0.00   0.00   0.01
   6   1    -0.31  -0.06  -0.13     0.14  -0.09   0.03     0.14  -0.08   0.01
   7   1     0.12   0.03   0.32    -0.13  -0.15  -0.23    -0.22  -0.16  -0.34
   8   1    -0.00   0.02   0.18     0.34  -0.00   0.25     0.21  -0.02   0.07
   9   1     0.04  -0.10   0.27    -0.08   0.07  -0.15    -0.09  -0.33  -0.05
  10   1    -0.28   0.23  -0.06     0.06   0.10   0.01     0.00   0.19   0.09
  11   1     0.19  -0.15  -0.18    -0.08  -0.12   0.02     0.05   0.22  -0.07
  12   1     0.03  -0.04   0.23     0.02  -0.03  -0.18    -0.10  -0.33   0.10
  13   1     0.14   0.06  -0.10    -0.08   0.03   0.08     0.15   0.01  -0.13
  14   1    -0.03  -0.12   0.22     0.03   0.15  -0.12    -0.06  -0.21   0.29
  15   1     0.05  -0.05   0.11    -0.17  -0.08   0.25     0.16   0.01  -0.08
                     13                     14                     15
                        a                      a                      a 
 Frequencies --   992.5284              1006.0545              1096.8291
 Red. masses --     6.8160                 5.2000                 6.9504
 Frc consts  --     0.0000                 0.0000                 0.0000
 IR Inten    --    14.2290                31.4783                 5.1673
 Raman Activ --     0.0000                 0.0000                 0.0000
 Depolar     --     0.0000                 0.0000                 0.0000
 Atom AN      X      Y      Z        X      Y      Z        X      Y      Z
   1   7    -0.21  -0.06  -0.35    -0.10  -0.25   0.04     0.16  -0.03   0.17
   2   6     0.23   0.16   0.41     0.13   0.21  -0.12    -0.22  -0.25  -0.32
   3   6     0.07   0.01  -0.05     0.09   0.11  -0.25     0.22   0.37   0.09
   4   6    -0.07  -0.26  -0.01    -0.10  -0.18   0.30    -0.17  -0.20   0.02
   5  17     0.00   0.00  -0.00    -0.00  -0.00   0.00    -0.00  -0.00   0.00
   6   1    -0.20  -0.06  -0.15     0.24   0.21   0.21     0.06   0.03   0.06
   7   1    -0.03  -0.02   0.02     0.06   0.15  -0.03     0.06   0.03   0.06
   8   1    -0.07  -0.02  -0.01    -0.28   0.00  -0.38     0.00  -0.00   0.01
   9   1     0.10   0.16   0.07     0.00  -0.06   0.05    -0.11  -0.17  -0.12
  10   1     0.07  -0.08   0.04     0.07   0.38   0.14    -0.08  -0.11  -0.11
  11   1     0.08   0.22  -0.10     0.01  -0.07  -0.03     0.02   0.42  -0.03
  12   1     0.04   0.06  -0.04     0.04   0.05  -0.06     0.01   0.07  -0.13
  13   1     0.08   0.21  -0.10    -0.09  -0.08   0.13     0.10   0.17  -0.12
  14   1     0.07   0.15  -0.01    -0.04  -0.04   0.04     0.02   0.04   0.12
  15   1    -0.15  -0.12   0.42    -0.06  -0.04   0.05    -0.05  -0.10   0.29
                     16                     17                     18
                        a                      a                      a 
 Frequencies --  1138.3359              1167.5154              1240.8969
 Red. masses --     7.4447                 6.6320                 3.0387
 Frc consts  --     0.0000                 0.0000                 0.0000
 IR Inten    --     7.2542                 1.8267                10.5046
 Raman Activ --     0.0000                 0.0000                 0.0000
 Depolar     --     0.0000                 0.0000                 0.0000
 Atom AN      X      Y      Z        X      Y      Z        X      Y      Z
   1   7     0.04   0.15  -0.09    -0.16   0.09   0.09    -0.19  -0.00   0.12
   2   6    -0.04  -0.29   0.18     0.33  -0.24  -0.16     0.13  -0.01  -0.09
   3   6     0.06   0.21  -0.45    -0.36   0.27   0.05     0.20  -0.07  -0.03
   4   6    -0.09   0.02   0.41     0.21  -0.14  -0.02    -0.22   0.07  -0.00
   5  17     0.00   0.00  -0.00     0.00   0.00   0.00    -0.00   0.00   0.00
   6   1    -0.11  -0.10  -0.11     0.12  -0.05   0.05     0.16  -0.01   0.10
   7   1    -0.04  -0.08   0.03    -0.14  -0.07  -0.19    -0.10  -0.01  -0.15
   8   1     0.09   0.01   0.14     0.14  -0.00   0.03     0.07  -0.01  -0.06
   9   1     0.00   0.02  -0.07     0.09  -0.19   0.20     0.27   0.33   0.35
  10   1     0.11  -0.16   0.04    -0.17   0.04  -0.07    -0.27  -0.25  -0.25
  11   1     0.11   0.03  -0.18     0.10  -0.11  -0.07    -0.09  -0.13   0.11
  12   1     0.11   0.25  -0.11     0.02   0.24   0.17     0.10   0.21  -0.25
  13   1    -0.13  -0.21   0.21    -0.12   0.03   0.11     0.11   0.01  -0.12
  14   1    -0.09  -0.15   0.08     0.08   0.19  -0.23    -0.05  -0.11   0.19
  15   1     0.02   0.04  -0.15    -0.16  -0.03   0.11     0.10   0.00  -0.02
                     19                     20                     21
                        a                      a                      a 
 Frequencies --  1261.1699              1323.1649              1358.7933
 Red. masses --     2.3780                 3.6712                 4.5532
 Frc consts  --     0.0000                 0.0000                 0.0000
 IR Inten    --     4.9931                14.7711                 2.5933
 Raman Activ --     0.0000                 0.0000                 0.0000
 Depolar     --     0.0000                 0.0000                 0.0000
 Atom AN      X      Y      Z        X      Y      Z        X      Y      Z
   1   7     0.03   0.07  -0.11     0.12  -0.08   0.13     0.05  -0.06   0.04
   2   6     0.08  -0.12   0.06     0.14   0.28   0.20     0.13   0.20  -0.01
   3   6     0.02   0.09   0.11     0.02   0.18  -0.16    -0.18  -0.42   0.17
   4   6    -0.19  -0.01  -0.15    -0.01  -0.03  -0.01    -0.02   0.10   0.08
   5  17     0.00  -0.00  -0.00     0.00  -0.00   0.00     0.00  -0.00   0.00
   6   1    -0.05  -0.05  -0.07    -0.16   0.05  -0.01    -0.05   0.06   0.02
   7   1     0.00  -0.05   0.06    -0.01  -0.01  -0.18     0.01   0.01  -0.08
   8   1     0.02   0.01   0.07    -0.17   0.02  -0.11    -0.08   0.00  -0.03
   9   1    -0.10  -0.23  -0.13    -0.21  -0.34  -0.23    -0.13  -0.24  -0.14
  10   1     0.21   0.23   0.21    -0.23  -0.44  -0.30    -0.09  -0.02  -0.08
  11   1    -0.19  -0.46   0.27    -0.07  -0.29   0.09     0.13   0.36  -0.18
  12   1     0.12   0.42  -0.18    -0.04  -0.10   0.05     0.16   0.51  -0.20
  13   1     0.12   0.11  -0.17    -0.03  -0.02   0.02     0.08  -0.01  -0.04
  14   1    -0.01  -0.03   0.16    -0.00  -0.03   0.05    -0.04   0.00  -0.09
  15   1     0.04  -0.03   0.09    -0.04  -0.02   0.06     0.06   0.05  -0.16
                     22                     23                     24
                        a                      a                      a 
 Frequencies --  1377.6486              1404.0826              1440.2032
 Red. masses --     2.5438                 1.6077                 2.9196
 Frc consts  --     0.0000                 0.0000                 0.0000
 IR Inten    --   136.8661                68.9422                25.6731
 Raman Activ --     0.0000                 0.0000                 0.0000
 Depolar     --     0.0000                 0.0000                 0.0000
 Atom AN      X      Y      Z        X      Y      Z        X      Y      Z
   1   7    -0.27  -0.08  -0.13     0.01  -0.13   0.13     0.02   0.07   0.15
   2   6     0.04   0.13   0.07    -0.03  -0.10  -0.00    -0.02  -0.00  -0.02
   3   6    -0.02  -0.01  -0.05     0.02   0.03  -0.01    -0.02  -0.09   0.05
   4   6     0.02   0.01  -0.01    -0.02  -0.02   0.04     0.13   0.19  -0.27
   5  17    -0.00  -0.00  -0.00    -0.00  -0.01   0.01     0.00   0.00   0.00
   6   1     0.30  -0.07   0.08    -0.49   0.17  -0.08    -0.07  -0.33  -0.14
   7   1     0.25   0.41   0.41     0.14   0.53  -0.48    -0.01   0.02  -0.03
   8   1     0.53  -0.09   0.02     0.33  -0.05  -0.06     0.07   0.03  -0.40
   9   1    -0.10  -0.17  -0.07     0.04   0.07   0.03     0.00   0.02  -0.01
  10   1    -0.03  -0.16  -0.09     0.04   0.09   0.08     0.02   0.06   0.03
  11   1    -0.03  -0.02   0.01    -0.04   0.00   0.03    -0.00   0.11  -0.02
  12   1     0.02   0.04   0.04     0.01   0.01   0.02     0.04   0.09  -0.00
  13   1    -0.04  -0.01   0.03     0.05   0.03  -0.04    -0.25  -0.26   0.20
  14   1    -0.00  -0.02   0.03    -0.01   0.01  -0.04    -0.03  -0.29   0.29
  15   1    -0.01   0.00   0.01     0.01   0.01  -0.05    -0.15  -0.03   0.38
                     25                     26                     27
                        a                      a                      a 
 Frequencies --  1449.6339              1485.5040              1494.0046
 Red. masses --     2.2245                 1.8892                 1.8956
 Frc consts  --     0.0000                 0.0000                 0.0000
 IR Inten    --    61.3646                15.8159                 3.5583
 Raman Activ --     0.0000                 0.0000                 0.0000
 Depolar     --     0.0000                 0.0000                 0.0000
 Atom AN      X      Y      Z        X      Y      Z        X      Y      Z
   1   7    -0.00  -0.12  -0.17     0.00  -0.02  -0.02     0.01   0.03   0.02
   2   6     0.01   0.01  -0.04     0.14  -0.18   0.13    -0.04   0.05  -0.06
   3   6    -0.01  -0.04  -0.00     0.02  -0.03  -0.08     0.07  -0.10  -0.23
   4   6     0.12   0.12  -0.17    -0.00  -0.00  -0.03    -0.01   0.00   0.06
   5  17    -0.00  -0.00   0.00     0.00  -0.00  -0.00     0.00   0.00   0.00
   6   1     0.01   0.51   0.19     0.04   0.06   0.04     0.00  -0.05  -0.02
   7   1     0.01   0.02  -0.09     0.02  -0.00   0.03    -0.03  -0.06  -0.01
   8   1    -0.09  -0.04   0.53    -0.00  -0.01   0.08    -0.04   0.01  -0.04
   9   1     0.02  -0.05   0.11     0.01   0.32  -0.54     0.00  -0.10   0.17
  10   1     0.07  -0.05  -0.01    -0.55   0.30  -0.02     0.16  -0.10  -0.01
  11   1    -0.04   0.05   0.01    -0.17   0.08   0.10    -0.49   0.26   0.26
  12   1     0.03   0.06   0.03     0.08   0.07   0.20     0.22   0.17   0.58
  13   1    -0.19  -0.11   0.14    -0.05  -0.01   0.03     0.12  -0.04  -0.08
  14   1    -0.03  -0.24   0.22     0.03   0.03   0.06    -0.05  -0.03  -0.14
  15   1    -0.18  -0.01   0.22     0.03  -0.01   0.02    -0.03  -0.00   0.00
                     28                     29                     30
                        a                      a                      a 
 Frequencies --  1509.5537              1514.8073              2833.4078
 Red. masses --     1.5996                 1.5267                 2.0026
 Frc consts  --     0.0000                 0.0000                 0.0000
 IR Inten    --     2.5254                 8.5670              1762.4260
 Raman Activ --     0.0000                 0.0000                 0.0000
 Depolar     --     0.0000                 0.0000                 0.0000
 Atom AN      X      Y      Z        X      Y      Z        X      Y      Z
   1   7    -0.01   0.00  -0.01     0.00   0.02   0.02    -0.24   0.12   0.07
   2   6     0.02  -0.04   0.02    -0.00   0.00   0.00     0.02  -0.01  -0.01
   3   6     0.01   0.07   0.05     0.04  -0.04  -0.00     0.01  -0.00   0.00
   4   6     0.07   0.14   0.13     0.17  -0.12   0.04    -0.00   0.00   0.00
   5  17    -0.00   0.00  -0.00     0.00   0.00  -0.00     0.01  -0.01  -0.00
   6   1     0.04  -0.00   0.01    -0.01  -0.07  -0.03    -0.00   0.02  -0.03
   7   1     0.01  -0.00   0.03    -0.01  -0.02   0.01     0.85  -0.39  -0.20
   8   1     0.01  -0.00   0.01    -0.00   0.01  -0.06    -0.02  -0.02   0.01
   9   1     0.00   0.05  -0.09     0.00   0.01  -0.00    -0.07   0.04   0.03
  10   1    -0.08   0.05   0.00    -0.01   0.00  -0.00     0.00  -0.01   0.00
  11   1     0.06  -0.08  -0.01    -0.03   0.02   0.02    -0.01  -0.00  -0.02
  12   1    -0.05  -0.05  -0.08     0.03   0.03   0.00    -0.01   0.00   0.00
  13   1     0.38  -0.17  -0.25    -0.13   0.61   0.03    -0.00  -0.00  -0.00
  14   1    -0.29  -0.44  -0.46    -0.04  -0.25   0.21     0.00  -0.00  -0.00
  15   1    -0.38   0.03   0.17    -0.53   0.12  -0.38     0.00  -0.01  -0.00
                     31                     32                     33
                        a                      a                      a 
 Frequencies --  2922.3176              2939.9426              2956.4136
 Red. masses --     1.9035                 1.8986                 1.6478
 Frc consts  --     0.0000                 0.0000                 0.0000
 IR Inten    --     6.6074                 1.1623                 4.9693
 Raman Activ --     0.0000                 0.0000                 0.0000
 Depolar     --     0.0000                 0.0000                 0.0000
 Atom AN      X      Y      Z        X      Y      Z        X      Y      Z
   1   7    -0.00   0.00   0.00    -0.02   0.01   0.01    -0.01   0.00   0.00
   2   6     0.02  -0.01  -0.01    -0.21  -0.00   0.17    -0.07  -0.02   0.09
   3   6    -0.23   0.00  -0.16     0.02  -0.04  -0.06    -0.13   0.10   0.13
   4   6     0.02   0.00   0.01     0.00   0.00   0.00     0.03  -0.04  -0.02
   5  17     0.00  -0.00  -0.00     0.00  -0.00  -0.00     0.00   0.00  -0.00
   6   1     0.00   0.00  -0.00    -0.00  -0.00   0.01    -0.00  -0.00   0.01
   7   1     0.02  -0.00  -0.00     0.06  -0.03  -0.01     0.02  -0.01  -0.00
   8   1     0.00  -0.00   0.00    -0.00  -0.01  -0.00     0.00   0.00   0.00
   9   1    -0.12   0.05   0.03     0.61  -0.27  -0.14     0.15  -0.07  -0.03
  10   1     0.01  -0.00  -0.00     0.15   0.26  -0.49     0.09   0.14  -0.27
  11   1     0.47   0.15   0.68     0.14   0.04   0.19    -0.25  -0.06  -0.31
  12   1     0.38  -0.17  -0.11    -0.25   0.10   0.05     0.71  -0.29  -0.14
  13   1    -0.05  -0.01  -0.07    -0.01  -0.00  -0.02     0.03  -0.00   0.03
  14   1    -0.05   0.02   0.02     0.00   0.00   0.00    -0.16   0.06   0.04
  15   1     0.00  -0.02  -0.00     0.00  -0.01  -0.00     0.01   0.08   0.01
                     34                     35                     36
                        a                      a                      a 
 Frequencies --  2969.9615              2988.2374              2991.8948
 Red. masses --     1.5265                 1.9389                 1.9317
 Frc consts  --     0.0000                 0.0000                 0.0000
 IR Inten    --     3.8976                46.0064                22.3830
 Raman Activ --     0.0000                 0.0000                 0.0000
 Depolar     --     0.0000                 0.0000                 0.0000
 Atom AN      X      Y      Z        X      Y      Z        X      Y      Z
   1   7     0.02  -0.00  -0.00    -0.00   0.00  -0.00    -0.00   0.00   0.00
   2   6     0.10  -0.14   0.12    -0.02   0.01  -0.00     0.01  -0.00  -0.01
   3   6     0.04  -0.02  -0.00    -0.05   0.02  -0.00     0.01  -0.02  -0.03
   4   6    -0.02   0.02  -0.01    -0.27   0.06  -0.08    -0.02  -0.25  -0.15
   5  17    -0.00   0.00   0.00    -0.00  -0.00   0.00     0.00   0.00   0.00
   6   1    -0.01  -0.01   0.03    -0.00   0.00   0.00     0.00   0.00   0.00
   7   1    -0.04   0.02   0.01     0.01  -0.00  -0.00     0.01  -0.00  -0.00
   8   1     0.00   0.00   0.00    -0.00  -0.00  -0.00    -0.00  -0.00   0.00
   9   1    -0.58   0.22   0.17     0.07  -0.03  -0.02    -0.04   0.02   0.01
  10   1     0.23   0.29  -0.61    -0.01  -0.01   0.02    -0.00  -0.01   0.01
  11   1    -0.00  -0.01  -0.01     0.02   0.01   0.03     0.05   0.02   0.07
  12   1    -0.13   0.05   0.03     0.14  -0.06  -0.03    -0.10   0.04   0.02
  13   1     0.03   0.01   0.04     0.34   0.08   0.49     0.27   0.01   0.34
  14   1     0.07  -0.03  -0.02     0.64  -0.28  -0.18    -0.29   0.09   0.05
  15   1    -0.01  -0.04  -0.01    -0.04  -0.02  -0.02     0.08   0.77   0.13
                     37                     38                     39
                        a                      a                      a 
 Frequencies --  3005.6224              3189.8238              3204.5708
 Red. masses --     1.2784                 1.9713                 1.5581
 Frc consts  --     0.0000                 0.0000                 0.0000
 IR Inten    --    19.3221                53.9790                26.2987
 Raman Activ --     0.0000                 0.0000                 0.0000
 Depolar     --     0.0000                 0.0000                 0.0000
 Atom AN      X      Y      Z        X      Y      Z        X      Y      Z
   1   7    -0.00   0.00   0.00    -0.06  -0.26   0.07     0.05  -0.01  -0.20
   2   6    -0.00  -0.00   0.01    -0.00  -0.01   0.00    -0.00   0.00  -0.01
   3   6    -0.01   0.01   0.02     0.00   0.00  -0.00    -0.00   0.00  -0.00
   4   6    -0.04  -0.08   0.13    -0.00   0.00  -0.00     0.00  -0.00   0.00
   5  17    -0.00   0.00  -0.00    -0.00   0.00  -0.00    -0.00   0.00   0.00
   6   1     0.00   0.00  -0.01     0.12   0.11  -0.34    -0.28  -0.33   0.78
   7   1     0.00  -0.00   0.00     0.01  -0.03   0.00     0.05  -0.02  -0.03
   8   1    -0.00  -0.00  -0.00     0.10   0.88   0.07     0.06   0.39   0.01
   9   1    -0.00  -0.00   0.00    -0.00   0.00   0.00     0.01  -0.00   0.00
  10   1     0.01   0.01  -0.03     0.00   0.01  -0.01    -0.01  -0.01   0.02
  11   1    -0.03  -0.01  -0.03     0.00  -0.00   0.00     0.00   0.00   0.00
  12   1     0.05  -0.02  -0.01    -0.00   0.00   0.00     0.00   0.00  -0.00
  13   1    -0.38  -0.07  -0.48     0.00   0.00   0.00    -0.01  -0.00  -0.01
  14   1     0.47  -0.21  -0.10     0.00  -0.00  -0.00     0.00  -0.00  -0.00
  15   1     0.05   0.54   0.12     0.00   0.00  -0.00     0.00   0.00   0.00
