39
 energy: -62.263911269393 gnorm: 0.000759380716 xtb: 6.5.1 (fef0646)
N            3.20583216118481       -1.56894662598470        1.78219909825725
C            2.63691740316122       -1.03924800020550        0.52404377060688
C            3.58006567251837       -0.01171202225590       -0.10690890055916
C            4.80961042440946       -0.63449546931395       -0.67781437179898
C            5.16836179060702       -0.75571987920373       -1.98618778303580
C            6.39954274269958       -1.41162954025438       -2.17489079629761
C            6.99910637900835       -1.80290599433023       -1.00567509998328
C            8.23062162629104       -2.48892194773175       -0.81047513503286
C            8.83147780420694       -2.84357479323141        0.37496586289786
C           10.04882706408406       -3.50759962699467        0.20024343520394
C           10.39674281906257       -3.67402299970159       -1.12140381423804
C           11.55263461660226       -4.30482389551376       -1.66095380312992
C           12.60467277206786       -4.88392783392754       -0.98797321698220
C           13.57597345927776       -5.42173868188134       -1.83743170113078
C           13.28794066188171       -5.26598924536795       -3.17243015624365
C           14.04699497201526       -5.69113299135927       -4.30002522878670
C           13.75633122487515       -5.54017983744666       -5.63214627843045
C           14.73939259642805       -6.08792974096651       -6.47673158089674
C           15.76884101935073       -6.65016350608561       -5.79088061938077
S           15.56275088945007       -6.52543261356104       -4.08893678993369
S           11.77790688384413       -4.43112433858086       -3.38607607264316
S            9.19381547363783       -2.99189468650925       -2.17672025513932
S            6.03145336833734       -1.33867642621740        0.35120961195258
H            2.59413631207863       -2.28411219217462        2.18966336126301
H            3.33557586635077       -0.81161950424208        2.46237639051345
H            4.13166257510496       -1.98251375323598        1.59680765212030
H            1.68113412273351       -0.56156512836911        0.73461849075245
H            2.47513921373572       -1.86105756979659       -0.17262935659130
H            3.86089979125190        0.73530522723094        0.63641995693553
H            3.05584224900605        0.49842184612243       -0.91389965679322
H            4.57558069758686       -0.38508252881927       -2.80265019882387
H            6.84873631915646       -1.59771194338751       -3.13475504209321
H            8.40725683894384       -2.62760981972911        1.33954060486785
H           10.65936232097240       -3.85768104521635        1.01166006144202
H           12.67137522196160       -4.91730018061602        0.08345748124903
H           14.46932197396834       -5.91487771655839       -1.49709345128021
H           12.86422244465505       -5.05254941901425       -5.98178383507574
H           14.68367842075578       -6.06410958539173       -7.54957317214560
H           16.64380180674066       -7.13465599017807       -6.17409946161532
