      -----------------------------------------------------------      
     |                   =====================                   |     
     |                           x T B                           |     
     |                   =====================                   |     
     |                         S. Grimme                         |     
     |          Mulliken Center for Theoretical Chemistry        |     
     |                    University of Bonn                     |     
      -----------------------------------------------------------      

   * xtb version 6.5.1 (fef0646) compiled by 'conda@b96dff2e9fd6' on 2023-01-04

   xtb is free software: you can redistribute it and/or modify it under
   the terms of the GNU Lesser General Public License as published by
   the Free Software Foundation, either version 3 of the License, or
   (at your option) any later version.
   
   xtb is distributed in the hope that it will be useful,
   but WITHOUT ANY WARRANTY; without even the implied warranty of
   MERCHANTABILITY or FITNESS FOR A PARTICULAR PURPOSE.  See the
   GNU Lesser General Public License for more details.
   
   Cite this work as:
   * C. Bannwarth, E. Caldeweyher, S. Ehlert, A. Hansen, P. Pracht,
     J. Seibert, S. Spicher, S. Grimme, WIREs Comput. Mol. Sci., 2020, 11,
     e01493. DOI: 10.1002/wcms.1493
   
   for GFN2-xTB:
   * C. Bannwarth, S. Ehlert and S. Grimme., J. Chem. Theory Comput., 2019,
     15, 1652-1671. DOI: 10.1021/acs.jctc.8b01176
   for GFN1-xTB:
   * S. Grimme, C. Bannwarth, P. Shushkov, J. Chem. Theory Comput., 2017,
     13, 1989-2009. DOI: 10.1021/acs.jctc.7b00118
   for GFN0-xTB:
   * P. Pracht, E. Caldeweyher, S. Ehlert, S. Grimme, ChemRxiv, 2019, preprint.
     DOI: 10.26434/chemrxiv.8326202.v1
   for GFN-FF:
   * S. Spicher and S. Grimme, Angew. Chem. Int. Ed., 2020, 59, 15665-15673.
     DOI: 10.1002/anie.202004239
   
   for ALPB and GBSA implicit solvation:
   * S. Ehlert, M. Stahn, S. Spicher, S. Grimme, J. Chem. Theory Comput.,
     2021, 17, 4250-4261. DOI: 10.1021/acs.jctc.1c00471
   
   for DFT-D4:
   * E. Caldeweyher, C. Bannwarth and S. Grimme, J. Chem. Phys., 2017,
     147, 034112. DOI: 10.1063/1.4993215
   * E. Caldeweyher, S. Ehlert, A. Hansen, H. Neugebauer, S. Spicher,
     C. Bannwarth and S. Grimme, J. Chem. Phys., 2019, 150, 154122.
     DOI: 10.1063/1.5090222
   * E. Caldeweyher, J.-M. Mewes, S. Ehlert and S. Grimme, Phys. Chem. Chem. Phys.
     2020, 22, 8499-8512. DOI: 10.1039/D0CP00502A
   
   for sTDA-xTB:
   * S. Grimme and C. Bannwarth, J. Chem. Phys., 2016, 145, 054103.
     DOI: 10.1063/1.4959605
   
   in the mass-spec context:
   * V. Asgeirsson, C. Bauer and S. Grimme, Chem. Sci., 2017, 8, 4879.
     DOI: 10.1039/c7sc00601b
   * J. Koopman and S. Grimme, ACS Omega 2019, 4, 12, 15120-15133.
     DOI: 10.1021/acsomega.9b02011
   
   for metadynamics refer to:
   * S. Grimme, J. Chem. Theory Comput., 2019, 155, 2847-2862
     DOI: 10.1021/acs.jctc.9b00143
   
   for SPH calculations refer to:
   * S. Spicher and S. Grimme, J. Chem. Theory Comput., 2021, 17, 1701-1714
     DOI: 10.1021/acs.jctc.0c01306
   
   with help from (in alphabetical order)
   P. Atkinson, C. Bannwarth, F. Bohle, G. Brandenburg, E. Caldeweyher
   M. Checinski, S. Dohm, S. Ehlert, S. Ehrlich, I. Gerasimov, C. Hölzer
   A. Katbashev, J. Koopman, C. Lavigne, S. Lehtola, F. März, M. Müller,
   F. Musil, H. Neugebauer, J. Pisarek, C. Plett, P. Pracht, F. Pultar,
   J. Seibert, P. Shushkov, S. Spicher, M. Stahn, M. Steiner, T. Strunk,
   J. Stückrath, T. Rose, and J. Unsleber
   
 * started run on 2023/01/23 at 18:59:44.869     

           -------------------------------------------------
          |                Calculation Setup                |
           -------------------------------------------------

          program call               : xtb init.xyz --opt -c 1 -u 0 -P 16 --input xtb.inp
          hostname                   : gpg-woodward
          coordinate file            : init.xyz
          omp threads                :                    16

   ID    Z sym.   atoms
    1    7 N      1
    2    6 C      2-5
    3    1 H      6-13

           -------------------------------------------------
          |                 G F N 2 - x T B                 |
           -------------------------------------------------

        Reference                      10.1021/acs.jctc.8b01176
      * Hamiltonian:
        H0-scaling (s, p, d)           1.850000    2.230000    2.230000
        zeta-weighting                 0.500000
      * Dispersion:
        s8                             2.700000
        a1                             0.520000
        a2                             5.000000
        s9                             5.000000
      * Repulsion:
        kExp                           1.500000    1.000000
        rExp                           1.000000
      * Coulomb:
        alpha                          2.000000
        third order                    shell-resolved
        anisotropic                    true
        a3                             3.000000
        a5                             4.000000
        cn-shift                       1.200000
        cn-exp                         4.000000
        max-rad                        5.000000


          ...................................................
          :                      SETUP                      :
          :.................................................:
          :  # basis functions                  28          :
          :  # atomic orbitals                  28          :
          :  # shells                           18          :
          :  # electrons                        28          :
          :  max. iterations                   250          :
          :  Hamiltonian                  GFN2-xTB          :
          :  restarted?                      false          :
          :  GBSA solvation                  false          :
          :  PC potential                    false          :
          :  electronic temp.          300.0000000     K    :
          :  accuracy                    1.0000000          :
          :  -> integral cutoff          0.2500000E+02      :
          :  -> integral neglect         0.1000000E-07      :
          :  -> SCF convergence          0.1000000E-05 Eh   :
          :  -> wf. convergence          0.1000000E-03 e    :
          :  Broyden damping             0.4000000          :
          ...................................................

 iter      E             dE          RMSdq      gap      omega  full diag
   1    -15.1495171 -0.151495E+02  0.644E+00    5.67       0.0  T
   2    -15.2358942 -0.863771E-01  0.387E+00    5.63       1.0  T
   3    -15.1512883  0.846059E-01  0.307E+00    5.70       1.0  T
   4    -15.2103215 -0.590332E-01  0.198E+00    5.60       1.0  T
   5    -15.2534665 -0.431450E-01  0.176E-01    5.50       1.0  T
   6    -15.2534697 -0.315620E-05  0.793E-02    5.50       1.0  T
   7    -15.2534839 -0.142020E-04  0.122E-02    5.51       2.3  T
   8    -15.2534839 -0.378419E-07  0.474E-03    5.51       5.8  T
   9    -15.2534839 -0.248451E-07  0.698E-04    5.51      39.8  T
  10    -15.2534839 -0.721446E-09  0.278E-04    5.51      99.9  T

   *** convergence criteria satisfied after 10 iterations ***

         #    Occupation            Energy/Eh            Energy/eV
      -------------------------------------------------------------
         1        2.0000           -0.9013451             -24.5268
       ...           ...                  ...                  ...
         8        2.0000           -0.6948154             -18.9069
         9        2.0000           -0.6679241             -18.1751
        10        2.0000           -0.6549544             -17.8222
        11        2.0000           -0.6394427             -17.4001
        12        2.0000           -0.6141644             -16.7123
        13        2.0000           -0.5457368             -14.8503
        14        2.0000           -0.5408195             -14.7164 (HOMO)
        15                         -0.3384515              -9.2097 (LUMO)
        16                         -0.3313954              -9.0177
        17                         -0.2670339              -7.2664
        18                         -0.1763153              -4.7978
        19                         -0.1449196              -3.9435
       ...                                ...                  ...
        28                          0.7811013              21.2548
      -------------------------------------------------------------
                  HL-Gap            0.2023679 Eh            5.5067 eV
             Fermi-level           -0.4396355 Eh          -11.9631 eV

 SCC (total)                   0 d,  0 h,  0 min,  0.018 sec
 SCC setup                      ...        0 min,  0.000 sec (  2.469%)
 Dispersion                     ...        0 min,  0.000 sec (  1.602%)
 classical contributions        ...        0 min,  0.000 sec (  0.947%)
 integral evaluation            ...        0 min,  0.001 sec (  5.998%)
 iterations                     ...        0 min,  0.013 sec ( 70.869%)
 molecular gradient             ...        0 min,  0.003 sec ( 16.602%)
 printout                       ...        0 min,  0.000 sec (  0.794%)

         :::::::::::::::::::::::::::::::::::::::::::::::::::::
         ::                     SUMMARY                     ::
         :::::::::::::::::::::::::::::::::::::::::::::::::::::
         :: total energy             -15.025448414729 Eh    ::
         :: gradient norm              0.215109150583 Eh/a0 ::
         :: HOMO-LUMO gap              5.506711569095 eV    ::
         ::.................................................::
         :: SCC energy               -15.253483949266 Eh    ::
         :: -> isotropic ES            0.112963430757 Eh    ::
         :: -> anisotropic ES         -0.014727084029 Eh    ::
         :: -> anisotropic XC          0.018907599421 Eh    ::
         :: -> dispersion             -0.005457442614 Eh    ::
         :: repulsion energy           0.228024710606 Eh    ::
         :: add. restraining           0.000000000000 Eh    ::
         :: total charge               1.000000000000 e     ::
         :::::::::::::::::::::::::::::::::::::::::::::::::::::

      ----------------------------------------------------------- 
     |                   =====================                   |
     |                        A N C O P T                        |
     |                   =====================                   |
     |               Approximate Normal Coordinate               |
     |                Rational Function Optimizer                |
      ----------------------------------------------------------- 

          ...................................................
          :                      SETUP                      :
          :.................................................:
          :   optimization level            normal          :
          :   max. optcycles                   200          :
          :   ANC micro-cycles                  20          :
          :   degrees of freedom                33          :
          :.................................................:
          :   RF solver                   davidson          :
          :   write xtbopt.log                true          :
          :   linear?                        false          :
          :   energy convergence         0.5000000E-05 Eh   :
          :   grad. convergence          0.1000000E-02 Eh/α :
          :   maximium RF displ.         1.0000000          :
          :   Hlow (freq-cutoff)         0.1000000E-01      :
          :   Hmax (freq-cutoff)         5.0000000          :
          :   S6 in model hess.         20.0000000          :
          ...................................................

generating ANC from model Hessian ...
Using Lindh-Hessian (1995)
 Shifting diagonal of input Hessian by    9.9354391482400408E-003
 Lowest  eigenvalues of input Hessian
    0.000000    0.000000    0.000000    0.000000    0.000000    0.000000
    0.010000    0.010827    0.016291    0.019967    0.023989    0.029823
    0.060716    0.062401    0.067273    0.077089    0.079269    0.088497
 Highest eigenvalues
    1.139280    1.213480    1.385014    1.401563    1.424860    2.038306


........................................................................
.............................. CYCLE    1 ..............................
........................................................................
   1    -15.2534839 -0.152535E+02  0.120E-04    5.51       0.0  T
   2    -15.2534839  0.650395E-10  0.932E-05    5.51     297.6  T
   3    -15.2534839 -0.290719E-10  0.918E-05    5.51     302.1  T
     SCC iter.                  ...        0 min,  0.004 sec
     gradient                   ...        0 min,  0.002 sec
 * total energy  :   -15.0254484 Eh     change       -0.5599077E-11 Eh
   gradient norm :     0.2151092 Eh/α   predicted     0.0000000E+00 (-100.00%)
   displ. norm   :     0.3202981 α      lambda       -0.4186807E-01
   maximum displ.:     0.1512066 α      in ANC's #13, #20, #23, ...

........................................................................
.............................. CYCLE    2 ..............................
........................................................................
   1    -15.3408619 -0.153409E+02  0.482E-01    6.94       0.0  T
   2    -15.3407746  0.873637E-04  0.335E-01    6.95       1.0  T
   3    -15.3406838  0.907714E-04  0.253E-01    6.95       1.0  T
   4    -15.3412136 -0.529840E-03  0.233E-02    6.95       1.2  T
   5    -15.3412166 -0.300750E-05  0.773E-03    6.95       3.6  T
   6    -15.3412168 -0.187084E-06  0.244E-03    6.95      11.4  T
   7    -15.3412168 -0.614791E-08  0.764E-04    6.95      36.3  T
   8    -15.3412168 -0.108941E-08  0.135E-04    6.95     206.1  T
     SCC iter.                  ...        0 min,  0.009 sec
     gradient                   ...        0 min,  0.002 sec
 * total energy  :   -15.0481558 Eh     change       -0.2270736E-01 Eh
   gradient norm :     0.0466314 Eh/α   predicted    -0.2308167E-01 (   1.65%)
   displ. norm   :     0.1445325 α      lambda       -0.2117296E-02
   maximum displ.:     0.0763611 α      in ANC's #4, #13, #3, ...

........................................................................
.............................. CYCLE    3 ..............................
........................................................................
   1    -15.3427445 -0.153427E+02  0.144E-01    6.82       0.0  T
   2    -15.3427333  0.111794E-04  0.108E-01    6.82       1.0  T
   3    -15.3427247  0.860820E-05  0.722E-02    6.82       1.0  T
   4    -15.3427711 -0.464265E-04  0.655E-03    6.82       4.2  T
   5    -15.3427713 -0.178540E-06  0.263E-03    6.82      10.5  T
   6    -15.3427713 -0.287729E-07  0.652E-04    6.82      42.5  T
   7    -15.3427713 -0.373458E-09  0.142E-04    6.82     195.5  T
     SCC iter.                  ...        0 min,  0.007 sec
     gradient                   ...        0 min,  0.002 sec
 * total energy  :   -15.0494084 Eh     change       -0.1252660E-02 Eh
   gradient norm :     0.0069269 Eh/α   predicted    -0.1080763E-02 ( -13.72%)
   displ. norm   :     0.1683540 α      lambda       -0.4321691E-03
   maximum displ.:     0.1182012 α      in ANC's #2, #1, #4, ...

........................................................................
.............................. CYCLE    4 ..............................
........................................................................
   1    -15.3448666 -0.153449E+02  0.216E-01    6.81       0.0  T
   2    -15.3448541  0.125367E-04  0.137E-01    6.81       1.0  T
   3    -15.3447221  0.131930E-03  0.123E-01    6.81       1.0  T
   4    -15.3448896 -0.167490E-03  0.391E-03    6.81       7.1  T
   5    -15.3448897 -0.440954E-07  0.169E-03    6.81      16.4  T
   6    -15.3448897 -0.153931E-08  0.366E-04    6.81      75.9  T
   7    -15.3448897 -0.100378E-09  0.909E-05    6.81     305.0  T
     SCC iter.                  ...        0 min,  0.007 sec
     gradient                   ...        0 min,  0.002 sec
 * total energy  :   -15.0494997 Eh     change       -0.9126365E-04 Eh
   gradient norm :     0.0070860 Eh/α   predicted    -0.2222086E-03 ( 143.48%)
   displ. norm   :     0.1766305 α      lambda       -0.4982000E-03
   maximum displ.:     0.0973115 α      in ANC's #2, #4, #3, ...

........................................................................
.............................. CYCLE    5 ..............................
........................................................................
   1    -15.3477829 -0.153478E+02  0.147E-01    6.81       0.0  T
   2    -15.3477840 -0.113277E-05  0.877E-02    6.81       1.0  T
   3    -15.3477775  0.652550E-05  0.237E-02    6.81       1.2  T
   4    -15.3477846 -0.716281E-05  0.377E-03    6.81       7.4  T
   5    -15.3477847 -0.787117E-07  0.147E-03    6.81      18.9  T
   6    -15.3477847 -0.239785E-08  0.425E-04    6.81      65.3  T
   7    -15.3477847 -0.108942E-09  0.114E-04    6.81     244.1  T
     SCC iter.                  ...        0 min,  0.007 sec
     gradient                   ...        0 min,  0.002 sec
 * total energy  :   -15.0497175 Eh     change       -0.2177831E-03 Eh
   gradient norm :     0.0086103 Eh/α   predicted    -0.2568716E-03 (  17.95%)
   displ. norm   :     0.1048508 α      lambda       -0.2573358E-03
   maximum displ.:     0.0708442 α      in ANC's #2, #4, #6, ...

........................................................................
.............................. CYCLE    6 ..............................
........................................................................
   1    -15.3449346 -0.153449E+02  0.739E-02    6.79       0.0  T
   2    -15.3449321  0.253388E-05  0.500E-02    6.79       1.0  T
   3    -15.3449236  0.846976E-05  0.405E-02    6.79       1.0  T
   4    -15.3449397 -0.160699E-04  0.207E-03    6.79      13.4  T
   5    -15.3449397 -0.162530E-07  0.791E-04    6.79      35.1  T
   6    -15.3449397 -0.407486E-09  0.213E-04    6.79     130.4  T
     SCC iter.                  ...        0 min,  0.006 sec
     gradient                   ...        0 min,  0.002 sec
 * total energy  :   -15.0499040 Eh     change       -0.1864843E-03 Eh
   gradient norm :     0.0053324 Eh/α   predicted    -0.1300820E-03 ( -30.25%)
   displ. norm   :     0.2807370 α      lambda       -0.3143821E-03
   maximum displ.:     0.2276465 α      in ANC's #2, #4, #6, ...

........................................................................
.............................. CYCLE    7 ..............................
........................................................................
   1    -15.3412547 -0.153413E+02  0.263E-01    6.76       0.0  T
   2    -15.3412566 -0.188003E-05  0.155E-01    6.76       1.0  T
   3    -15.3412249  0.316635E-04  0.511E-02    6.76       1.0  T
   4    -15.3412589 -0.339863E-04  0.438E-03    6.76       6.3  T
   5    -15.3412590 -0.665694E-07  0.174E-03    6.76      15.9  T
   6    -15.3412590 -0.325040E-08  0.529E-04    6.76      52.4  T
   7    -15.3412590 -0.486448E-09  0.182E-04    6.76     152.4  T
     SCC iter.                  ...        0 min,  0.007 sec
     gradient                   ...        0 min,  0.002 sec
 * total energy  :   -15.0501220 Eh     change       -0.2180589E-03 Eh
   gradient norm :     0.0066776 Eh/α   predicted    -0.1695780E-03 ( -22.23%)
   displ. norm   :     0.2657248 α      lambda       -0.2225177E-03
   maximum displ.:     0.1991955 α      in ANC's #2, #4, #5, ...

........................................................................
.............................. CYCLE    8 ..............................
........................................................................
   1    -15.3409486 -0.153409E+02  0.214E-01    6.76       0.0  T
   2    -15.3409499 -0.132454E-05  0.127E-01    6.77       1.0  T
   3    -15.3408873  0.625767E-04  0.721E-02    6.77       1.0  T
   4    -15.3409545 -0.671862E-04  0.395E-03    6.77       7.0  T
   5    -15.3409545 -0.538032E-07  0.159E-03    6.77      17.4  T
   6    -15.3409546 -0.284292E-08  0.506E-04    6.77      54.8  T
   7    -15.3409546 -0.415124E-09  0.154E-04    6.77     180.4  T
     SCC iter.                  ...        0 min,  0.007 sec
     gradient                   ...        0 min,  0.001 sec
 * total energy  :   -15.0502661 Eh     change       -0.1440367E-03 Eh
   gradient norm :     0.0058697 Eh/α   predicted    -0.1191154E-03 ( -17.30%)
   displ. norm   :     0.2006791 α      lambda       -0.2004897E-03
   maximum displ.:     0.1598352 α      in ANC's #2, #5, #4, ...

........................................................................
.............................. CYCLE    9 ..............................
........................................................................
   1    -15.3410305 -0.153410E+02  0.235E-01    6.76       0.0  T
   2    -15.3410196  0.108551E-04  0.144E-01    6.76       1.0  T
   3    -15.3408487  0.170927E-03  0.132E-01    6.76       1.0  T
   4    -15.3410504 -0.201672E-03  0.276E-03    6.76      10.1  T
   5    -15.3410504 -0.913876E-08  0.124E-03    6.76      22.3  T
   6    -15.3410504 -0.154612E-08  0.375E-04    6.76      73.9  T
   7    -15.3410504 -0.227002E-09  0.111E-04    6.76     249.5  T
     SCC iter.                  ...        0 min,  0.006 sec
     gradient                   ...        0 min,  0.001 sec
 * total energy  :   -15.0504030 Eh     change       -0.1368880E-03 Eh
   gradient norm :     0.0045284 Eh/α   predicted    -0.1042802E-03 ( -23.82%)
   displ. norm   :     0.1605040 α      lambda       -0.1660723E-03
   maximum displ.:     0.0972839 α      in ANC's #5, #2, #4, ...

........................................................................
.............................. CYCLE   10 ..............................
........................................................................
   1    -15.3448198 -0.153448E+02  0.129E-01    6.78       0.0  T
   2    -15.3448150  0.487360E-05  0.814E-02    6.78       1.0  T
   3    -15.3447718  0.431290E-04  0.741E-02    6.78       1.0  T
   4    -15.3448301 -0.582414E-04  0.210E-03    6.78      13.2  T
   5    -15.3448301 -0.741871E-08  0.103E-03    6.78      27.0  T
   6    -15.3448301 -0.150079E-08  0.371E-04    6.78      74.7  T
   7    -15.3448301 -0.886811E-10  0.712E-05    6.78     389.7  T
     SCC iter.                  ...        0 min,  0.006 sec
     gradient                   ...        0 min,  0.001 sec
 * total energy  :   -15.0504931 Eh     change       -0.9014069E-04 Eh
   gradient norm :     0.0051213 Eh/α   predicted    -0.8517373E-04 (  -5.51%)
   displ. norm   :     0.1593186 α      lambda       -0.6111486E-04
   maximum displ.:     0.1137819 α      in ANC's #2, #5, #4, ...

........................................................................
.............................. CYCLE   11 ..............................
........................................................................
   1    -15.3424029 -0.153424E+02  0.161E-01    6.73       0.0  T
   2    -15.3423990  0.392136E-05  0.988E-02    6.73       1.0  T
   3    -15.3423181  0.808692E-04  0.900E-02    6.73       1.0  T
   4    -15.3424126 -0.945253E-04  0.260E-03    6.73      10.7  T
   5    -15.3424126 -0.112602E-07  0.108E-03    6.73      25.7  T
   6    -15.3424126 -0.934918E-09  0.334E-04    6.73      83.1  T
   7    -15.3424126 -0.169734E-09  0.100E-04    6.73     277.2  T
     SCC iter.                  ...        0 min,  0.006 sec
     gradient                   ...        0 min,  0.001 sec
 * total energy  :   -15.0505111 Eh     change       -0.1804786E-04 Eh
   gradient norm :     0.0046349 Eh/α   predicted    -0.3133468E-04 (  73.62%)
   displ. norm   :     0.0586953 α      lambda       -0.3478604E-04
   maximum displ.:     0.0432281 α      in ANC's #2, #4, #3, ...

........................................................................
.............................. CYCLE   12 ..............................
........................................................................
   1    -15.3438645 -0.153439E+02  0.474E-02    6.75       0.0  T
   2    -15.3438648 -0.299770E-06  0.283E-02    6.75       1.0  T
   3    -15.3438608  0.400776E-05  0.187E-02    6.75       1.5  T
   4    -15.3438652 -0.436367E-05  0.161E-03    6.75      17.2  T
   5    -15.3438652 -0.153692E-07  0.565E-04    6.75      49.1  T
   6    -15.3438652 -0.367091E-09  0.191E-04    6.75     145.5  T
     SCC iter.                  ...        0 min,  0.005 sec
     gradient                   ...        0 min,  0.001 sec
 * total energy  :   -15.0505293 Eh     change       -0.1816566E-04 Eh
   gradient norm :     0.0017705 Eh/α   predicted    -0.1745224E-04 (  -3.93%)
   displ. norm   :     0.0292694 α      lambda       -0.8520346E-05
   maximum displ.:     0.0209019 α      in ANC's #5, #6, #4, ...

........................................................................
.............................. CYCLE   13 ..............................
........................................................................
   1    -15.3439628 -0.153440E+02  0.217E-02    6.75       0.0  T
   2    -15.3439627  0.112652E-06  0.135E-02    6.75       2.0  T
   3    -15.3439615  0.119540E-05  0.125E-02    6.75       2.2  T
   4    -15.3439631 -0.161681E-05  0.586E-04    6.75      47.3  T
   5    -15.3439631 -0.125269E-08  0.212E-04    6.75     130.8  T
   6    -15.3439631 -0.292957E-10  0.601E-05    6.75     461.2  T
     SCC iter.                  ...        0 min,  0.005 sec
     gradient                   ...        0 min,  0.001 sec
 * total energy  :   -15.0505347 Eh     change       -0.5395256E-05 Eh
   gradient norm :     0.0022559 Eh/α   predicted    -0.4260288E-05 ( -21.04%)
   displ. norm   :     0.0103310 α      lambda       -0.2836650E-05
   maximum displ.:     0.0077654 α      in ANC's #5, #6, #2, ...

........................................................................
.............................. CYCLE   14 ..............................
........................................................................
   1    -15.3436679 -0.153437E+02  0.118E-02    6.75       0.0  T
   2    -15.3436679  0.345081E-07  0.745E-03    6.75       3.7  T
   3    -15.3436675  0.416155E-06  0.668E-03    6.75       4.2  T
   4    -15.3436680 -0.514067E-06  0.172E-04    6.75     160.9  T
   5    -15.3436680 -0.524700E-10  0.888E-05    6.75     312.5  T
     SCC iter.                  ...        0 min,  0.004 sec
     gradient                   ...        0 min,  0.001 sec
 * total energy  :   -15.0505366 Eh     change       -0.1895891E-05 Eh
   gradient norm :     0.0007357 Eh/α   predicted    -0.1419751E-05 ( -25.11%)
   displ. norm   :     0.0104807 α      lambda       -0.1137920E-05
   maximum displ.:     0.0064061 α      in ANC's #2, #6, #4, ...

   *** GEOMETRY OPTIMIZATION CONVERGED AFTER 14 ITERATIONS ***

------------------------------------------------------------------------
 total energy gain   :        -0.0250882 Eh      -15.7431 kcal/mol
 total RMSD          :         0.4209576 a0        0.2228 Å
 total power (kW/mol):        -4.7049294 (step) -471.3178 (real)
------------------------------------------------------------------------

 ANCopt (total)                0 d,  0 h,  0 min,  0.140 sec
 optimizer setup                ...        0 min,  0.000 sec (  0.069%)
 model hessian                  ...        0 min,  0.007 sec (  4.723%)
 ANC generation                 ...        0 min,  0.001 sec (  0.642%)
 coordinate transformation      ...        0 min,  0.000 sec (  0.139%)
 single point calculation       ...        0 min,  0.125 sec ( 89.504%)
 optimization log               ...        0 min,  0.001 sec (  0.847%)
 hessian update                 ...        0 min,  0.003 sec (  2.155%)
 rational function              ...        0 min,  0.002 sec (  1.083%)

================
 final structure:
================
13
 xtb: 6.5.1 (fef0646)
N            0.99798745679401        0.18022622647426        0.09384519940499
C            2.48066286136767        0.01258753702305        0.03412437269042
C            3.02047240435968        0.98435839160189       -1.01710954605825
C            2.46226136104769        2.30485327077726       -0.77747566311959
C            1.90745980293077        3.33746825137301       -0.52901772834214
H            0.58518623767391       -0.23638730744216        0.93546215540938
H            0.54657259479804       -0.22471894709045       -0.73565477351434
H            0.84147011762030        1.21299623229384        0.07792612118848
H            2.73254909222683       -1.01930878934592       -0.20884679423890
H            2.89019365369360        0.26010365677469        1.01486917581734
H            2.75911463028454        0.65788896880593       -2.02682414794495
H            4.10845179635994        1.03104519494752       -0.95391902184780
H            1.49913799084220        4.28878731380638       -0.35062934944493

 Bond Distances (Angstroems)
 ---------------------------
N1-C2=1.4933         N1-H6=1.0258         N1-H7=1.0275         N1-H8=1.0447         C2-N1=1.4933         C2-C3=1.5300         
C2-H9=1.0896         C2-H10=1.0913        C3-C2=1.5300         C3-C4=1.4535         C3-H11=1.0929        C3-H12=1.0908        
C4-C3=1.4535         C4-C5=1.1983         C5-C4=1.1983         C5-H13=1.0505        H6-N1=1.0258         H7-N1=1.0275         
H8-N1=1.0447         H9-C2=1.0896         H10-C2=1.0913        H11-C3=1.0929        H12-C3=1.0908        H13-C5=1.0505        
 C  H  Rav=1.0830 sigma=0.0163  Rmin=1.0505  Rmax=1.0929     5
 C  C  Rav=1.3939 sigma=0.1418  Rmin=1.1983  Rmax=1.5300     3
 N  H  Rav=1.0327 sigma=0.0085  Rmin=1.0258  Rmax=1.0447     3
 N  C  Rav=1.4933 sigma=0.0000  Rmin=1.4933  Rmax=1.4933     1

 selected bond angles (degree)
 --------------------
H6-N1-C2=112.75                H7-N1-C2=111.08                H7-N1-H6=108.99                H8-N1-C2=105.02                
H8-N1-H6=110.71                H8-N1-H7=108.15                C3-C2-N1=107.85                H9-C2-N1=110.17                
H9-C2-C3=111.51                H10-C2-N1=108.13               H10-C2-C3=109.94               H10-C2-H9=109.17               
C4-C3-C2=109.16                H11-C3-C2=111.14               H11-C3-C4=109.38               H12-C3-C2=109.83               
H12-C3-C4=109.55               H12-C3-H11=107.75              C5-C4-C3=174.20                H13-C5-C4=174.61               

 selected dihedral angles (degree)
 ---------------------------------
C3-C2-N1-H6=195.68            C3-C2-N1-H7= 73.01            C3-C2-N1-H8=316.32            H9-C2-N1-H6= 73.77            
H9-C2-N1-H7=311.09            H9-C2-N1-H8=194.41            H10-C2-N1-H6=314.53           H10-C2-N1-H7=191.85           
H10-C2-N1-H8= 75.17           C4-C3-C2-N1= 48.95            C4-C3-C2-H9=170.03            C4-C3-C2-H10=291.27           
H11-C3-C2-N1=288.21           H11-C3-C2-H9= 49.29           H11-C3-C2-H10=170.53          H12-C3-C2-N1=169.08           
H12-C3-C2-H9=290.16           H12-C3-C2-H10= 51.39          C5-C4-C3-C2=333.08            C5-C4-C3-H11= 94.88           
C5-C4-C3-H12=212.78           H13-C5-C4-C3=178.68           
           -------------------------------------------------
          |                Final Singlepoint                |
           -------------------------------------------------

          ...................................................
          :                      SETUP                      :
          :.................................................:
          :  # basis functions                  28          :
          :  # atomic orbitals                  28          :
          :  # shells                           18          :
          :  # electrons                        28          :
          :  max. iterations                   250          :
          :  Hamiltonian                  GFN2-xTB          :
          :  restarted?                      false          :
          :  GBSA solvation                  false          :
          :  PC potential                    false          :
          :  electronic temp.          300.0000000     K    :
          :  accuracy                    1.0000000          :
          :  -> integral cutoff          0.2500000E+02      :
          :  -> integral neglect         0.1000000E-07      :
          :  -> SCF convergence          0.1000000E-05 Eh   :
          :  -> wf. convergence          0.1000000E-03 e    :
          :  Broyden damping             0.4000000          :
          ...................................................

 iter      E             dE          RMSdq      gap      omega  full diag
   1    -15.3436680 -0.153437E+02  0.227E-05    6.75       0.0  T
   2    -15.3436680 -0.325073E-12  0.134E-05    6.75    2071.1  T
   3    -15.3436680  0.319744E-13  0.325E-06    6.75    8534.4  T

   *** convergence criteria satisfied after 3 iterations ***

         #    Occupation            Energy/Eh            Energy/eV
      -------------------------------------------------------------
         1        2.0000           -0.8977138             -24.4280
       ...           ...                  ...                  ...
         8        2.0000           -0.6992850             -19.0285
         9        2.0000           -0.6743697             -18.3505
        10        2.0000           -0.6659734             -18.1221
        11        2.0000           -0.6444830             -17.5373
        12        2.0000           -0.6244746             -16.9928
        13        2.0000           -0.5772951             -15.7090
        14        2.0000           -0.5682502             -15.4629 (HOMO)
        15                         -0.3203049              -8.7159 (LUMO)
        16                         -0.3083284              -8.3900
        17                         -0.2591129              -7.0508
        18                         -0.1630466              -4.4367
        19                         -0.1073697              -2.9217
       ...                                ...                  ...
        28                          1.2570426              34.2059
      -------------------------------------------------------------
                  HL-Gap            0.2479453 Eh            6.7469 eV
             Fermi-level           -0.4442776 Eh          -12.0894 eV

 SCC (total)                   0 d,  0 h,  0 min,  0.002 sec
 SCC setup                      ...        0 min,  0.000 sec (  2.724%)
 Dispersion                     ...        0 min,  0.000 sec (  2.734%)
 classical contributions        ...        0 min,  0.000 sec (  0.409%)
 integral evaluation            ...        0 min,  0.000 sec ( 10.330%)
 iterations                     ...        0 min,  0.001 sec ( 51.735%)
 molecular gradient             ...        0 min,  0.001 sec ( 26.470%)
 printout                       ...        0 min,  0.000 sec (  3.930%)

         :::::::::::::::::::::::::::::::::::::::::::::::::::::
         ::                     SUMMARY                     ::
         :::::::::::::::::::::::::::::::::::::::::::::::::::::
         :: total energy             -15.050536596219 Eh    ::
         :: gradient norm              0.000736094653 Eh/a0 ::
         :: HOMO-LUMO gap              6.746936317478 eV    ::
         ::.................................................::
         :: SCC energy               -15.343667991594 Eh    ::
         :: -> isotropic ES            0.111123720108 Eh    ::
         :: -> anisotropic ES         -0.016637234745 Eh    ::
         :: -> anisotropic XC          0.016844077068 Eh    ::
         :: -> dispersion             -0.005667693287 Eh    ::
         :: repulsion energy           0.293121867518 Eh    ::
         :: add. restraining           0.000000000000 Eh    ::
         :: total charge               1.000000000000 e     ::
         :::::::::::::::::::::::::::::::::::::::::::::::::::::

           -------------------------------------------------
          |                Property Printout                |
           -------------------------------------------------

    * Orbital Energies and Occupations

         #    Occupation            Energy/Eh            Energy/eV
      -------------------------------------------------------------
         1        2.0000           -0.8977138             -24.4280
         2        2.0000           -0.8458578             -23.0170
         3        2.0000           -0.8112954             -22.0765
         4        2.0000           -0.8018546             -21.8196
         5        2.0000           -0.7815657             -21.2675
         6        2.0000           -0.7664892             -20.8572
         7        2.0000           -0.7403812             -20.1468
         8        2.0000           -0.6992850             -19.0285
         9        2.0000           -0.6743697             -18.3505
        10        2.0000           -0.6659734             -18.1221
        11        2.0000           -0.6444830             -17.5373
        12        2.0000           -0.6244746             -16.9928
        13        2.0000           -0.5772951             -15.7090
        14        2.0000           -0.5682502             -15.4629 (HOMO)
        15                         -0.3203049              -8.7159 (LUMO)
        16                         -0.3083284              -8.3900
        17                         -0.2591129              -7.0508
        18                         -0.1630466              -4.4367
        19                         -0.1073697              -2.9217
        20                         -0.0936210              -2.5476
        21                         -0.0850696              -2.3149
        22                         -0.0512598              -1.3949
        23                         -0.0053369              -0.1452
        24                          0.0109128               0.2970
        25                          0.0586745               1.5966
       ...                                ...                  ...
        28                          1.2570426              34.2059
      -------------------------------------------------------------
                  HL-Gap            0.2479453 Eh            6.7469 eV
             Fermi-level           -0.4442776 Eh          -12.0894 eV

     #   Z          covCN         q      C6AA      α(0)
     1   7 N        3.483    -0.135    23.916     7.263
     2   6 C        3.739    -0.028    21.155     6.563
     3   6 C        3.806    -0.067    21.784     6.644
     4   6 C        1.971    -0.034    31.963     9.130
     5   6 C        1.909    -0.093    33.655     9.369
     6   1 H        0.859     0.267     0.819     1.418
     7   1 H        0.859     0.269     0.814     1.413
     8   1 H        0.858     0.281     0.774     1.379
     9   1 H        0.925     0.108     1.715     2.048
    10   1 H        0.924     0.110     1.697     2.037
    11   1 H        0.924     0.090     1.879     2.144
    12   1 H        0.924     0.114     1.661     2.015
    13   1 H        0.928     0.118     1.631     1.997

 Mol. C6AA /au·bohr⁶  :       1210.674020
 Mol. C8AA /au·bohr⁸  :      27644.211394
 Mol. α(0) /au        :         53.420849


Wiberg/Mayer (AO) data.
largest (>0.10) Wiberg bond orders for each atom

 ---------------------------------------------------------------------------
     #   Z sym  total        # sym  WBO       # sym  WBO       # sym  WBO
 ---------------------------------------------------------------------------
     1   7 N    3.671 --     2 C    0.934     6 H    0.915     7 H    0.913
                             8 H    0.868
     2   6 C    3.897 --     3 C    0.992     9 H    0.968    10 H    0.968
                             1 N    0.934
     3   6 C    3.981 --     4 C    1.047     2 C    0.992    11 H    0.951
                            12 H    0.941
     4   6 C    3.979 --     5 C    2.875     3 C    1.047
     5   6 C    3.966 --     4 C    2.875    13 H    0.962
     6   1 H    0.928 --     1 N    0.915
     7   1 H    0.928 --     1 N    0.913
     8   1 H    0.921 --     1 N    0.868
     9   1 H    0.988 --     2 C    0.968
    10   1 H    0.988 --     2 C    0.968
    11   1 H    0.992 --     3 C    0.951
    12   1 H    0.987 --     3 C    0.941
    13   1 H    0.986 --     5 C    0.962
 ---------------------------------------------------------------------------

Topologies differ in total number of bonds
Writing topology from bond orders to xtbtopo.mol

molecular dipole:
                 x           y           z       tot (Debye)
 q only:        2.606       0.642      -0.074
   full:        2.405       0.608      -0.039       6.307
molecular quadrupole (traceless):
                xx          xy          yy          xz          yz          zz
 q only:        8.115       2.126      -2.084      -1.850      -0.303      -6.031
  q+dip:        5.223       0.193       1.160      -1.683       1.100      -6.383
   full:        6.125       1.380      -0.435      -1.624       0.281      -5.690

           -------------------------------------------------
          |                Geometry Summary                 |
           -------------------------------------------------

      molecular mass/u    :       70.1131728
   center of mass at/Å    :        2.1197758       1.2591740      -0.4057629
  moments of inertia/u·Å² :        0.5656433E+02   0.1353393E+03   0.1756407E+03
rotational constants/cm⁻¹ :        0.2980258E+00   0.1245583E+00   0.9597791E-01

 * 10 selected distances

     #   Z          #   Z                                           value/Å
     1   7 N        2   6 C                                       1.4933171
     2   6 C        3   6 C                                       1.5299759 (max)
     4   6 C        5   6 C                                       1.1982613
     1   7 N        6   1 H                                       1.0258124 (min)
     1   7 N        7   1 H                                       1.0275341
     1   7 N        8   1 H                                       1.0446842
     2   6 C        9   1 H                                       1.0896293
     2   6 C       10   1 H                                       1.0912563
     3   6 C       11   1 H                                       1.0928925
     3   6 C       12   1 H                                       1.0908126

 * 4 distinct bonds (by element types)

   Z      Z             #   av. dist./Å        max./Å        min./Å
   1 H    6 C           4     1.0911476     1.0928925     1.0896293
   6 C    6 C           2     1.3641186     1.5299759     1.1982613
   1 H    7 N           3     1.0326769     1.0446842     1.0258124
   6 C    7 N           1     1.4933171     1.4933171     1.4933171


optimized geometry written to: xtbopt.xyz


           -------------------------------------------------
          | TOTAL ENERGY              -15.050536596219 Eh   |
          | GRADIENT NORM               0.000736094653 Eh/α |
          | HOMO-LUMO GAP               6.746936317478 eV   |
           -------------------------------------------------

------------------------------------------------------------------------
 * finished run on 2023/01/23 at 18:59:45.051     
------------------------------------------------------------------------
 total:
 * wall-time:     0 d,  0 h,  0 min,  0.182 sec
 *  cpu-time:     0 d,  0 h,  0 min, 17.823 sec
 * ratio c/w:    97.972 speedup
 SCF:
 * wall-time:     0 d,  0 h,  0 min,  0.019 sec
 *  cpu-time:     0 d,  0 h,  0 min,  2.368 sec
 * ratio c/w:   126.931 speedup
 ANC optimizer:
 * wall-time:     0 d,  0 h,  0 min,  0.143 sec
 *  cpu-time:     0 d,  0 h,  0 min, 13.008 sec
 * ratio c/w:    91.025 speedup

