 Entering Gaussian System
 *********************************************
 Gaussian 98:
 frequency output generated by the xtb code
 *********************************************
                         Standard orientation:
 --------------------------------------------------------------------
  Center     Atomic     Atomic              Coordinates (Angstroms)
  Number     Number      Type              X           Y           Z
 --------------------------------------------------------------------
    1          7             0        0.438539   -1.890663   -0.357578
    2          6             0       -0.814166   -1.405665    0.284475
    3          6             0       -1.263571   -0.063254   -0.278106
    4          6             0       -2.545257    0.460674    0.370698
    5          6             0       -2.985912    1.800985   -0.196993
    6         17             0        2.885143    0.542305    0.106139
    7          1             0        1.202193   -1.205677   -0.229772
    8          1             0        0.309365   -2.016834   -1.373918
    9          1             0        0.757556   -2.796914    0.034842
   10          1             0       -0.666572   -1.322684    1.368035
   11          1             0       -1.609951   -2.149281    0.154659
   12          1             0       -1.405546   -0.149145   -1.362265
   13          1             0       -0.459447    0.673022   -0.155720
   14          1             0       -2.396142    0.540085    1.455908
   15          1             0       -3.344051   -0.283182    0.248442
   16          1             0       -2.217047    2.563562   -0.052447
   17          1             0       -3.902688    2.165831    0.273360
   18          1             0       -3.172896    1.733155   -1.271102
 --------------------------------------------------------------------
     1 basis functions        1 primitive gaussians
     1 alpha electrons        1 beta electrons

 Harmonic frequencies (cm**-1), IR intensities (km*mol⁻¹),
 Raman scattering activities (A**4/amu), Raman depolarization ratios,
 reduced masses (AMU), force constants (mDyne/A) and normal coordinates:
                      1                      2                      3
                        a                      a                      a 
 Frequencies --  -135.3391                71.7950               119.8283
 Red. masses --    22.0460                20.7286                 8.8136
 Frc consts  --     0.0000                 0.0000                 0.0000
 IR Inten    --   142.8430                15.6149                 2.5493
 Raman Activ --     0.0000                 0.0000                 0.0000
 Depolar     --     0.0000                 0.0000                 0.0000
 Atom AN      X      Y      Z        X      Y      Z        X      Y      Z
   1   7     0.40   0.42   0.11     0.03   0.27   0.01     0.11   0.11   0.21
   2   6     0.22   0.12  -0.01     0.02   0.20   0.03    -0.05  -0.05   0.02
   3   6     0.06   0.06  -0.02    -0.19   0.11  -0.02    -0.34  -0.29  -0.34
   4   6     0.04  -0.01  -0.00    -0.25  -0.06  -0.01    -0.18  -0.12  -0.16
   5   6    -0.02  -0.02   0.01    -0.46  -0.13  -0.02     0.25   0.20   0.26
   6  17    -0.52  -0.43  -0.06     0.59  -0.27   0.01     0.12   0.07  -0.03
   7   1     0.09   0.16   0.05     0.03   0.04   0.03    -0.01   0.08   0.03
   8   1     0.14   0.11   0.03     0.01   0.10  -0.00     0.05  -0.03   0.06
   9   1     0.14   0.12   0.03    -0.01   0.05  -0.02     0.07   0.07   0.11
  10   1     0.03   0.03   0.00     0.02   0.08   0.01    -0.03   0.08  -0.00
  11   1     0.10  -0.00  -0.03     0.02   0.03   0.03     0.04  -0.08   0.05
  12   1     0.01   0.01  -0.00    -0.06   0.01  -0.00    -0.17  -0.19  -0.08
  13   1     0.00   0.04  -0.02    -0.09   0.07  -0.02    -0.11  -0.05  -0.22
  14   1     0.01  -0.00  -0.00    -0.07  -0.01  -0.01    -0.03  -0.14  -0.04
  15   1     0.02  -0.01   0.00    -0.04  -0.05   0.00    -0.12   0.05  -0.10
  16   1    -0.01   0.00   0.00    -0.16  -0.01  -0.02     0.13  -0.02   0.17
  17   1    -0.01  -0.01   0.00    -0.14  -0.07   0.00     0.09   0.09   0.09
  18   1    -0.00  -0.00   0.00    -0.14  -0.05  -0.00     0.09   0.18   0.07
                      4                      5                      6
                        a                      a                      a 
 Frequencies --   124.1416               171.5521               208.1489
 Red. masses --     6.1619                 8.1254                 8.8397
 Frc consts  --     0.0000                 0.0000                 0.0000
 IR Inten    --     0.4082                 6.2411                 9.9112
 Raman Activ --     0.0000                 0.0000                 0.0000
 Depolar     --     0.0000                 0.0000                 0.0000
 Atom AN      X      Y      Z        X      Y      Z        X      Y      Z
   1   7     0.06   0.04   0.01    -0.12  -0.17  -0.26    -0.04   0.28  -0.33
   2   6    -0.11  -0.10  -0.19     0.33   0.31   0.26     0.07  -0.14   0.20
   3   6    -0.18  -0.15  -0.26    -0.01  -0.02  -0.24    -0.23  -0.21   0.30
   4   6     0.26   0.22   0.32     0.10  -0.01  -0.04    -0.19   0.01   0.16
   5   6    -0.08  -0.06  -0.07    -0.06  -0.02   0.05     0.29  -0.02  -0.29
   6  17     0.02   0.03   0.13    -0.16  -0.04   0.16     0.04   0.01   0.04
   7   1     0.01   0.00   0.11     0.04  -0.13  -0.12    -0.01   0.07  -0.04
   8   1     0.09   0.07  -0.01    -0.15  -0.03  -0.06    -0.08   0.21  -0.10
   9   1    -0.01  -0.01  -0.03    -0.08  -0.08  -0.10     0.04   0.03  -0.22
  10   1    -0.08  -0.01  -0.05     0.30   0.27   0.03     0.11  -0.05   0.05
  11   1    -0.00  -0.05  -0.08     0.06   0.08   0.35     0.05  -0.08   0.11
  12   1    -0.21  -0.10  -0.05    -0.09  -0.15  -0.05    -0.08  -0.08   0.09
  13   1     0.00  -0.07  -0.23    -0.03   0.05  -0.23    -0.07  -0.04   0.05
  14   1     0.28   0.22   0.05     0.09   0.00  -0.02    -0.08   0.06   0.05
  15   1     0.05   0.05   0.35     0.03  -0.01   0.03    -0.09   0.04   0.06
  16   1     0.01   0.00  -0.26    -0.04   0.01   0.02     0.14  -0.06  -0.09
  17   1     0.06   0.05   0.09    -0.02  -0.04   0.04     0.08   0.11  -0.17
  18   1    -0.21  -0.17   0.02    -0.03   0.01   0.02     0.15  -0.08  -0.09
                      7                      8                      9
                        a                      a                      a 
 Frequencies --   277.6002               333.8689               390.5717
 Red. masses --     1.7885                 1.9624                 9.8495
 Frc consts  --     0.0000                 0.0000                 0.0000
 IR Inten    --     0.0047                 0.4577                 3.3587
 Raman Activ --     0.0000                 0.0000                 0.0000
 Depolar     --     0.0000                 0.0000                 0.0000
 Atom AN      X      Y      Z        X      Y      Z        X      Y      Z
   1   7    -0.01   0.00  -0.01    -0.03   0.01   0.14    -0.31   0.27   0.08
   2   6     0.04   0.03   0.06    -0.04   0.01   0.07    -0.22   0.29  -0.04
   3   6     0.06   0.04   0.06     0.07  -0.02  -0.05     0.05   0.18  -0.17
   4   6    -0.11  -0.11  -0.17     0.04  -0.05  -0.10     0.13  -0.32   0.11
   5   6     0.03   0.02   0.03     0.02   0.00   0.05     0.32  -0.41   0.01
   6  17    -0.01   0.01   0.01    -0.03   0.04  -0.09     0.01  -0.01   0.00
   7   1     0.01  -0.02   0.03     0.14  -0.24   0.48    -0.09   0.08  -0.02
   8   1    -0.01   0.05  -0.01     0.15   0.54  -0.05    -0.09   0.03   0.03
   9   1    -0.03  -0.02  -0.04    -0.31  -0.27  -0.34    -0.06   0.09   0.05
  10   1     0.02   0.01   0.01    -0.04  -0.01   0.02    -0.10   0.11  -0.01
  11   1     0.00   0.02   0.02    -0.02   0.01  -0.01    -0.09   0.11  -0.01
  12   1     0.09   0.04   0.01     0.03  -0.03  -0.01    -0.01   0.07  -0.04
  13   1    -0.01   0.02   0.09     0.02  -0.01  -0.02    -0.00   0.07  -0.04
  14   1    -0.09  -0.09  -0.03    -0.00  -0.04  -0.02     0.07  -0.11   0.03
  15   1    -0.03  -0.02  -0.13     0.02  -0.02  -0.06     0.06  -0.12   0.03
  16   1     0.25  -0.16  -0.42    -0.02   0.02   0.09     0.14  -0.16  -0.00
  17   1     0.31   0.27   0.40    -0.03  -0.05  -0.01     0.10  -0.04  -0.05
  18   1    -0.51  -0.06   0.10     0.06   0.05   0.00     0.13  -0.16  -0.00
                     10                     11                     12
                        a                      a                      a 
 Frequencies --   414.3817               782.0465               820.8793
 Red. masses --     8.7338                 1.7043                 2.1459
 Frc consts  --     0.0000                 0.0000                 0.0000
 IR Inten    --     5.3261                23.6512                 6.3218
 Raman Activ --     0.0000                 0.0000                 0.0000
 Depolar     --     0.0000                 0.0000                 0.0000
 Atom AN      X      Y      Z        X      Y      Z        X      Y      Z
   1   7     0.24  -0.35   0.05     0.00  -0.00  -0.00    -0.04  -0.01  -0.03
   2   6     0.18   0.22  -0.28     0.06   0.05   0.08    -0.13  -0.11  -0.16
   3   6    -0.25   0.25   0.04     0.09   0.08   0.11    -0.01  -0.02  -0.01
   4   6    -0.31  -0.05   0.27     0.08   0.07   0.11     0.12   0.10   0.14
   5   6     0.15  -0.04  -0.06     0.01   0.01   0.01     0.03   0.03   0.04
   6  17    -0.04   0.01  -0.01    -0.00   0.00   0.00     0.01  -0.00  -0.01
   7   1     0.15  -0.20   0.08     0.05  -0.04  -0.08    -0.15   0.12   0.20
   8   1     0.16  -0.11   0.00    -0.10  -0.01   0.01     0.28  -0.01  -0.04
   9   1    -0.12  -0.13   0.08    -0.01  -0.01  -0.02     0.05   0.05   0.07
  10   1     0.05   0.07  -0.08    -0.15  -0.26   0.06     0.25   0.27  -0.10
  11   1     0.04   0.07  -0.07    -0.03   0.11  -0.28    -0.04  -0.09   0.37
  12   1    -0.12   0.13   0.02    -0.35  -0.29   0.10    -0.07   0.16  -0.01
  13   1    -0.13   0.13   0.01     0.07   0.05  -0.44     0.11  -0.13   0.05
  14   1    -0.10  -0.01   0.08    -0.29  -0.21   0.09    -0.21  -0.26   0.09
  15   1    -0.10   0.00   0.06     0.07   0.02  -0.36     0.01   0.10  -0.33
  16   1     0.12  -0.08  -0.03    -0.06   0.08  -0.11    -0.11   0.16  -0.16
  17   1     0.05   0.13  -0.11    -0.03  -0.02  -0.03    -0.06  -0.05  -0.07
  18   1     0.11  -0.08  -0.03    -0.02  -0.15   0.01    -0.00  -0.25   0.03
                     13                     14                     15
                        a                      a                      a 
 Frequencies --   888.0445               916.0382               961.3005
 Red. masses --     2.4475                 5.4031                 6.4202
 Frc consts  --     0.0000                 0.0000                 0.0000
 IR Inten    --    19.5704                25.1494                19.5010
 Raman Activ --     0.0000                 0.0000                 0.0000
 Depolar     --     0.0000                 0.0000                 0.0000
 Atom AN      X      Y      Z        X      Y      Z        X      Y      Z
   1   7     0.06   0.13   0.09    -0.15   0.21  -0.06    -0.22   0.23   0.07
   2   6     0.04   0.06   0.00     0.06   0.14  -0.19     0.18  -0.07  -0.18
   3   6    -0.16  -0.17  -0.11    -0.14  -0.19   0.34     0.30  -0.19  -0.06
   4   6     0.09   0.06   0.05     0.16   0.02  -0.17    -0.11  -0.10   0.18
   5   6     0.08   0.04   0.06     0.13  -0.10  -0.07    -0.27   0.21   0.01
   6  17    -0.01   0.01   0.00    -0.00   0.00  -0.00    -0.00   0.00   0.00
   7   1     0.30  -0.22  -0.27     0.13  -0.14   0.05     0.10  -0.10  -0.01
   8   1    -0.35  -0.01   0.07     0.21  -0.19  -0.02    -0.02  -0.08   0.03
   9   1    -0.19  -0.07  -0.04    -0.39   0.07   0.29    -0.29   0.04   0.16
  10   1    -0.19   0.10   0.02     0.13  -0.03  -0.06     0.07   0.04  -0.05
  11   1     0.18  -0.15  -0.10     0.04   0.01  -0.02     0.10  -0.08   0.00
  12   1     0.16   0.17  -0.07    -0.09  -0.10   0.10     0.04  -0.05  -0.01
  13   1    -0.04  -0.09   0.25    -0.03  -0.05   0.01     0.19  -0.16  -0.06
  14   1     0.04  -0.20   0.03    -0.04   0.13  -0.04    -0.04  -0.04   0.05
  15   1    -0.10   0.17  -0.11     0.02   0.03  -0.01     0.09  -0.15   0.03
  16   1    -0.13   0.19  -0.16    -0.07   0.06   0.07     0.14  -0.15   0.01
  17   1    -0.05  -0.10  -0.04     0.04  -0.28   0.20    -0.03   0.40  -0.20
  18   1    -0.01  -0.24   0.03    -0.11   0.17  -0.00     0.11   0.00  -0.03
                     16                     17                     18
                        a                      a                      a 
 Frequencies --   974.8182              1018.8261              1085.2366
 Red. masses --     2.6144                 8.6877                 9.0192
 Frc consts  --     0.0000                 0.0000                 0.0000
 IR Inten    --     1.6424                 7.4153                11.9559
 Raman Activ --     0.0000                 0.0000                 0.0000
 Depolar     --     0.0000                 0.0000                 0.0000
 Atom AN      X      Y      Z        X      Y      Z        X      Y      Z
   1   7    -0.18   0.01  -0.06    -0.37  -0.02   0.32    -0.10   0.09   0.03
   2   6     0.19   0.07   0.04     0.52  -0.18  -0.30     0.16  -0.31   0.07
   3   6     0.03  -0.10  -0.05    -0.03   0.03  -0.00    -0.11   0.29  -0.11
   4   6    -0.07  -0.08  -0.03    -0.01  -0.04   0.05    -0.08   0.44  -0.25
   5   6     0.03   0.14   0.11     0.08   0.02  -0.10     0.00  -0.37   0.26
   6  17     0.00  -0.00  -0.00     0.00  -0.00  -0.00    -0.00   0.00  -0.00
   7   1    -0.15   0.08   0.16    -0.22   0.14   0.04     0.04  -0.05   0.02
   8   1     0.22  -0.05  -0.04    -0.24   0.17   0.08     0.01  -0.06   0.01
   9   1    -0.04   0.06   0.12     0.13  -0.01  -0.11    -0.13   0.02   0.08
  10   1     0.09  -0.27   0.03     0.06   0.01  -0.07     0.13  -0.17   0.02
  11   1    -0.10   0.20  -0.15     0.10  -0.01  -0.05     0.10  -0.15   0.04
  12   1     0.29  -0.22  -0.04    -0.11   0.14   0.00     0.04   0.02  -0.04
  13   1    -0.21   0.20   0.06    -0.09   0.10  -0.00     0.02   0.03  -0.05
  14   1     0.25  -0.19  -0.03    -0.07   0.05   0.02     0.02   0.09  -0.07
  15   1    -0.21   0.17   0.09    -0.04   0.03   0.00     0.00   0.09  -0.07
  16   1    -0.09   0.17  -0.17    -0.07   0.09   0.01     0.12  -0.21   0.04
  17   1    -0.08   0.03  -0.13     0.02  -0.16   0.10     0.01   0.06  -0.05
  18   1     0.04  -0.28   0.04    -0.09   0.11  -0.01     0.12  -0.21   0.05
                     19                     20                     21
                        a                      a                      a 
 Frequencies --  1110.9319              1146.8357              1182.4857
 Red. masses --     7.7861                 7.9642                 6.1528
 Frc consts  --     0.0000                 0.0000                 0.0000
 IR Inten    --     5.5699                 8.1297                 5.9939
 Raman Activ --     0.0000                 0.0000                 0.0000
 Depolar     --     0.0000                 0.0000                 0.0000
 Atom AN      X      Y      Z        X      Y      Z        X      Y      Z
   1   7    -0.01   0.05  -0.01     0.01   0.14  -0.07     0.12   0.08   0.16
   2   6     0.00  -0.24   0.13    -0.07  -0.30   0.19    -0.20  -0.14  -0.29
   3   6    -0.34   0.34   0.05     0.25   0.25  -0.32     0.17   0.12   0.28
   4   6     0.35  -0.31  -0.07    -0.30  -0.13   0.27    -0.16  -0.14  -0.25
   5   6    -0.09   0.25  -0.10     0.19   0.06  -0.16     0.09   0.09   0.16
   6  17    -0.00   0.00  -0.00    -0.00   0.00   0.00    -0.00   0.00   0.00
   7   1     0.06  -0.05   0.00     0.13  -0.10  -0.00     0.14  -0.06  -0.13
   8   1     0.03  -0.05   0.00     0.06  -0.11  -0.01    -0.24   0.03   0.07
   9   1    -0.08   0.01   0.05    -0.16   0.02   0.10     0.01  -0.05  -0.09
  10   1     0.09  -0.15   0.03     0.08  -0.12   0.04     0.20   0.12  -0.12
  11   1     0.07  -0.15   0.06    -0.00  -0.10   0.08    -0.15   0.02   0.21
  12   1    -0.15   0.13   0.02     0.05   0.04  -0.08    -0.12  -0.19   0.10
  13   1    -0.15   0.15   0.02     0.05   0.08  -0.11     0.02   0.10  -0.18
  14   1     0.22  -0.22  -0.03    -0.10   0.04   0.07     0.18   0.09  -0.10
  15   1     0.21  -0.21  -0.02    -0.14   0.03   0.09    -0.09  -0.02   0.18
  16   1     0.00   0.05  -0.05    -0.13   0.19   0.00    -0.06   0.13  -0.13
  17   1    -0.02   0.13  -0.07     0.02  -0.26   0.14    -0.05  -0.02  -0.08
  18   1     0.01   0.06  -0.03    -0.15   0.13  -0.01     0.02  -0.22   0.05
                     22                     23                     24
                        a                      a                      a 
 Frequencies --  1220.5542              1265.8972              1278.6367
 Red. masses --     3.8060                 2.3259                 2.1796
 Frc consts  --     0.0000                 0.0000                 0.0000
 IR Inten    --     5.1833                 5.1591                 1.9370
 Raman Activ --     0.0000                 0.0000                 0.0000
 Depolar     --     0.0000                 0.0000                 0.0000
 Atom AN      X      Y      Z        X      Y      Z        X      Y      Z
   1   7    -0.12  -0.08  -0.16     0.03   0.02   0.08    -0.05  -0.05   0.01
   2   6     0.11   0.07   0.14     0.07   0.11   0.09     0.01   0.12   0.00
   3   6     0.05   0.07   0.07    -0.14  -0.08  -0.14     0.04   0.16   0.14
   4   6    -0.16  -0.15  -0.20    -0.10  -0.06  -0.10    -0.12  -0.00  -0.02
   5   6     0.14   0.12   0.17     0.08   0.07   0.08    -0.05  -0.06  -0.14
   6  17     0.00  -0.00  -0.00     0.00   0.00   0.00     0.00  -0.00  -0.00
   7   1    -0.13   0.04   0.14     0.04  -0.01  -0.04    -0.04   0.01   0.01
   8   1     0.15  -0.03  -0.06    -0.03   0.02   0.02     0.03   0.03  -0.01
   9   1     0.03   0.05   0.08     0.03  -0.01  -0.02     0.06   0.01  -0.01
  10   1    -0.36   0.20   0.08     0.29  -0.39   0.02     0.02  -0.05   0.01
  11   1     0.32  -0.26  -0.12    -0.23   0.31  -0.05     0.16  -0.13  -0.04
  12   1    -0.16   0.10   0.03    -0.19   0.34  -0.04    -0.15   0.04   0.06
  13   1     0.15  -0.11  -0.06     0.29  -0.39   0.09     0.35  -0.30  -0.09
  14   1    -0.01   0.23  -0.07    -0.03   0.13  -0.04     0.45  -0.42  -0.04
  15   1     0.07  -0.18   0.14     0.09  -0.16   0.06    -0.30   0.28   0.06
  16   1    -0.08   0.18  -0.15    -0.04   0.09  -0.07     0.03  -0.08   0.09
  17   1    -0.06  -0.05  -0.08    -0.04  -0.04  -0.04     0.03  -0.03   0.05
  18   1     0.01  -0.23   0.06    -0.01  -0.11   0.03    -0.03   0.13  -0.04
                     25                     26                     27
                        a                      a                      a 
 Frequencies --  1287.0374              1342.4181              1374.3805
 Red. masses --     3.2466                 3.7549                 4.0106
 Frc consts  --     0.0000                 0.0000                 0.0000
 IR Inten    --     4.1526                 9.4350                27.7449
 Raman Activ --     0.0000                 0.0000                 0.0000
 Depolar     --     0.0000                 0.0000                 0.0000
 Atom AN      X      Y      Z        X      Y      Z        X      Y      Z
   1   7     0.06   0.08  -0.11    -0.11  -0.06   0.10     0.18  -0.00  -0.05
   2   6     0.11  -0.21   0.14    -0.23   0.25   0.00     0.03   0.02  -0.04
   3   6     0.17  -0.11   0.01     0.17  -0.08  -0.06    -0.20   0.23  -0.01
   4   6     0.14  -0.11  -0.11     0.17  -0.16  -0.03     0.22  -0.28   0.02
   5   6    -0.11  -0.05   0.05    -0.07  -0.03   0.07    -0.06  -0.00   0.04
   6  17    -0.00   0.00  -0.00    -0.00  -0.00   0.00     0.00  -0.00  -0.00
   7   1     0.02  -0.00   0.06     0.04  -0.05  -0.16    -0.20   0.22   0.22
   8   1    -0.00  -0.07  -0.01     0.14   0.10  -0.01    -0.28  -0.13   0.05
   9   1    -0.14   0.01   0.08     0.14   0.01  -0.05    -0.23  -0.10  -0.03
  10   1    -0.22   0.18   0.05     0.30  -0.30  -0.02    -0.00  -0.05  -0.00
  11   1    -0.24   0.25   0.00     0.31  -0.33  -0.02     0.02  -0.02   0.03
  12   1    -0.38   0.39   0.03    -0.16   0.11   0.00     0.23  -0.21  -0.02
  13   1    -0.11   0.14  -0.00    -0.13   0.16   0.03     0.21  -0.21  -0.03
  14   1    -0.01   0.07  -0.03    -0.19   0.23  -0.00    -0.22   0.26   0.02
  15   1    -0.30   0.33   0.03    -0.21   0.24   0.01    -0.22   0.24  -0.02
  16   1     0.04  -0.07  -0.00    -0.00  -0.01  -0.04    -0.02   0.02  -0.06
  17   1    -0.01   0.11  -0.06    -0.01   0.12  -0.07    -0.01   0.09  -0.05
  18   1     0.04   0.03  -0.01     0.03   0.02   0.00     0.04   0.06  -0.00
                     28                     29                     30
                        a                      a                      a 
 Frequencies --  1376.0772              1403.9754              1441.2938
 Red. masses --     3.3632                 1.7478                 3.2112
 Frc consts  --     0.0000                 0.0000                 0.0000
 IR Inten    --   118.0913                61.0512                 2.8329
 Raman Activ --     0.0000                 0.0000                 0.0000
 Depolar     --     0.0000                 0.0000                 0.0000
 Atom AN      X      Y      Z        X      Y      Z        X      Y      Z
   1   7     0.26  -0.05  -0.02     0.01   0.07  -0.16     0.00   0.01   0.01
   2   6    -0.10   0.13   0.01    -0.07   0.10  -0.04    -0.01   0.01   0.01
   3   6     0.17  -0.17  -0.02     0.07  -0.09  -0.00     0.00   0.01  -0.01
   4   6    -0.14   0.16  -0.01    -0.02   0.06  -0.00     0.06  -0.07  -0.00
   5   6     0.04  -0.01  -0.02     0.00   0.00  -0.01    -0.14   0.39  -0.14
   6  17     0.01  -0.00  -0.00    -0.00   0.00  -0.01     0.00  -0.00   0.00
   7   1    -0.33   0.39   0.06     0.11  -0.25   0.65    -0.01   0.02  -0.01
   8   1    -0.22  -0.06   0.04    -0.43  -0.25   0.07     0.02  -0.03   0.00
   9   1    -0.46  -0.18  -0.01     0.31   0.15   0.06    -0.01  -0.02  -0.03
  10   1     0.09  -0.15   0.01     0.09  -0.11  -0.01     0.01  -0.02   0.00
  11   1     0.12  -0.14   0.02     0.06  -0.07   0.00     0.02  -0.02   0.00
  12   1    -0.17   0.16   0.01    -0.04   0.08   0.00     0.00   0.01  -0.00
  13   1    -0.14   0.15   0.02    -0.07   0.07   0.00    -0.00   0.01  -0.01
  14   1     0.12  -0.14  -0.01     0.01  -0.05   0.00    -0.08   0.03   0.01
  15   1     0.13  -0.14   0.00     0.03  -0.03  -0.00    -0.06   0.05   0.04
  16   1    -0.01   0.01   0.02     0.02  -0.02   0.02     0.33  -0.35   0.19
  17   1     0.01  -0.03   0.02    -0.00  -0.02   0.00    -0.04  -0.42   0.29
  18   1    -0.02  -0.03   0.00    -0.00   0.00  -0.00     0.15  -0.48  -0.01
                     31                     32                     33
                        a                      a                      a 
 Frequencies --  1455.2041              1491.4150              1506.7712
 Red. masses --     1.9528                 1.8895                 1.5260
 Frc consts  --     0.0000                 0.0000                 0.0000
 IR Inten    --    81.1382                 7.5179                 5.0298
 Raman Activ --     0.0000                 0.0000                 0.0000
 Depolar     --     0.0000                 0.0000                 0.0000
 Atom AN      X      Y      Z        X      Y      Z        X      Y      Z
   1   7    -0.09   0.21   0.14    -0.02   0.03   0.01    -0.00   0.00  -0.00
   2   6     0.01   0.00   0.04     0.13   0.14  -0.20     0.01   0.00  -0.00
   3   6     0.00  -0.02   0.01     0.01  -0.03   0.01     0.02   0.02  -0.03
   4   6    -0.01   0.01  -0.01    -0.02  -0.01   0.02    -0.03  -0.01  -0.04
   5   6     0.01  -0.02   0.01     0.01   0.00  -0.01    -0.14  -0.09  -0.12
   6  17    -0.00   0.00  -0.00    -0.00   0.00   0.00    -0.00   0.00  -0.00
   7   1     0.00   0.02   0.03     0.04  -0.02  -0.04     0.01  -0.01   0.01
   8   1     0.24  -0.62   0.06     0.07  -0.06  -0.00    -0.00  -0.00   0.00
   9   1     0.04  -0.25  -0.63     0.03  -0.02  -0.08     0.01   0.01   0.00
  10   1     0.03   0.08  -0.00    -0.49  -0.44   0.10    -0.02  -0.01   0.00
  11   1     0.02   0.01  -0.10    -0.06  -0.05   0.67    -0.01   0.00   0.02
  12   1    -0.01   0.02   0.00     0.02   0.04  -0.00    -0.07  -0.05   0.01
  13   1    -0.00   0.00  -0.01    -0.01   0.02  -0.05     0.01  -0.02   0.08
  14   1     0.01  -0.02  -0.00     0.05   0.04  -0.01    -0.02   0.00  -0.01
  15   1     0.01  -0.01   0.01     0.00   0.00  -0.06     0.00  -0.03   0.04
  16   1    -0.02   0.02  -0.01    -0.01   0.00   0.04    -0.29   0.27   0.06
  17   1     0.00   0.02  -0.01    -0.00   0.02  -0.02     0.38   0.27   0.52
  18   1    -0.00   0.02   0.00    -0.04  -0.02   0.01     0.50  -0.17  -0.08
                     34                     35                     36
                        a                      a                      a 
 Frequencies --  1508.9172              1513.1390              1523.8171
 Red. masses --     1.8101                 1.6295                 1.9903
 Frc consts  --     0.0000                 0.0000                 0.0000
 IR Inten    --     1.5005                 6.9804                 0.8149
 Raman Activ --     0.0000                 0.0000                 0.0000
 Depolar     --     0.0000                 0.0000                 0.0000
 Atom AN      X      Y      Z        X      Y      Z        X      Y      Z
   1   7     0.00  -0.01   0.00    -0.00  -0.01   0.00     0.00  -0.00  -0.00
   2   6    -0.03   0.00   0.03    -0.02   0.02   0.00     0.02   0.00  -0.02
   3   6    -0.11  -0.11   0.16    -0.07  -0.09   0.12     0.01   0.05  -0.04
   4   6     0.03  -0.04  -0.01     0.01   0.05  -0.04     0.15   0.12  -0.20
   5   6     0.07  -0.01  -0.11    -0.11  -0.01   0.11     0.06  -0.02  -0.03
   6  17    -0.00  -0.00   0.00    -0.00   0.00   0.00     0.00   0.00  -0.00
   7   1    -0.00   0.01  -0.01     0.00   0.00  -0.02    -0.00   0.01  -0.00
   8   1     0.00   0.02  -0.00     0.01   0.02  -0.00     0.00   0.00  -0.00
   9   1    -0.00   0.00   0.01     0.00  -0.00   0.00    -0.00  -0.00   0.00
  10   1     0.06   0.03  -0.01    -0.01  -0.03   0.01    -0.04  -0.03   0.01
  11   1     0.01  -0.01  -0.06     0.01  -0.02   0.03    -0.01  -0.00   0.05
  12   1     0.34   0.36  -0.07     0.28   0.30  -0.06    -0.05  -0.09   0.01
  13   1     0.03   0.05  -0.52     0.02   0.05  -0.43     0.01  -0.02   0.10
  14   1     0.01   0.05  -0.01    -0.14  -0.16   0.04    -0.48  -0.41   0.10
  15   1    -0.02   0.02  -0.03    -0.01  -0.04   0.21    -0.06  -0.04   0.63
  16   1    -0.15   0.07   0.43     0.11  -0.02  -0.48    -0.05   0.02   0.16
  17   1     0.09   0.23  -0.01    -0.03  -0.19   0.10     0.01   0.09  -0.07
  18   1    -0.25  -0.25   0.05     0.36   0.27  -0.08    -0.16  -0.06   0.03
                     37                     38                     39
                        a                      a                      a 
 Frequencies --  2889.0573              2903.7825              2931.8034
 Red. masses --     2.0022                 1.9167                 1.9009
 Frc consts  --     0.0000                 0.0000                 0.0000
 IR Inten    --  1691.5352                56.6320                27.7309
 Raman Activ --     0.0000                 0.0000                 0.0000
 Depolar     --     0.0000                 0.0000                 0.0000
 Atom AN      X      Y      Z        X      Y      Z        X      Y      Z
   1   7    -0.19  -0.19  -0.04     0.01   0.01   0.00    -0.02  -0.02  -0.00
   2   6     0.03   0.03   0.02    -0.00  -0.00  -0.01    -0.08  -0.07  -0.08
   3   6     0.00   0.00  -0.00     0.03   0.03   0.04     0.11   0.09   0.19
   4   6    -0.01  -0.01  -0.01    -0.16  -0.14  -0.18     0.05   0.05   0.01
   5   6     0.00  -0.00  -0.00     0.01   0.01   0.01    -0.01  -0.00  -0.01
   6  17     0.01   0.01   0.00    -0.00  -0.00   0.00     0.00   0.00   0.00
   7   1     0.69   0.63   0.13    -0.03  -0.03  -0.01     0.05   0.05   0.01
   8   1    -0.01  -0.01   0.03     0.00   0.00  -0.00     0.00  -0.00  -0.01
   9   1    -0.02   0.02  -0.02     0.00  -0.00   0.00    -0.00   0.00  -0.00
  10   1     0.00   0.00  -0.03     0.00  -0.00   0.03     0.03   0.01   0.26
  11   1    -0.11  -0.11  -0.02     0.02   0.02   0.00     0.25   0.23   0.04
  12   1    -0.00  -0.00   0.00    -0.02  -0.01  -0.16    -0.09  -0.05  -0.68
  13   1    -0.00  -0.00  -0.00    -0.11  -0.10  -0.01    -0.31  -0.29  -0.03
  14   1     0.00   0.00   0.03     0.06   0.03   0.57     0.01   0.01   0.03
  15   1     0.02   0.02   0.00     0.53   0.49   0.07    -0.20  -0.18  -0.04
  16   1     0.00   0.00   0.00    -0.04  -0.05  -0.00     0.02   0.02   0.00
  17   1    -0.01   0.00   0.00    -0.00   0.00   0.01     0.00  -0.00  -0.00
  18   1    -0.00  -0.00  -0.00    -0.01  -0.00  -0.06     0.00   0.00   0.02
                     40                     41                     42
                        a                      a                      a 
 Frequencies --  2938.6588              2948.0923              2963.8608
 Red. masses --     1.5234                 1.9300                 1.5981
 Frc consts  --     0.0000                 0.0000                 0.0000
 IR Inten    --    26.1023                10.8663                 3.5875
 Raman Activ --     0.0000                 0.0000                 0.0000
 Depolar     --     0.0000                 0.0000                 0.0000
 Atom AN      X      Y      Z        X      Y      Z        X      Y      Z
   1   7    -0.00  -0.00  -0.00     0.03   0.03   0.01     0.00   0.00   0.00
   2   6    -0.02  -0.01  -0.03     0.16   0.14   0.13     0.01   0.01   0.11
   3   6     0.04   0.04   0.02     0.04   0.03   0.13     0.13   0.13  -0.07
   4   6    -0.07  -0.08   0.17     0.01   0.00   0.03     0.02   0.02  -0.01
   5   6     0.02  -0.00  -0.02     0.00  -0.00  -0.01    -0.03  -0.00   0.02
   6  17     0.00   0.00   0.00    -0.00  -0.00  -0.00    -0.00   0.00   0.00
   7   1     0.01   0.01   0.00    -0.09  -0.08  -0.02    -0.01  -0.01  -0.00
   8   1     0.00  -0.00  -0.00     0.00  -0.00  -0.00     0.00   0.00   0.01
   9   1    -0.00   0.00  -0.00     0.01  -0.01   0.01    -0.00   0.00  -0.00
  10   1     0.01   0.01   0.11    -0.04  -0.02  -0.37    -0.06  -0.04  -0.41
  11   1     0.05   0.05   0.01    -0.53  -0.49  -0.09     0.03   0.02   0.02
  12   1     0.00   0.00  -0.02    -0.07  -0.04  -0.47     0.08   0.05   0.37
  13   1    -0.16  -0.15  -0.03    -0.05  -0.04   0.01    -0.56  -0.52  -0.12
  14   1    -0.13  -0.09  -0.74    -0.01  -0.01  -0.09     0.01   0.01   0.06
  15   1     0.40   0.37   0.11    -0.01  -0.01   0.00    -0.07  -0.07  -0.02
  16   1    -0.03  -0.03  -0.01     0.00   0.00  -0.00     0.04   0.04   0.01
  17   1    -0.05   0.02   0.02    -0.01   0.00   0.01     0.08  -0.03  -0.04
  18   1     0.02   0.01   0.08     0.01   0.00   0.04    -0.01  -0.01  -0.05
                     43                     44                     45
                        a                      a                      a 
 Frequencies --  2978.1281              2986.2089              2989.9777
 Red. masses --     1.5613                 1.8847                 1.9257
 Frc consts  --     0.0000                 0.0000                 0.0000
 IR Inten    --     8.2402                44.4546                36.4791
 Raman Activ --     0.0000                 0.0000                 0.0000
 Depolar     --     0.0000                 0.0000                 0.0000
 Atom AN      X      Y      Z        X      Y      Z        X      Y      Z
   1   7    -0.02  -0.01  -0.01     0.00   0.00   0.00    -0.00  -0.00   0.00
   2   6    -0.07  -0.07   0.17     0.01   0.01  -0.02    -0.00  -0.00  -0.00
   3   6    -0.04  -0.05   0.05     0.02   0.02  -0.02    -0.01  -0.01  -0.01
   4   6    -0.01  -0.01   0.01     0.02   0.01  -0.03    -0.02  -0.02  -0.02
   5   6     0.04  -0.01  -0.04     0.19  -0.06  -0.19    -0.20  -0.11  -0.17
   6  17     0.00   0.00  -0.00    -0.00  -0.00   0.00    -0.00   0.00  -0.00
   7   1     0.04   0.04   0.01    -0.01  -0.01  -0.00     0.00  -0.00   0.00
   8   1     0.00   0.00   0.03    -0.00   0.00  -0.01    -0.00  -0.00  -0.00
   9   1    -0.00   0.00   0.00    -0.00   0.00  -0.00    -0.00   0.00  -0.00
  10   1    -0.12  -0.08  -0.71     0.02   0.01   0.10     0.00   0.00   0.01
  11   1     0.37   0.33   0.10    -0.06  -0.06  -0.02     0.01   0.01   0.00
  12   1    -0.04  -0.02  -0.21     0.02   0.01   0.11     0.00   0.00   0.02
  13   1     0.19   0.18   0.04    -0.09  -0.09  -0.02     0.02   0.02   0.00
  14   1    -0.01  -0.01  -0.05     0.02   0.01   0.10     0.01   0.01   0.06
  15   1     0.05   0.04   0.01    -0.05  -0.05  -0.01     0.05   0.04   0.01
  16   1    -0.04  -0.04  -0.02    -0.05  -0.09  -0.05     0.45   0.44   0.07
  17   1    -0.14   0.05   0.07    -0.71   0.27   0.36     0.16  -0.09  -0.13
  18   1     0.02   0.01   0.10     0.09   0.03   0.35     0.09   0.04   0.67
                     46                     47                     48
                        a                      a                      a 
 Frequencies --  3004.3691              3137.4644              3202.4437
 Red. masses --     1.3167                 1.7937                 1.7235
 Frc consts  --     0.0000                 0.0000                 0.0000
 IR Inten    --    25.6875                37.6933                30.5551
 Raman Activ --     0.0000                 0.0000                 0.0000
 Depolar     --     0.0000                 0.0000                 0.0000
 Atom AN      X      Y      Z        X      Y      Z        X      Y      Z
   1   7     0.00   0.00  -0.00     0.08  -0.20   0.11    -0.02  -0.03  -0.23
   2   6    -0.00  -0.00   0.00     0.00  -0.00   0.00     0.00  -0.00  -0.01
   3   6    -0.01  -0.01   0.01    -0.00   0.00   0.00     0.00   0.00   0.00
   4   6    -0.01  -0.01   0.01    -0.00  -0.00  -0.00     0.00   0.00  -0.00
   5   6    -0.03  -0.14   0.08     0.00  -0.00   0.00     0.00  -0.00  -0.00
   6  17    -0.00   0.00  -0.00     0.00  -0.00  -0.00     0.00  -0.00   0.00
   7   1    -0.00  -0.00  -0.00    -0.03  -0.05   0.01    -0.04  -0.04  -0.03
   8   1    -0.00  -0.00  -0.00    -0.00  -0.03  -0.05     0.14   0.11   0.95
   9   1     0.00  -0.00   0.00    -0.28   0.84  -0.38    -0.02   0.05  -0.05
  10   1    -0.00  -0.00  -0.02    -0.00   0.00  -0.00     0.01   0.00   0.03
  11   1     0.01   0.01   0.00    -0.00  -0.00  -0.00    -0.01  -0.00   0.00
  12   1    -0.01  -0.00  -0.03    -0.00  -0.00  -0.01     0.00  -0.00  -0.00
  13   1     0.03   0.02   0.01     0.00   0.00   0.00    -0.00  -0.00  -0.00
  14   1    -0.01  -0.01  -0.04     0.00   0.00   0.00    -0.00   0.00   0.00
  15   1     0.04   0.03   0.01    -0.00  -0.00   0.00    -0.00  -0.00  -0.00
  16   1     0.51   0.48   0.11     0.00   0.00  -0.00     0.00   0.00   0.00
  17   1    -0.31   0.10   0.17    -0.00   0.00   0.00    -0.00   0.00   0.00
  18   1    -0.10  -0.06  -0.56    -0.00  -0.00  -0.00     0.00   0.00   0.00
