 Entering Gaussian System
 *********************************************
 Gaussian 98:
 frequency output generated by the xtb code
 *********************************************
                         Standard orientation:
 --------------------------------------------------------------------
  Center     Atomic     Atomic              Coordinates (Angstroms)
  Number     Number      Type              X           Y           Z
 --------------------------------------------------------------------
    1          7             0       -4.108919   -0.078707    0.572435
    2          6             0       -2.914064   -0.840265    0.097712
    3          6             0       -2.076824   -0.083081   -0.932963
    4          6             0       -1.406305    1.193347   -0.400847
    5          6             0       -0.373883    0.957433    0.688160
    6         53             0        1.306049   -0.129337   -0.018564
    7          1             0       -4.706860    0.186384   -0.216424
    8          1             0       -3.834853    0.778062    1.063852
    9          1             0       -4.671150   -0.639833    1.220258
   10          1             0       -3.257531   -1.791124   -0.329486
   11          1             0       -2.296703   -1.116476    0.959170
   12          1             0       -2.718016    0.170151   -1.785451
   13          1             0       -1.307449   -0.747936   -1.343774
   14          1             0       -2.179270    1.881332   -0.034216
   15          1             0       -0.925865    1.728553   -1.232700
   16          1             0       -0.785923    0.407047    1.534302
   17          1             0        0.030234    1.895262    1.076047
 --------------------------------------------------------------------
     1 basis functions        1 primitive gaussians
     1 alpha electrons        1 beta electrons

 Harmonic frequencies (cm**-1), IR intensities (km*mol⁻¹),
 Raman scattering activities (A**4/amu), Raman depolarization ratios,
 reduced masses (AMU), force constants (mDyne/A) and normal coordinates:
                      1                      2                      3
                        a                      a                      a 
 Frequencies --   -72.5424                48.8300               126.6996
 Red. masses --    26.1051                12.1082                 5.0707
 Frc consts  --     0.0000                 0.0000                 0.0000
 IR Inten    --    11.3794                 8.1229                 1.2752
 Raman Activ --     0.0000                 0.0000                 0.0000
 Depolar     --     0.0000                 0.0000                 0.0000
 Atom AN      X      Y      Z        X      Y      Z        X      Y      Z
   1   7    -0.32   0.28  -0.20     0.27   0.20   0.37    -0.00  -0.03   0.12
   2   6    -0.33   0.02   0.11    -0.15  -0.08  -0.23    -0.04   0.05  -0.09
   3   6    -0.07  -0.22   0.15    -0.16  -0.06  -0.23    -0.18   0.12  -0.16
   4   6    -0.01  -0.25   0.13    -0.07  -0.13  -0.20    -0.02   0.00  -0.07
   5   6    -0.07  -0.34   0.17    -0.19  -0.21  -0.11    -0.10  -0.17  -0.03
   6  53     0.31   0.18  -0.12     0.10   0.09   0.13     0.12   0.01   0.07
   7   1    -0.04   0.06  -0.09     0.10   0.30   0.16    -0.29  -0.42   0.12
   8   1    -0.07   0.09  -0.08     0.20  -0.09   0.27     0.01   0.23  -0.39
   9   1    -0.14   0.13  -0.05    -0.00   0.00  -0.01     0.30   0.15   0.43
  10   1    -0.12   0.00   0.05    -0.17   0.05  -0.13    -0.02   0.01  -0.00
  11   1    -0.15   0.01   0.07    -0.00  -0.16  -0.14     0.03   0.03  -0.05
  12   1     0.03  -0.07   0.00    -0.06   0.01  -0.05    -0.08   0.08  -0.01
  13   1    -0.02  -0.10   0.10    -0.07  -0.02  -0.09    -0.08   0.04  -0.10
  14   1     0.01  -0.05   0.02    -0.01  -0.02  -0.08     0.01   0.02  -0.02
  15   1     0.02  -0.09   0.04     0.01  -0.05  -0.05     0.02  -0.00  -0.01
  16   1    -0.01  -0.17   0.01    -0.07  -0.10  -0.07    -0.05  -0.09  -0.04
  17   1    -0.06  -0.11   0.12    -0.09  -0.07   0.02    -0.05  -0.06   0.04
                      4                      5                      6
                        a                      a                      a 
 Frequencies --   155.9834               268.1299               324.0878
 Red. masses --    30.3570                 7.3468                11.9100
 Frc consts  --     0.0000                 0.0000                 0.0000
 IR Inten    --    16.2442                 4.7814                12.9613
 Raman Activ --     0.0000                 0.0000                 0.0000
 Depolar     --     0.0000                 0.0000                 0.0000
 Atom AN      X      Y      Z        X      Y      Z        X      Y      Z
   1   7    -0.43  -0.25   0.09     0.02   0.10   0.01    -0.25  -0.17   0.22
   2   6    -0.23   0.07  -0.00    -0.31  -0.24  -0.29    -0.19   0.06  -0.14
   3   6    -0.34   0.20  -0.01     0.08  -0.14   0.09     0.21  -0.02   0.07
   4   6    -0.11   0.12  -0.09    -0.16  -0.06   0.23     0.52  -0.05  -0.20
   5   6     0.06   0.15  -0.25     0.22   0.36  -0.02     0.16   0.03   0.15
   6  53     0.40  -0.09   0.09     0.05  -0.03  -0.00    -0.16   0.08  -0.03
   7   1    -0.08   0.02   0.02    -0.10  -0.01   0.07    -0.15  -0.04   0.12
   8   1    -0.18  -0.12   0.16     0.13   0.05  -0.11    -0.08  -0.05   0.08
   9   1    -0.13  -0.17  -0.08     0.07   0.11   0.14     0.02  -0.12   0.07
  10   1    -0.02   0.01  -0.02    -0.20   0.02  -0.20    -0.08   0.07  -0.13
  11   1    -0.05   0.04  -0.01    -0.12  -0.23  -0.11    -0.08  -0.09  -0.05
  12   1    -0.13   0.09   0.03     0.11  -0.03  -0.04     0.14   0.01  -0.04
  13   1    -0.13   0.06  -0.06     0.06  -0.03   0.09     0.03  -0.09   0.10
  14   1    -0.00   0.04   0.03    -0.08  -0.09   0.13     0.17   0.10  -0.22
  15   1    -0.08   0.03  -0.05    -0.15   0.05   0.05     0.27  -0.17  -0.08
  16   1     0.03   0.08  -0.04     0.13   0.21   0.10    -0.01   0.00   0.01
  17   1     0.03   0.06  -0.12     0.10   0.15  -0.16     0.04   0.00   0.07
                      7                      8                      9
                        a                      a                      a 
 Frequencies --   411.7081               473.4541               599.0964
 Red. masses --     8.2551                 8.5344                18.4860
 Frc consts  --     0.0000                 0.0000                 0.0000
 IR Inten    --     8.3057                 7.3667                12.7386
 Raman Activ --     0.0000                 0.0000                 0.0000
 Depolar     --     0.0000                 0.0000                 0.0000
 Atom AN      X      Y      Z        X      Y      Z        X      Y      Z
   1   7    -0.13  -0.02   0.17    -0.11   0.04   0.12    -0.01   0.01  -0.01
   2   6     0.00   0.24  -0.06     0.08   0.34  -0.09    -0.00  -0.02   0.04
   3   6     0.39  -0.05  -0.00     0.04  -0.14  -0.44     0.07   0.03   0.10
   4   6    -0.26   0.25  -0.05    -0.00  -0.40   0.15     0.13  -0.01   0.01
   5   6    -0.25  -0.06  -0.15     0.18  -0.03   0.11     0.48  -0.39  -0.53
   6  53     0.09  -0.08  -0.01    -0.06   0.05   0.02    -0.21   0.14   0.12
   7   1    -0.11  -0.02   0.10    -0.09   0.01   0.08     0.01  -0.01  -0.01
   8   1    -0.10  -0.01   0.09    -0.13  -0.01   0.12    -0.01   0.01  -0.01
   9   1     0.06  -0.11   0.04     0.06  -0.13  -0.01    -0.01   0.02   0.00
  10   1     0.01   0.07  -0.03     0.06   0.01   0.15    -0.02   0.02  -0.05
  11   1    -0.02   0.05  -0.01     0.11   0.27  -0.03    -0.04  -0.07   0.02
  12   1     0.27  -0.22  -0.18     0.03   0.04  -0.11     0.00   0.02   0.04
  13   1     0.25  -0.03   0.28    -0.04  -0.09  -0.13     0.01   0.01   0.00
  14   1    -0.15  -0.05   0.06    -0.07  -0.24   0.13     0.07  -0.10   0.26
  15   1    -0.14   0.19   0.03    -0.05   0.04   0.12    -0.14   0.13  -0.02
  16   1    -0.10  -0.11  -0.12     0.14   0.11   0.15     0.09  -0.15  -0.19
  17   1    -0.07  -0.07   0.08     0.04   0.07  -0.14     0.09  -0.13  -0.04
                     10                     11                     12
                        a                      a                      a 
 Frequencies --   779.1971               798.4349               863.9090
 Red. masses --     4.4533                 4.5684                 4.1863
 Frc consts  --     0.0000                 0.0000                 0.0000
 IR Inten    --    38.4971                29.0068                23.6363
 Raman Activ --     0.0000                 0.0000                 0.0000
 Depolar     --     0.0000                 0.0000                 0.0000
 Atom AN      X      Y      Z        X      Y      Z        X      Y      Z
   1   7     0.11  -0.10  -0.07     0.11   0.07  -0.02     0.03   0.04  -0.26
   2   6    -0.05   0.07  -0.12     0.16   0.23   0.05     0.00   0.11  -0.12
   3   6    -0.21   0.17   0.10     0.09   0.09   0.24     0.12  -0.03   0.33
   4   6    -0.16  -0.01   0.11    -0.07  -0.23   0.02    -0.02  -0.15   0.05
   5   6     0.02  -0.32  -0.07    -0.23  -0.15  -0.09    -0.11   0.07  -0.12
   6  53    -0.02   0.04   0.02     0.02   0.01  -0.01     0.01  -0.01  -0.00
   7   1    -0.01   0.07   0.04     0.07  -0.20  -0.10    -0.36   0.23   0.29
   8   1     0.17  -0.07  -0.02    -0.33   0.11   0.04     0.22  -0.16   0.10
   9   1     0.04   0.01   0.02     0.09  -0.17  -0.11     0.32  -0.18   0.04
  10   1     0.11  -0.07   0.07    -0.14   0.26  -0.29     0.17  -0.05   0.00
  11   1     0.07   0.20  -0.03    -0.04  -0.32  -0.05    -0.15   0.18   0.13
  12   1     0.17  -0.15  -0.19    -0.06   0.08   0.14    -0.09   0.14   0.23
  13   1     0.12   0.05   0.35    -0.03   0.02  -0.04    -0.07   0.01  -0.13
  14   1     0.13   0.26  -0.11    -0.01  -0.03  -0.04    -0.02  -0.04  -0.03
  15   1     0.14  -0.24  -0.02     0.03  -0.11   0.00    -0.05  -0.10  -0.05
  16   1     0.13   0.17   0.21     0.00   0.17   0.14    -0.03  -0.05  -0.08
  17   1     0.10  -0.00  -0.32    -0.01   0.04  -0.29    -0.07   0.01   0.02
                     13                     14                     15
                        a                      a                      a 
 Frequencies --   876.7205               946.3787               966.7244
 Red. masses --     6.4433                 6.2834                 6.5673
 Frc consts  --     0.0000                 0.0000                 0.0000
 IR Inten    --    21.7702                17.0050                22.4029
 Raman Activ --     0.0000                 0.0000                 0.0000
 Depolar     --     0.0000                 0.0000                 0.0000
 Atom AN      X      Y      Z        X      Y      Z        X      Y      Z
   1   7     0.33  -0.03  -0.11    -0.10   0.28  -0.03     0.24  -0.08  -0.18
   2   6    -0.09   0.25  -0.06     0.14  -0.25  -0.00    -0.25   0.07   0.16
   3   6    -0.35  -0.09   0.09     0.03  -0.21  -0.15    -0.16  -0.12  -0.04
   4   6    -0.10  -0.07   0.03    -0.23   0.31   0.04     0.23   0.27  -0.22
   5   6     0.25   0.23   0.05     0.21  -0.13   0.08    -0.05  -0.16   0.20
   6  53    -0.02  -0.02   0.01    -0.01   0.02   0.02     0.01   0.02  -0.01
   7   1     0.06  -0.14  -0.05    -0.19  -0.01   0.09    -0.07   0.00   0.06
   8   1    -0.19   0.03   0.05    -0.26   0.06   0.15     0.03  -0.06   0.04
   9   1     0.20  -0.22  -0.12     0.20  -0.22  -0.07     0.21  -0.16  -0.04
  10   1    -0.09   0.08  -0.01    -0.11  -0.05   0.08    -0.08   0.03   0.02
  11   1     0.06   0.02  -0.09    -0.04  -0.07   0.05    -0.12  -0.02   0.07
  12   1     0.04  -0.10  -0.10    -0.15  -0.14   0.05    -0.09  -0.15  -0.01
  13   1    -0.06  -0.10   0.22     0.11   0.15  -0.18    -0.10  -0.14   0.06
  14   1     0.02   0.05  -0.02    -0.00   0.24  -0.18    -0.02  -0.15   0.19
  15   1    -0.07  -0.13  -0.09     0.10  -0.11  -0.02    -0.05   0.36   0.06
  16   1     0.04  -0.25  -0.19     0.11  -0.00   0.07    -0.15   0.23   0.17
  17   1    -0.07  -0.01   0.34     0.17  -0.08   0.01     0.17  -0.04  -0.14
                     16                     17                     18
                        a                      a                      a 
 Frequencies --  1019.0078              1046.0732              1091.8621
 Red. masses --     5.8107                 7.7777                 5.2334
 Frc consts  --     0.0000                 0.0000                 0.0000
 IR Inten    --     9.5958                13.0766                 6.9391
 Raman Activ --     0.0000                 0.0000                 0.0000
 Depolar     --     0.0000                 0.0000                 0.0000
 Atom AN      X      Y      Z        X      Y      Z        X      Y      Z
   1   7    -0.14  -0.14  -0.05     0.23  -0.25  -0.01    -0.04   0.02   0.13
   2   6     0.23   0.27   0.11    -0.43   0.24   0.16     0.07   0.07  -0.35
   3   6    -0.06  -0.01  -0.05     0.30  -0.10  -0.11     0.03  -0.17   0.31
   4   6    -0.25  -0.02  -0.22    -0.19   0.15   0.12    -0.14   0.11  -0.15
   5   6     0.27  -0.05   0.23     0.04  -0.05  -0.10     0.11  -0.12   0.14
   6  53    -0.01   0.00   0.01    -0.01   0.00   0.02     0.01   0.02   0.00
   7   1    -0.04   0.14   0.05     0.15  -0.08  -0.08     0.10  -0.05  -0.07
   8   1     0.28  -0.09  -0.08     0.10  -0.04  -0.06    -0.05   0.05  -0.03
   9   1    -0.09   0.16   0.10    -0.04   0.03  -0.01    -0.12   0.08  -0.00
  10   1     0.14   0.22  -0.35    -0.12   0.04   0.10     0.08  -0.06   0.04
  11   1    -0.13  -0.21   0.08    -0.11   0.07   0.04     0.18   0.18  -0.16
  12   1    -0.16  -0.23   0.02     0.01   0.23   0.10     0.01   0.19   0.14
  13   1    -0.03  -0.03   0.01    -0.06  -0.06  -0.24    -0.16  -0.16  -0.04
  14   1    -0.13  -0.04  -0.14    -0.15   0.09  -0.28    -0.14  -0.07  -0.09
  15   1    -0.03   0.02  -0.02     0.14  -0.06   0.07    -0.21  -0.05  -0.19
  16   1     0.16  -0.06   0.07     0.17  -0.08   0.01    -0.24   0.17   0.05
  17   1     0.06  -0.01   0.08     0.08  -0.05  -0.02     0.35  -0.18   0.06
                     19                     20                     21
                        a                      a                      a 
 Frequencies --  1129.5302              1146.7598              1184.1513
 Red. masses --     8.6047                 2.7331                 4.1865
 Frc consts  --     0.0000                 0.0000                 0.0000
 IR Inten    --     4.0109                 0.8711                 5.2023
 Raman Activ --     0.0000                 0.0000                 0.0000
 Depolar     --     0.0000                 0.0000                 0.0000
 Atom AN      X      Y      Z        X      Y      Z        X      Y      Z
   1   7     0.10   0.06   0.00    -0.03   0.12   0.01    -0.06   0.06  -0.14
   2   6    -0.22  -0.20   0.10     0.09  -0.16  -0.13     0.10  -0.15   0.29
   3   6     0.16   0.43   0.05    -0.09   0.04   0.19    -0.08   0.22  -0.17
   4   6    -0.18  -0.23  -0.41     0.06   0.14  -0.11    -0.02  -0.13   0.14
   5   6     0.19  -0.08   0.26    -0.03  -0.05  -0.04    -0.01   0.07  -0.12
   6  53    -0.00  -0.00  -0.00    -0.01  -0.01   0.01     0.00   0.02   0.00
   7   1     0.00  -0.07  -0.01    -0.03  -0.03  -0.00    -0.14   0.06   0.07
   8   1    -0.09   0.02   0.05    -0.08   0.03   0.04     0.05  -0.06   0.06
   9   1     0.06  -0.07  -0.04     0.02  -0.02  -0.02     0.09  -0.03   0.02
  10   1    -0.01  -0.11   0.12     0.07  -0.07  -0.00    -0.05   0.03  -0.02
  11   1    -0.07   0.06   0.07     0.11   0.05  -0.07     0.06  -0.19   0.00
  12   1     0.10   0.12  -0.03     0.05   0.08   0.02     0.24   0.23  -0.18
  13   1     0.17   0.25   0.01    -0.22  -0.28   0.14    -0.10  -0.17   0.17
  14   1    -0.13  -0.18  -0.05    -0.28  -0.18  -0.24    -0.23  -0.13  -0.25
  15   1    -0.19   0.00  -0.15     0.21   0.27   0.23     0.06  -0.04   0.07
  16   1     0.07  -0.02   0.08     0.46  -0.20   0.09    -0.22   0.08  -0.10
  17   1    -0.09   0.06   0.03    -0.18   0.10  -0.09     0.40  -0.21   0.10
                     22                     23                     24
                        a                      a                      a 
 Frequencies --  1234.7479              1265.8699              1275.5937
 Red. masses --     2.9738                 3.0468                 2.3550
 Frc consts  --     0.0000                 0.0000                 0.0000
 IR Inten    --    20.6261                33.2814                22.0939
 Raman Activ --     0.0000                 0.0000                 0.0000
 Depolar     --     0.0000                 0.0000                 0.0000
 Atom AN      X      Y      Z        X      Y      Z        X      Y      Z
   1   7     0.14   0.07   0.19    -0.04  -0.06  -0.06    -0.01  -0.06  -0.04
   2   6    -0.10  -0.05  -0.19    -0.03   0.08  -0.03    -0.03   0.07  -0.06
   3   6    -0.07   0.07  -0.03    -0.03   0.01   0.13    -0.03   0.05   0.12
   4   6     0.06  -0.13   0.09     0.12  -0.15  -0.11     0.05  -0.05   0.12
   5   6    -0.05   0.10  -0.09    -0.26   0.16  -0.04     0.24  -0.07  -0.08
   6  53     0.00   0.01   0.00    -0.01   0.01   0.01     0.01  -0.00  -0.01
   7   1     0.11  -0.13  -0.06    -0.01   0.04   0.00    -0.01   0.03   0.01
   8   1    -0.15   0.10  -0.00     0.05  -0.04  -0.01     0.03  -0.02  -0.01
   9   1    -0.07  -0.01  -0.07    -0.00   0.03   0.04    -0.02   0.04   0.02
  10   1     0.41  -0.10  -0.19    -0.23   0.04   0.14    -0.20   0.02   0.14
  11   1    -0.41   0.16   0.28     0.23   0.02  -0.18     0.18   0.02  -0.15
  12   1    -0.14  -0.24   0.00    -0.13  -0.18   0.07    -0.20  -0.27   0.09
  13   1     0.06   0.09   0.01     0.22   0.32  -0.04     0.14   0.21  -0.02
  14   1    -0.11  -0.11  -0.12    -0.01  -0.12   0.04    -0.28  -0.17  -0.29
  15   1     0.15   0.05   0.15     0.04   0.07   0.05     0.21   0.09   0.21
  16   1    -0.08  -0.00  -0.07     0.34  -0.19   0.03    -0.41   0.19  -0.11
  17   1     0.26  -0.13   0.04     0.47  -0.22   0.06    -0.25   0.11   0.01
                     25                     26                     27
                        a                      a                      a 
 Frequencies --  1325.5457              1353.5604              1359.6463
 Red. masses --     3.5462                 4.2698                 4.6372
 Frc consts  --     0.0000                 0.0000                 0.0000
 IR Inten    --    44.8414                 4.5033                10.2240
 Raman Activ --     0.0000                 0.0000                 0.0000
 Depolar     --     0.0000                 0.0000                 0.0000
 Atom AN      X      Y      Z        X      Y      Z        X      Y      Z
   1   7     0.12  -0.18  -0.02     0.04  -0.08   0.00    -0.07   0.08   0.01
   2   6     0.25   0.01  -0.22     0.09   0.00  -0.07    -0.16  -0.10   0.04
   3   6     0.06   0.22  -0.04     0.01  -0.05   0.11     0.34   0.35  -0.07
   4   6     0.05   0.02   0.07    -0.35  -0.19  -0.30    -0.15  -0.12   0.00
   5   6    -0.04   0.00   0.01     0.10   0.07   0.00    -0.01   0.05  -0.01
   6  53    -0.00  -0.00   0.00     0.00   0.00  -0.00     0.00   0.00   0.00
   7   1    -0.07   0.12   0.12    -0.02   0.12   0.06     0.05  -0.05  -0.07
   8   1    -0.18   0.04  -0.02    -0.10   0.05  -0.05     0.10  -0.01  -0.01
   9   1    -0.15   0.18   0.04    -0.04   0.04   0.01     0.10  -0.12  -0.03
  10   1    -0.46   0.01   0.33    -0.12   0.00   0.09     0.05  -0.06   0.02
  11   1    -0.35   0.01   0.25    -0.08   0.02   0.06     0.21   0.01  -0.16
  12   1    -0.10  -0.14   0.02     0.10   0.19   0.02    -0.31  -0.38   0.13
  13   1    -0.15  -0.20   0.09    -0.02  -0.03   0.01    -0.28  -0.38   0.05
  14   1    -0.05  -0.04  -0.02     0.26   0.19   0.22     0.15   0.12   0.12
  15   1    -0.12  -0.09  -0.12     0.42   0.24   0.40     0.04  -0.05   0.03
  16   1     0.05  -0.04  -0.00    -0.12   0.07  -0.04    -0.03   0.01  -0.02
  17   1     0.03   0.00  -0.04     0.07  -0.04   0.11     0.07  -0.04   0.05
                     28                     29                     30
                        a                      a                      a 
 Frequencies --  1367.0511              1392.3016              1403.9757
 Red. masses --     2.8761                 1.6028                 1.7070
 Frc consts  --     0.0000                 0.0000                 0.0000
 IR Inten    --   282.4076               115.8504               100.5148
 Raman Activ --     0.0000                 0.0000                 0.0000
 Depolar     --     0.0000                 0.0000                 0.0000
 Atom AN      X      Y      Z        X      Y      Z        X      Y      Z
   1   7    -0.29   0.05   0.14     0.06   0.12   0.15    -0.05   0.16  -0.11
   2   6     0.14   0.02  -0.11     0.07   0.03  -0.01     0.07   0.04  -0.09
   3   6    -0.06   0.01   0.03    -0.02  -0.01   0.01    -0.02  -0.01   0.02
   4   6     0.02  -0.01  -0.01     0.00  -0.02  -0.01    -0.04  -0.01  -0.04
   5   6     0.00  -0.00   0.00    -0.00   0.00  -0.00     0.01   0.01   0.01
   6  53     0.00   0.00   0.00     0.00   0.00   0.00     0.00   0.00  -0.00
   7   1     0.42   0.05  -0.30    -0.32  -0.33   0.15    -0.02  -0.56  -0.20
   8   1     0.34   0.01  -0.21     0.39   0.04  -0.25     0.22  -0.37   0.54
   9   1     0.37  -0.38   0.04    -0.35  -0.26  -0.54    -0.01   0.21   0.15
  10   1    -0.19  -0.00   0.16    -0.10   0.02   0.07    -0.09   0.00   0.09
  11   1    -0.21  -0.02   0.15    -0.02  -0.03   0.02    -0.11  -0.00   0.07
  12   1     0.06   0.04  -0.04     0.00   0.03   0.01     0.00   0.02   0.01
  13   1    -0.00   0.02  -0.00     0.01   0.01   0.02    -0.00  -0.00   0.01
  14   1    -0.03  -0.02  -0.04     0.01   0.02  -0.01     0.04   0.02   0.05
  15   1    -0.01   0.04   0.02    -0.01   0.04   0.02     0.06   0.01   0.04
  16   1    -0.01  -0.00  -0.01    -0.00   0.00   0.00    -0.03   0.01  -0.01
  17   1     0.01   0.00  -0.01     0.00  -0.00   0.00     0.00  -0.00   0.01
                     31                     32                     33
                        a                      a                      a 
 Frequencies --  1453.9433              1485.6754              1489.8533
 Red. masses --     1.9453                 1.8480                 1.8892
 Frc consts  --     0.0000                 0.0000                 0.0000
 IR Inten    --     8.6044                17.2250                13.4763
 Raman Activ --     0.0000                 0.0000                 0.0000
 Depolar     --     0.0000                 0.0000                 0.0000
 Atom AN      X      Y      Z        X      Y      Z        X      Y      Z
   1   7    -0.00   0.01  -0.01     0.01  -0.01  -0.00     0.01  -0.00  -0.00
   2   6    -0.02   0.09  -0.03     0.05  -0.23   0.10    -0.01   0.06  -0.00
   3   6     0.00  -0.01   0.02     0.00   0.02   0.06    -0.03   0.08   0.26
   4   6    -0.03  -0.01  -0.00     0.00  -0.04   0.02    -0.02   0.04  -0.01
   5   6     0.05   0.05   0.26     0.01   0.01   0.08    -0.01   0.00  -0.03
   6  53    -0.01   0.01   0.01    -0.00   0.00   0.00     0.00  -0.00   0.00
   7   1    -0.01   0.01   0.01     0.01  -0.03  -0.01    -0.03  -0.01   0.02
   8   1    -0.01   0.01   0.00     0.03  -0.02   0.01    -0.00   0.00  -0.00
   9   1    -0.00   0.01   0.00     0.00  -0.01  -0.00    -0.02   0.01  -0.02
  10   1     0.13  -0.12   0.16    -0.33   0.30  -0.42     0.06  -0.06   0.10
  11   1    -0.00  -0.22  -0.07     0.11   0.59   0.12    -0.02  -0.13  -0.03
  12   1     0.02   0.01  -0.00     0.10  -0.09  -0.10     0.39  -0.35  -0.39
  13   1    -0.01   0.00  -0.02    -0.08  -0.00  -0.15    -0.29   0.04  -0.58
  14   1     0.02   0.05  -0.04     0.04   0.09  -0.08    -0.03  -0.07   0.08
  15   1    -0.01   0.05   0.03    -0.08   0.10   0.02     0.08  -0.09  -0.00
  16   1    -0.20  -0.45  -0.38    -0.09  -0.14  -0.13     0.02   0.04   0.03
  17   1     0.18   0.17  -0.59     0.06   0.05  -0.19    -0.01  -0.01   0.05
                     34                     35                     36
                        a                      a                      a 
 Frequencies --  1501.2300              2905.5987              2933.5400
 Red. masses --     1.9118                 1.9410                 1.6276
 Frc consts  --     0.0000                 0.0000                 0.0000
 IR Inten    --     8.6758                23.3367                 6.5774
 Raman Activ --     0.0000                 0.0000                 0.0000
 Depolar     --     0.0000                 0.0000                 0.0000
 Atom AN      X      Y      Z        X      Y      Z        X      Y      Z
   1   7     0.01  -0.00  -0.01     0.00   0.00  -0.00     0.00  -0.00   0.00
   2   6    -0.01   0.04  -0.02     0.00   0.00   0.00     0.01   0.00   0.01
   3   6    -0.00   0.01   0.04    -0.01   0.01   0.00    -0.13   0.07  -0.06
   4   6     0.08  -0.25   0.08     0.21  -0.02  -0.20     0.03  -0.16   0.06
   5   6    -0.01  -0.02  -0.03     0.00  -0.01   0.00     0.02   0.03  -0.00
   6  53     0.00  -0.00  -0.00    -0.00   0.00   0.00     0.00  -0.00   0.00
   7   1    -0.01   0.00   0.01     0.00   0.00  -0.00     0.00   0.00  -0.00
   8   1    -0.05  -0.01   0.04    -0.00   0.00   0.00    -0.00   0.00   0.00
   9   1    -0.00   0.04   0.03    -0.00   0.00   0.00    -0.00  -0.00   0.00
  10   1     0.06  -0.06   0.08    -0.00  -0.00  -0.00    -0.01  -0.02  -0.01
  11   1    -0.02  -0.11  -0.02    -0.00   0.00  -0.00    -0.03   0.01  -0.04
  12   1     0.05  -0.06  -0.04    -0.01   0.00  -0.00     0.24  -0.10   0.33
  13   1    -0.03   0.01  -0.07     0.05  -0.05  -0.03     0.22  -0.19  -0.13
  14   1     0.19   0.42  -0.43    -0.46   0.42   0.21    -0.41   0.34   0.21
  15   1    -0.44   0.50   0.07    -0.29  -0.34   0.52     0.27   0.25  -0.43
  16   1     0.04   0.08   0.07     0.02   0.03  -0.04    -0.02  -0.03   0.05
  17   1    -0.02  -0.03   0.09     0.00   0.00   0.00    -0.03  -0.08  -0.03
                     37                     38                     39
                        a                      a                      a 
 Frequencies --  2940.9274              2955.9440              2962.6995
 Red. masses --     1.8376                 1.8807                 1.9225
 Frc consts  --     0.0000                 0.0000                 0.0000
 IR Inten    --    26.9193                 1.5755                16.4228
 Raman Activ --     0.0000                 0.0000                 0.0000
 Depolar     --     0.0000                 0.0000                 0.0000
 Atom AN      X      Y      Z        X      Y      Z        X      Y      Z
   1   7     0.00  -0.00   0.00    -0.00   0.00   0.00    -0.00  -0.00  -0.00
   2   6     0.01  -0.00   0.02     0.13   0.16   0.17    -0.00   0.01  -0.00
   3   6    -0.19   0.12  -0.07     0.03  -0.03  -0.06     0.01  -0.00   0.01
   4   6    -0.04   0.11  -0.03     0.00   0.00  -0.01     0.00  -0.04   0.02
   5   6    -0.02  -0.03   0.00     0.00   0.00  -0.01    -0.13  -0.25  -0.01
   6  53    -0.00  -0.00  -0.00    -0.00   0.00   0.00     0.00  -0.00  -0.00
   7   1     0.00   0.00  -0.00     0.01  -0.00   0.01    -0.00   0.00  -0.00
   8   1     0.00   0.00  -0.00     0.00   0.01   0.01     0.00   0.00   0.00
   9   1     0.00   0.00  -0.00    -0.00   0.00  -0.00    -0.00  -0.00   0.00
  10   1     0.00   0.00   0.00    -0.25  -0.70  -0.32    -0.01  -0.03  -0.01
  11   1    -0.05   0.02  -0.07    -0.22   0.12  -0.31     0.02  -0.01   0.02
  12   1     0.34  -0.14   0.47     0.11  -0.05   0.13    -0.04   0.01  -0.05
  13   1     0.35  -0.31  -0.20    -0.21   0.17   0.10    -0.00   0.00   0.00
  14   1     0.29  -0.24  -0.15     0.00  -0.00  -0.00    -0.07   0.06   0.04
  15   1    -0.16  -0.14   0.26    -0.01  -0.01   0.02     0.06   0.06  -0.10
  16   1     0.02   0.03  -0.05    -0.01  -0.01   0.02     0.11   0.14  -0.26
  17   1     0.04   0.10   0.04     0.00   0.01   0.00     0.33   0.76   0.31
                     40                     41                     42
                        a                      a                      a 
 Frequencies --  2967.7583              2984.9009              2990.8859
 Red. masses --     1.5892                 1.5846                 1.5806
 Frc consts  --     0.0000                 0.0000                 0.0000
 IR Inten    --    20.9371                13.9794                20.3446
 Raman Activ --     0.0000                 0.0000                 0.0000
 Depolar     --     0.0000                 0.0000                 0.0000
 Atom AN      X      Y      Z        X      Y      Z        X      Y      Z
   1   7     0.00  -0.00  -0.00     0.00   0.00  -0.00    -0.00  -0.00   0.00
   2   6     0.04   0.06   0.06     0.02  -0.05   0.03    -0.09   0.15  -0.13
   3   6    -0.04   0.07   0.19     0.00  -0.00  -0.00    -0.02   0.01  -0.02
   4   6    -0.01   0.00   0.01     0.01   0.00  -0.02     0.00   0.00  -0.01
   5   6     0.01   0.02  -0.01     0.05   0.04  -0.21     0.02   0.02  -0.05
   6  53     0.00  -0.00  -0.00     0.00  -0.00  -0.00     0.00  -0.00  -0.00
   7   1    -0.00  -0.00   0.00     0.00  -0.00   0.00    -0.01   0.01  -0.02
   8   1     0.00   0.01   0.00    -0.00  -0.00  -0.00     0.00   0.01   0.01
   9   1    -0.00  -0.00   0.00    -0.00  -0.00   0.00    -0.00   0.00  -0.00
  10   1    -0.09  -0.26  -0.12     0.05   0.12   0.06    -0.14  -0.34  -0.19
  11   1    -0.06   0.03  -0.09    -0.12   0.04  -0.16     0.48  -0.18   0.66
  12   1    -0.36   0.16  -0.44     0.01  -0.00   0.01     0.05  -0.02   0.07
  13   1     0.50  -0.42  -0.23    -0.02   0.02   0.01     0.02  -0.01  -0.01
  14   1     0.02  -0.02  -0.01    -0.01   0.01   0.00     0.01  -0.00  -0.00
  15   1     0.02   0.02  -0.03    -0.02  -0.02   0.04    -0.01  -0.01   0.02
  16   1    -0.02  -0.03   0.05    -0.33  -0.47   0.66    -0.09  -0.13   0.18
  17   1    -0.01  -0.02  -0.01     0.14   0.31   0.09     0.02   0.05   0.01
                     43                     44                     45
                        a                      a                      a 
 Frequencies --  3275.0978              3278.4456              3303.1343
 Red. masses --     2.0455                 2.0557                 1.2832
 Frc consts  --     0.0000                 0.0000                 0.0000
 IR Inten    --   189.3038               165.5110                69.3114
 Raman Activ --     0.0000                 0.0000                 0.0000
 Depolar     --     0.0000                 0.0000                 0.0000
 Atom AN      X      Y      Z        X      Y      Z        X      Y      Z
   1   7    -0.12  -0.25   0.07     0.11   0.02   0.26    -0.12   0.06   0.05
   2   6    -0.00  -0.01   0.00     0.00   0.00   0.01    -0.01   0.01   0.00
   3   6     0.00  -0.00   0.00     0.00   0.00  -0.00     0.00   0.00   0.00
   4   6     0.00  -0.00  -0.00     0.00  -0.00   0.00     0.00  -0.00   0.00
   5   6     0.00   0.00  -0.00    -0.00  -0.00  -0.00    -0.00  -0.00  -0.00
   6  53    -0.00  -0.00   0.00     0.00   0.00   0.00    -0.00   0.00   0.00
   7   1    -0.11   0.02  -0.13    -0.44   0.20  -0.60     0.32  -0.14   0.45
   8   1     0.17   0.51   0.31    -0.14  -0.44  -0.23    -0.16  -0.45  -0.26
   9   1     0.38   0.39  -0.45     0.15   0.15  -0.14     0.32   0.35  -0.38
  10   1     0.00   0.01   0.01    -0.00  -0.01  -0.00    -0.00  -0.01  -0.01
  11   1    -0.00   0.00  -0.01    -0.01   0.00  -0.01     0.01  -0.00   0.01
  12   1    -0.00   0.00  -0.00    -0.00   0.00  -0.00    -0.00   0.00  -0.00
  13   1    -0.00   0.00  -0.00    -0.00   0.00   0.00     0.00  -0.00  -0.00
  14   1    -0.00   0.00   0.00     0.00   0.00  -0.00    -0.00   0.00   0.00
  15   1     0.00   0.00  -0.00    -0.00   0.00   0.00     0.00   0.00  -0.00
  16   1    -0.00   0.00   0.00    -0.00  -0.00   0.00    -0.00  -0.00  -0.00
  17   1    -0.00  -0.00  -0.00     0.00   0.00   0.00     0.00   0.00   0.00
