21
 energy: -29.948496694086 gnorm: 0.000221690820 xtb: 6.5.1 (fef0646)
N            3.01691525209633        0.40632746283432       -1.03496782931121
C            2.48061669756640        1.39269873878270       -0.05011241209102
C            2.96183699571016        0.98390090610123        1.34305432787414
C            4.46884123705531        0.92836963785373        1.34770207862060
C            5.21550903163427        2.07041316621276        1.61867867816568
C            6.59540115265160        2.04452756136417        1.55303309779661
C            7.22864945995954        0.86140325734948        1.20278130885472
F            8.55980322735391        0.83192882114623        1.12482782560929
C            6.51380988052519       -0.29311962263393        0.93325924959160
C            5.13011352709725       -0.25104891250445        1.00161196674065
H            3.02577803335015        0.77067244688868       -1.99299513923002
H            2.47005096665611       -0.46230926020174       -1.01561259726106
H            3.99109142885131        0.18667591120435       -0.71290460739539
H            1.39296530084838        1.41955907385127       -0.10882998692139
H            2.87545544565160        2.37791371062797       -0.30150682466748
H            2.54015331324026        0.01600500690695        1.61745023887038
H            2.60789307540300        1.71825540187562        2.06480011748207
H            4.71357539423776        2.98350190849727        1.89926649552872
H            7.18481919103680        2.91914412199148        1.77492422063523
H            7.03709991297009       -1.20335797768597        0.68939958912053
H            4.57701147610519       -1.17211136046337        0.86763020198855
