      -----------------------------------------------------------      
     |                   =====================                   |     
     |                           x T B                           |     
     |                   =====================                   |     
     |                         S. Grimme                         |     
     |          Mulliken Center for Theoretical Chemistry        |     
     |                    University of Bonn                     |     
      -----------------------------------------------------------      

   * xtb version 6.5.1 (fef0646) compiled by 'conda@b96dff2e9fd6' on 2023-01-04

   xtb is free software: you can redistribute it and/or modify it under
   the terms of the GNU Lesser General Public License as published by
   the Free Software Foundation, either version 3 of the License, or
   (at your option) any later version.
   
   xtb is distributed in the hope that it will be useful,
   but WITHOUT ANY WARRANTY; without even the implied warranty of
   MERCHANTABILITY or FITNESS FOR A PARTICULAR PURPOSE.  See the
   GNU Lesser General Public License for more details.
   
   Cite this work as:
   * C. Bannwarth, E. Caldeweyher, S. Ehlert, A. Hansen, P. Pracht,
     J. Seibert, S. Spicher, S. Grimme, WIREs Comput. Mol. Sci., 2020, 11,
     e01493. DOI: 10.1002/wcms.1493
   
   for GFN2-xTB:
   * C. Bannwarth, S. Ehlert and S. Grimme., J. Chem. Theory Comput., 2019,
     15, 1652-1671. DOI: 10.1021/acs.jctc.8b01176
   for GFN1-xTB:
   * S. Grimme, C. Bannwarth, P. Shushkov, J. Chem. Theory Comput., 2017,
     13, 1989-2009. DOI: 10.1021/acs.jctc.7b00118
   for GFN0-xTB:
   * P. Pracht, E. Caldeweyher, S. Ehlert, S. Grimme, ChemRxiv, 2019, preprint.
     DOI: 10.26434/chemrxiv.8326202.v1
   for GFN-FF:
   * S. Spicher and S. Grimme, Angew. Chem. Int. Ed., 2020, 59, 15665-15673.
     DOI: 10.1002/anie.202004239
   
   for ALPB and GBSA implicit solvation:
   * S. Ehlert, M. Stahn, S. Spicher, S. Grimme, J. Chem. Theory Comput.,
     2021, 17, 4250-4261. DOI: 10.1021/acs.jctc.1c00471
   
   for DFT-D4:
   * E. Caldeweyher, C. Bannwarth and S. Grimme, J. Chem. Phys., 2017,
     147, 034112. DOI: 10.1063/1.4993215
   * E. Caldeweyher, S. Ehlert, A. Hansen, H. Neugebauer, S. Spicher,
     C. Bannwarth and S. Grimme, J. Chem. Phys., 2019, 150, 154122.
     DOI: 10.1063/1.5090222
   * E. Caldeweyher, J.-M. Mewes, S. Ehlert and S. Grimme, Phys. Chem. Chem. Phys.
     2020, 22, 8499-8512. DOI: 10.1039/D0CP00502A
   
   for sTDA-xTB:
   * S. Grimme and C. Bannwarth, J. Chem. Phys., 2016, 145, 054103.
     DOI: 10.1063/1.4959605
   
   in the mass-spec context:
   * V. Asgeirsson, C. Bauer and S. Grimme, Chem. Sci., 2017, 8, 4879.
     DOI: 10.1039/c7sc00601b
   * J. Koopman and S. Grimme, ACS Omega 2019, 4, 12, 15120-15133.
     DOI: 10.1021/acsomega.9b02011
   
   for metadynamics refer to:
   * S. Grimme, J. Chem. Theory Comput., 2019, 155, 2847-2862
     DOI: 10.1021/acs.jctc.9b00143
   
   for SPH calculations refer to:
   * S. Spicher and S. Grimme, J. Chem. Theory Comput., 2021, 17, 1701-1714
     DOI: 10.1021/acs.jctc.0c01306
   
   with help from (in alphabetical order)
   P. Atkinson, C. Bannwarth, F. Bohle, G. Brandenburg, E. Caldeweyher
   M. Checinski, S. Dohm, S. Ehlert, S. Ehrlich, I. Gerasimov, C. Hölzer
   A. Katbashev, J. Koopman, C. Lavigne, S. Lehtola, F. März, M. Müller,
   F. Musil, H. Neugebauer, J. Pisarek, C. Plett, P. Pracht, F. Pultar,
   J. Seibert, P. Shushkov, S. Spicher, M. Stahn, M. Steiner, T. Strunk,
   J. Stückrath, T. Rose, and J. Unsleber
   
 * started run on 2023/01/24 at 16:46:01.994     

           -------------------------------------------------
          |                Calculation Setup                |
           -------------------------------------------------

          program call               : xtb init.xyz --opt -c 1 -u 0 -P 16 --alpb water
          hostname                   : gpg-woodward
          coordinate file            : init.xyz
          omp threads                :                    16

   ID    Z sym.   atoms
    1    7 N      1
    2    6 C      2-5
    3    8 O      6
    4    1 H      7-18

           -------------------------------------------------
          |                 G F N 2 - x T B                 |
           -------------------------------------------------

        Reference                      10.1021/acs.jctc.8b01176
      * Hamiltonian:
        H0-scaling (s, p, d)           1.850000    2.230000    2.230000
        zeta-weighting                 0.500000
      * Dispersion:
        s8                             2.700000
        a1                             0.520000
        a2                             5.000000
        s9                             5.000000
      * Repulsion:
        kExp                           1.500000    1.000000
        rExp                           1.000000
      * Coulomb:
        alpha                          2.000000
        third order                    shell-resolved
        anisotropic                    true
        a3                             3.000000
        a5                             4.000000
        cn-shift                       1.200000
        cn-exp                         4.000000
        max-rad                        5.000000

      * Solvation model:               ALPB
        Solvent                        water
        Parameter file                 internal GFN2-xTB/ALPB
        Dielectric constant                8.0200E+01
        Reference state                gsolv [1 M gas/solution]
        Free energy shift                  1.0808E-03 Eh       6.7819E-01 kcal/mol
        Temperature                        2.9815E+02 K
        Density                            1.0000E+00 kg/L
        Solvent mass                       1.8000E+01 g/mol
        Interaction kernel             P16
        Born radius scaling (c1)           1.4744E+00
        Born radii integrator          GBOBC
        Born offset                        0.0000E+00 a0       0.0000E+00 AA
        H-bond correction              true
        Ion screening                  false
        Surface tension                    1.0000E-05 Eh       1.5569E+01 dyn/cm
        Grid points                               230 per atom

          ...................................................
          :                      SETUP                      :
          :.................................................:
          :  # basis functions                  36          :
          :  # atomic orbitals                  36          :
          :  # shells                           24          :
          :  # electrons                        38          :
          :  max. iterations                   250          :
          :  Hamiltonian                  GFN2-xTB          :
          :  restarted?                      false          :
          :  GBSA solvation                   true          :
          :  PC potential                    false          :
          :  electronic temp.          300.0000000     K    :
          :  accuracy                    1.0000000          :
          :  -> integral cutoff          0.2500000E+02      :
          :  -> integral neglect         0.1000000E-07      :
          :  -> SCF convergence          0.1000000E-05 Eh   :
          :  -> wf. convergence          0.1000000E-03 e    :
          :  Broyden damping             0.4000000          :
          ...................................................

 iter      E             dE          RMSdq      gap      omega  full diag
   1    -21.5196538 -0.215197E+02  0.394E+00   11.77       0.0  T
   2    -21.5870274 -0.673736E-01  0.207E+00   10.30       1.0  T
   3    -21.5907518 -0.372449E-02  0.967E-01    9.63       1.0  T
   4    -21.5910565 -0.304621E-03  0.170E-01    9.59       1.0  T
   5    -21.5910966 -0.401054E-04  0.797E-02    9.64       1.0  T
   6    -21.5911026 -0.607016E-05  0.240E-02    9.68       1.0  T
   7    -21.5911034 -0.767973E-06  0.972E-03    9.68       2.4  T
   8    -21.5911036 -0.182831E-06  0.290E-03    9.68       8.1  T
   9    -21.5911036 -0.962493E-08  0.131E-03    9.68      18.0  T
  10    -21.5911036 -0.222467E-08  0.186E-04    9.68     127.0  T
  11    -21.5911036 -0.760743E-10  0.854E-05    9.68     276.1  T

   *** convergence criteria satisfied after 11 iterations ***

         #    Occupation            Energy/Eh            Energy/eV
      -------------------------------------------------------------
         1        2.0000           -0.6925994             -18.8466
       ...           ...                  ...                  ...
        13        2.0000           -0.5047485             -13.7349
        14        2.0000           -0.4798827             -13.0583
        15        2.0000           -0.4659245             -12.6785
        16        2.0000           -0.4635897             -12.6149
        17        2.0000           -0.4371179             -11.8946
        18        2.0000           -0.4316459             -11.7457
        19        2.0000           -0.4110358             -11.1849 (HOMO)
        20                         -0.0553628              -1.5065 (LUMO)
        21                          0.0415789               1.1314
        22                          0.0589283               1.6035
        23                          0.0796442               2.1672
        24                          0.0913117               2.4847
       ...                                ...                  ...
        36                          0.2983190               8.1177
      -------------------------------------------------------------
                  HL-Gap            0.3556730 Eh            9.6784 eV
             Fermi-level           -0.2331993 Eh           -6.3457 eV

 SCC (total)                   0 d,  0 h,  0 min,  0.016 sec
 SCC setup                      ...        0 min,  0.000 sec (  2.382%)
 Dispersion                     ...        0 min,  0.000 sec (  2.536%)
 classical contributions        ...        0 min,  0.000 sec (  0.613%)
 integral evaluation            ...        0 min,  0.001 sec (  3.625%)
 iterations                     ...        0 min,  0.012 sec ( 75.980%)
 molecular gradient             ...        0 min,  0.002 sec ( 12.226%)
 printout                       ...        0 min,  0.000 sec (  0.871%)

         :::::::::::::::::::::::::::::::::::::::::::::::::::::
         ::                     SUMMARY                     ::
         :::::::::::::::::::::::::::::::::::::::::::::::::::::
         :: total energy             -21.341132392229 Eh    ::
         :: total w/o Gsasa/hb       -21.326234489325 Eh    ::
         :: gradient norm              0.025777611526 Eh/a0 ::
         :: HOMO-LUMO gap              9.678355372818 eV    ::
         ::.................................................::
         :: SCC energy               -21.591103608061 Eh    ::
         :: -> isotropic ES            0.153970340592 Eh    ::
         :: -> anisotropic ES         -0.012714515841 Eh    ::
         :: -> anisotropic XC          0.010748647722 Eh    ::
         :: -> dispersion             -0.008192990039 Eh    ::
         :: -> Gsolv                  -0.124161425867 Eh    ::
         ::    -> Gelec               -0.109263522963 Eh    ::
         ::    -> Gsasa                0.000367888328 Eh    ::
         ::    -> Ghb                 -0.016346550931 Eh    ::
         ::    -> Gshift               0.001080759698 Eh    ::
         :: repulsion energy           0.249958500734 Eh    ::
         :: add. restraining           0.000000000000 Eh    ::
         :: total charge               1.000000000000 e     ::
         :::::::::::::::::::::::::::::::::::::::::::::::::::::

      ----------------------------------------------------------- 
     |                   =====================                   |
     |                        A N C O P T                        |
     |                   =====================                   |
     |               Approximate Normal Coordinate               |
     |                Rational Function Optimizer                |
      ----------------------------------------------------------- 

          ...................................................
          :                      SETUP                      :
          :.................................................:
          :   optimization level            normal          :
          :   max. optcycles                   200          :
          :   ANC micro-cycles                  20          :
          :   degrees of freedom                48          :
          :.................................................:
          :   RF solver                   davidson          :
          :   write xtbopt.log                true          :
          :   linear?                        false          :
          :   energy convergence         0.5000000E-05 Eh   :
          :   grad. convergence          0.1000000E-02 Eh/α :
          :   maximium RF displ.         1.0000000          :
          :   Hlow (freq-cutoff)         0.1000000E-01      :
          :   Hmax (freq-cutoff)         5.0000000          :
          :   S6 in model hess.         20.0000000          :
          ...................................................

generating ANC from model Hessian ...
Using Lindh-Hessian (1995)
 Shifting diagonal of input Hessian by    7.3973118421560412E-003
 Lowest  eigenvalues of input Hessian
    0.000000    0.000000    0.000000    0.000000    0.000000    0.000000
    0.010000    0.010307    0.011731    0.015102    0.020716    0.022468
    0.025392    0.027935    0.050734    0.054851    0.059743    0.062013
 Highest eigenvalues
    1.247729    1.271906    1.396457    1.403282    1.441666    1.448074


........................................................................
.............................. CYCLE    1 ..............................
........................................................................
   1    -21.5911036 -0.215911E+02  0.147E-05    9.68       0.0  T
   2    -21.5911036 -0.206057E-12  0.917E-06    9.68    2569.8  T
   3    -21.5911036 -0.106581E-12  0.235E-06    9.68   10020.6  T
     SCC iter.                  ...        0 min,  0.003 sec
     gradient                   ...        0 min,  0.002 sec
 * total energy  :   -21.3411324 Eh     change       -0.2333422E-10 Eh
   gradient norm :     0.0257768 Eh/α   predicted     0.0000000E+00 (-100.00%)
   displ. norm   :     0.1888093 α      lambda       -0.3127286E-02
   maximum displ.:     0.0879426 α      in ANC's #16, #12, #15, ...

........................................................................
.............................. CYCLE    2 ..............................
........................................................................
   1    -21.5965235 -0.215965E+02  0.177E-01    9.73       0.0  T
   2    -21.5965329 -0.940077E-05  0.103E-01    9.73       1.0  T
   3    -21.5965346 -0.173712E-05  0.111E-02    9.74       2.1  T
   4    -21.5965347 -0.904621E-07  0.492E-03    9.74       4.8  T
   5    -21.5965347 -0.238336E-07  0.133E-03    9.74      17.7  T
   6    -21.5965347 -0.531001E-08  0.487E-04    9.74      48.4  T
   7    -21.5965347 -0.510621E-09  0.169E-04    9.74     139.5  T
     SCC iter.                  ...        0 min,  0.007 sec
     gradient                   ...        0 min,  0.001 sec
 * total energy  :   -21.3430684 Eh     change       -0.1936024E-02 Eh
   gradient norm :     0.0106470 Eh/α   predicted    -0.1619385E-02 ( -16.36%)
   displ. norm   :     0.0958026 α      lambda       -0.5523697E-03
   maximum displ.:     0.0475045 α      in ANC's #12, #5, #31, ...

........................................................................
.............................. CYCLE    3 ..............................
........................................................................
   1    -21.5981607 -0.215982E+02  0.755E-02    9.79       0.0  T
   2    -21.5981637 -0.291707E-05  0.442E-02    9.80       1.0  T
   3    -21.5981639 -0.259447E-06  0.710E-03    9.81       3.3  T
   4    -21.5981640 -0.957993E-07  0.230E-03    9.81      10.2  T
   5    -21.5981640 -0.327562E-08  0.111E-03    9.81      21.3  T
   6    -21.5981640 -0.964125E-09  0.176E-04    9.81     133.9  T
   7    -21.5981640 -0.426503E-10  0.986E-05    9.81     238.9  T
     SCC iter.                  ...        0 min,  0.006 sec
     gradient                   ...        0 min,  0.001 sec
 * total energy  :   -21.3434179 Eh     change       -0.3494551E-03 Eh
   gradient norm :     0.0047378 Eh/α   predicted    -0.2787209E-03 ( -20.24%)
   displ. norm   :     0.0740375 α      lambda       -0.1520199E-03
   maximum displ.:     0.0357594 α      in ANC's #5, #2, #13, ...

........................................................................
.............................. CYCLE    4 ..............................
........................................................................
   1    -21.5985769 -0.215986E+02  0.427E-02    9.83       0.0  T
   2    -21.5985779 -0.101496E-05  0.258E-02    9.83       1.0  T
   3    -21.5985780 -0.850870E-07  0.455E-03    9.83       5.2  T
   4    -21.5985780 -0.609797E-07  0.137E-03    9.84      17.2  T
   5    -21.5985781 -0.117873E-08  0.624E-04    9.83      37.8  T
   6    -21.5985781 -0.300837E-09  0.130E-04    9.83     181.4  T
     SCC iter.                  ...        0 min,  0.005 sec
     gradient                   ...        0 min,  0.001 sec
 * total energy  :   -21.3435280 Eh     change       -0.1101061E-03 Eh
   gradient norm :     0.0038112 Eh/α   predicted    -0.7642564E-04 ( -30.59%)
   displ. norm   :     0.1049877 α      lambda       -0.1236511E-03
   maximum displ.:     0.0564421 α      in ANC's #2, #5, #8, ...

........................................................................
.............................. CYCLE    5 ..............................
........................................................................
   1    -21.5984933 -0.215985E+02  0.515E-02    9.84       0.0  T
   2    -21.5984942 -0.900188E-06  0.316E-02    9.84       1.0  T
   3    -21.5984943 -0.162822E-06  0.408E-03    9.84       5.8  T
   4    -21.5984944 -0.756273E-07  0.167E-03    9.84      14.1  T
   5    -21.5984944 -0.327737E-08  0.611E-04    9.84      38.6  T
   6    -21.5984944 -0.630944E-09  0.228E-04    9.84     103.5  T
     SCC iter.                  ...        0 min,  0.005 sec
     gradient                   ...        0 min,  0.001 sec
 * total energy  :   -21.3436110 Eh     change       -0.8306361E-04 Eh
   gradient norm :     0.0059267 Eh/α   predicted    -0.6250816E-04 ( -24.75%)
   displ. norm   :     0.0863986 α      lambda       -0.7740634E-04
   maximum displ.:     0.0556348 α      in ANC's #2, #5, #8, ...

........................................................................
.............................. CYCLE    6 ..............................
........................................................................
   1    -21.5984913 -0.215985E+02  0.391E-02    9.83       0.0  T
   2    -21.5984916 -0.243649E-06  0.238E-02    9.83       1.0  T
   3    -21.5984916 -0.799049E-07  0.203E-03    9.83      11.6  T
   4    -21.5984917 -0.163849E-07  0.107E-03    9.83      22.0  T
   5    -21.5984917 -0.142799E-08  0.288E-04    9.83      82.0  T
   6    -21.5984917 -0.190049E-09  0.118E-04    9.83     200.1  T
     SCC iter.                  ...        0 min,  0.005 sec
     gradient                   ...        0 min,  0.001 sec
 * total energy  :   -21.3436681 Eh     change       -0.5704812E-04 Eh
   gradient norm :     0.0051472 Eh/α   predicted    -0.3899198E-04 ( -31.65%)
   displ. norm   :     0.0856414 α      lambda       -0.6727674E-04
   maximum displ.:     0.0610771 α      in ANC's #2, #8, #5, ...

........................................................................
.............................. CYCLE    7 ..............................
........................................................................
   1    -21.5986003 -0.215986E+02  0.390E-02    9.81       0.0  T
   2    -21.5986005 -0.196442E-06  0.235E-02    9.81       1.0  T
   3    -21.5986005 -0.493594E-07  0.167E-03    9.80      14.1  T
   4    -21.5986005 -0.786006E-08  0.864E-04    9.80      27.3  T
   5    -21.5986005 -0.523890E-09  0.254E-04    9.80      92.7  T
     SCC iter.                  ...        0 min,  0.004 sec
     gradient                   ...        0 min,  0.001 sec
 * total energy  :   -21.3437112 Eh     change       -0.4309169E-04 Eh
   gradient norm :     0.0024592 Eh/α   predicted    -0.3388438E-04 ( -21.37%)
   displ. norm   :     0.0503009 α      lambda       -0.1741441E-04
   maximum displ.:     0.0363735 α      in ANC's #2, #8, #5, ...

........................................................................
.............................. CYCLE    8 ..............................
........................................................................
   1    -21.5985222 -0.215985E+02  0.234E-02    9.80       0.0  T
   2    -21.5985223 -0.895249E-07  0.141E-02    9.80       1.7  T
   3    -21.5985223 -0.190474E-07  0.126E-03    9.80      18.7  T
   4    -21.5985223 -0.733703E-08  0.593E-04    9.80      39.8  T
   5    -21.5985223 -0.244054E-09  0.127E-04    9.80     186.0  T
     SCC iter.                  ...        0 min,  0.004 sec
     gradient                   ...        0 min,  0.001 sec
 * total energy  :   -21.3437223 Eh     change       -0.1114677E-04 Eh
   gradient norm :     0.0017378 Eh/α   predicted    -0.8729329E-05 ( -21.69%)
   displ. norm   :     0.0404250 α      lambda       -0.9234671E-05
   maximum displ.:     0.0311265 α      in ANC's #2, #1, #4, ...

........................................................................
.............................. CYCLE    9 ..............................
........................................................................
   1    -21.5990190 -0.215990E+02  0.179E-02    9.80       0.0  T
   2    -21.5990191 -0.131293E-06  0.105E-02    9.80       2.2  T
   3    -21.5990192 -0.870623E-08  0.164E-03    9.80      14.4  T
   4    -21.5990192 -0.119880E-07  0.497E-04    9.80      47.5  T
   5    -21.5990192 -0.594017E-09  0.204E-04    9.80     115.4  T
     SCC iter.                  ...        0 min,  0.004 sec
     gradient                   ...        0 min,  0.001 sec
 * total energy  :   -21.3437247 Eh     change       -0.2379542E-05 Eh
   gradient norm :     0.0024732 Eh/α   predicted    -0.4621102E-05 (  94.20%)
   displ. norm   :     0.0186428 α      lambda       -0.7062662E-05
   maximum displ.:     0.0115660 α      in ANC's #1, #2, #4, ...

........................................................................
.............................. CYCLE   10 ..............................
........................................................................
   1    -21.5988409 -0.215988E+02  0.665E-03    9.80       0.0  T
   2    -21.5988409 -0.141182E-07  0.397E-03    9.80       5.9  T
   3    -21.5988409 -0.412279E-08  0.441E-04    9.80      53.4  T
   4    -21.5988409 -0.249713E-09  0.223E-04    9.80     105.8  T
     SCC iter.                  ...        0 min,  0.004 sec
     gradient                   ...        0 min,  0.001 sec
 * total energy  :   -21.3437296 Eh     change       -0.4912787E-05 Eh
   gradient norm :     0.0009285 Eh/α   predicted    -0.3534232E-05 ( -28.06%)
   displ. norm   :     0.0299650 α      lambda       -0.4914534E-05
   maximum displ.:     0.0185411 α      in ANC's #1, #4, #8, ...

   *** GEOMETRY OPTIMIZATION CONVERGED AFTER 10 ITERATIONS ***

------------------------------------------------------------------------
 total energy gain   :        -0.0025972 Eh       -1.6298 kcal/mol
 total RMSD          :         0.1268952 a0        0.0672 Å
 total power (kW/mol):        -0.6819019 (step)  -78.9006 (real)
------------------------------------------------------------------------

 ANCopt (total)                0 d,  0 h,  0 min,  0.086 sec
 optimizer setup                ...        0 min,  0.000 sec (  0.160%)
 model hessian                  ...        0 min,  0.006 sec (  7.204%)
 ANC generation                 ...        0 min,  0.001 sec (  1.205%)
 coordinate transformation      ...        0 min,  0.000 sec (  0.406%)
 single point calculation       ...        0 min,  0.073 sec ( 84.848%)
 optimization log               ...        0 min,  0.001 sec (  1.392%)
 hessian update                 ...        0 min,  0.000 sec (  0.472%)
 rational function              ...        0 min,  0.002 sec (  2.398%)

================
 final structure:
================
18
 xtb: 6.5.1 (fef0646)
N            0.94970242049819       -0.08544647335818       -0.04571844698070
C            2.43284630750343       -0.08859857863556       -0.04858168847161
C            2.96212486788971        0.01841841295075       -1.47337844389197
C            4.49017911684903        0.00307656216154       -1.50137550584900
C            5.00968499330200        0.01699442775876       -2.94130223435595
O            4.60965311041851       -1.12313055273236       -3.67622822398287
H            0.58485888533324       -0.13637890289484        0.91220627245611
H            0.59404576373972       -0.88835533998815       -0.57824742110904
H            0.59747786838741        0.77204768810308       -0.48784666075621
H            2.78894850147087       -1.01057480351714        0.41085622251843
H            2.79498323854164        0.75293266643878        0.54195380888128
H            2.62128255246714        0.94473976938731       -1.93764646175372
H            2.60679767662956       -0.81513918366676       -2.08129937068638
H            4.86520354286250       -0.89073643037481       -0.99876408379761
H            4.89300928534537        0.87469711601714       -0.98529163839316
H            6.10259246539974        0.11269806942131       -2.94710392670097
H            4.59308370122327        0.86765748932947       -3.48675400685062
H            5.05888570213867       -1.90212193640035       -3.32303819027603

 Bond Distances (Angstroems)
 ---------------------------
N1-C2=1.4832         N1-H7=1.0263         N1-H8=1.0270         N1-H9=1.0271         C2-N1=1.4832         C2-C3=1.5237         
C2-H10=1.0899        C2-H11=1.0900        C3-C2=1.5237         C3-C4=1.5284         C3-H12=1.0908        C3-H13=1.0912        
C4-C3=1.5284         C4-C5=1.5308         C4-H14=1.0919        C4-H15=1.0901        C5-C4=1.5308         C5-O6=1.4142         
C5-H16=1.0971        C5-H17=1.0930        O6-C5=1.4142         O6-H18=0.9661        H7-N1=1.0263         H8-N1=1.0270         
H9-N1=1.0271         H10-C2=1.0899        H11-C2=1.0900        H12-C3=1.0908        H13-C3=1.0912        H14-C4=1.0919        
H15-C4=1.0901        H16-C5=1.0971        H17-C5=1.0930        H18-O6=0.9661        
 C  H  Rav=1.0917 sigma=0.0023  Rmin=1.0899  Rmax=1.0971     8
 C  C  Rav=1.5276 sigma=0.0030  Rmin=1.5237  Rmax=1.5308     3
 N  H  Rav=1.0268 sigma=0.0003  Rmin=1.0263  Rmax=1.0271     3
 N  C  Rav=1.4832 sigma=0.0000  Rmin=1.4832  Rmax=1.4832     1
 O  H  Rav=0.9661 sigma=0.0000  Rmin=0.9661  Rmax=0.9661     1
 O  C  Rav=1.4142 sigma=0.0000  Rmin=1.4142  Rmax=1.4142     1

 selected bond angles (degree)
 --------------------
H7-N1-C2=110.93                H8-N1-C2=110.10                H8-N1-H7=108.79                H9-N1-C2=110.11                
H9-N1-H7=108.74                H9-N1-H8=108.10                C3-C2-N1=110.43                H10-C2-N1=109.13               
H10-C2-C3=109.88               H11-C2-N1=109.24               H11-C2-C3=109.69               H11-C2-H10=108.43              
C4-C3-C2=111.33                H12-C3-C2=110.43               H12-C3-C4=108.25               H13-C3-C2=110.74               
H13-C3-C4=107.92               H13-C3-H12=108.05              C5-C4-C3=110.88                H14-C4-C3=110.07               
H14-C4-C5=108.90               H15-C4-C3=110.66               H15-C4-C5=108.22               H15-C4-H14=108.04              
O6-C5-C4=112.67                H16-C5-C4=110.11               H16-C5-O6=110.45               H17-C5-C4=110.31               
H17-C5-O6=105.09               H17-C5-H16=108.01              H18-O6-C5=109.18               

 selected dihedral angles (degree)
 ---------------------------------
C3-C2-N1-H7=181.25            C3-C2-N1-H8= 60.78            C3-C2-N1-H9=301.68            H10-C2-N1-H7= 60.37           
H10-C2-N1-H8=299.90           H10-C2-N1-H9=180.79           H11-C2-N1-H7=301.97           H11-C2-N1-H8=181.50           
H11-C2-N1-H9= 62.40           C4-C3-C2-N1=180.56            C4-C3-C2-H10=301.00           C4-C3-C2-H11= 60.11           
H12-C3-C2-N1= 60.28           H12-C3-C2-H10=180.72          H12-C3-C2-H11=299.83          H13-C3-C2-N1=300.63           
H13-C3-C2-H10= 61.07          H13-C3-C2-H11=180.18          C5-C4-C3-C2=176.23            C5-C4-C3-H12=297.79           
C5-C4-C3-H13= 54.50           H14-C4-C3-C2= 55.67           H14-C4-C3-H12=177.23          H14-C4-C3-H13=293.94          
H15-C4-C3-C2=296.32           H15-C4-C3-H12= 57.88          H15-C4-C3-H13=174.59          O6-C5-C4-C3=297.84            
O6-C5-C4-H14= 59.09           O6-C5-C4-H15=176.30           H16-C5-C4-C3=174.05           H16-C5-C4-H14=295.30          
H16-C5-C4-H15= 52.51          H17-C5-C4-C3= 54.93           H17-C5-C4-H14=176.18          H17-C5-C4-H15=293.39          
H18-O6-C5-C4=291.54           H18-O6-C5-H16= 55.15          H18-O6-C5-H17=171.40          
           -------------------------------------------------
          |                Final Singlepoint                |
           -------------------------------------------------

          ...................................................
          :                      SETUP                      :
          :.................................................:
          :  # basis functions                  36          :
          :  # atomic orbitals                  36          :
          :  # shells                           24          :
          :  # electrons                        38          :
          :  max. iterations                   250          :
          :  Hamiltonian                  GFN2-xTB          :
          :  restarted?                      false          :
          :  GBSA solvation                   true          :
          :  PC potential                    false          :
          :  electronic temp.          300.0000000     K    :
          :  accuracy                    1.0000000          :
          :  -> integral cutoff          0.2500000E+02      :
          :  -> integral neglect         0.1000000E-07      :
          :  -> SCF convergence          0.1000000E-05 Eh   :
          :  -> wf. convergence          0.1000000E-03 e    :
          :  Broyden damping             0.4000000          :
          ...................................................

 iter      E             dE          RMSdq      gap      omega  full diag
   1    -21.5988409 -0.215988E+02  0.750E-05    9.80       0.0  T
   2    -21.5988409 -0.111591E-10  0.495E-05    9.80     475.8  T
   3    -21.5988409 -0.520117E-11  0.199E-05    9.80    1185.9  T

   *** convergence criteria satisfied after 3 iterations ***

         #    Occupation            Energy/Eh            Energy/eV
      -------------------------------------------------------------
         1        2.0000           -0.6925223             -18.8445
       ...           ...                  ...                  ...
        13        2.0000           -0.5061513             -13.7731
        14        2.0000           -0.4778225             -13.0022
        15        2.0000           -0.4677800             -12.7289
        16        2.0000           -0.4651329             -12.6569
        17        2.0000           -0.4375921             -11.9075
        18        2.0000           -0.4341024             -11.8125
        19        2.0000           -0.4118611             -11.2073 (HOMO)
        20                         -0.0515813              -1.4036 (LUMO)
        21                          0.0472650               1.2861
        22                          0.0560996               1.5265
        23                          0.0743331               2.0227
        24                          0.0987876               2.6881
       ...                                ...                  ...
        36                          0.3038731               8.2688
      -------------------------------------------------------------
                  HL-Gap            0.3602798 Eh            9.8037 eV
             Fermi-level           -0.2317212 Eh           -6.3055 eV

 SCC (total)                   0 d,  0 h,  0 min,  0.005 sec
 SCC setup                      ...        0 min,  0.000 sec (  4.550%)
 Dispersion                     ...        0 min,  0.000 sec (  3.108%)
 classical contributions        ...        0 min,  0.000 sec (  0.766%)
 integral evaluation            ...        0 min,  0.001 sec ( 10.428%)
 iterations                     ...        0 min,  0.003 sec ( 53.716%)
 molecular gradient             ...        0 min,  0.001 sec ( 21.419%)
 printout                       ...        0 min,  0.000 sec (  2.187%)

         :::::::::::::::::::::::::::::::::::::::::::::::::::::
         ::                     SUMMARY                     ::
         :::::::::::::::::::::::::::::::::::::::::::::::::::::
         :: total energy             -21.343729619630 Eh    ::
         :: total w/o Gsasa/hb       -21.328804484277 Eh    ::
         :: gradient norm              0.000933494885 Eh/a0 ::
         :: HOMO-LUMO gap              9.803711420595 eV    ::
         ::.................................................::
         :: SCC energy               -21.598840886002 Eh    ::
         :: -> isotropic ES            0.155469206133 Eh    ::
         :: -> anisotropic ES         -0.013860569782 Eh    ::
         :: -> anisotropic XC          0.010541118857 Eh    ::
         :: -> dispersion             -0.008178278879 Eh    ::
         :: -> Gsolv                  -0.125759894310 Eh    ::
         ::    -> Gelec               -0.110834758958 Eh    ::
         ::    -> Gsasa                0.000445255750 Eh    ::
         ::    -> Ghb                 -0.016451150801 Eh    ::
         ::    -> Gshift               0.001080759698 Eh    ::
         :: repulsion energy           0.255098481944 Eh    ::
         :: add. restraining           0.000000000000 Eh    ::
         :: total charge               1.000000000000 e     ::
         :::::::::::::::::::::::::::::::::::::::::::::::::::::

           -------------------------------------------------
          |                Property Printout                |
           -------------------------------------------------

    * Orbital Energies and Occupations

         #    Occupation            Energy/Eh            Energy/eV
      -------------------------------------------------------------
         1        2.0000           -0.6925223             -18.8445
       ...           ...                  ...                  ...
         7        2.0000           -0.5899375             -16.0530
         8        2.0000           -0.5741437             -15.6232
         9        2.0000           -0.5511630             -14.9979
        10        2.0000           -0.5456383             -14.8476
        11        2.0000           -0.5326216             -14.4934
        12        2.0000           -0.5115587             -13.9202
        13        2.0000           -0.5061513             -13.7731
        14        2.0000           -0.4778225             -13.0022
        15        2.0000           -0.4677800             -12.7289
        16        2.0000           -0.4651329             -12.6569
        17        2.0000           -0.4375921             -11.9075
        18        2.0000           -0.4341024             -11.8125
        19        2.0000           -0.4118611             -11.2073 (HOMO)
        20                         -0.0515813              -1.4036 (LUMO)
        21                          0.0472650               1.2861
        22                          0.0560996               1.5265
        23                          0.0743331               2.0227
        24                          0.0987876               2.6881
        25                          0.1161968               3.1619
        26                          0.1347864               3.6677
        27                          0.1417732               3.8578
        28                          0.1471230               4.0034
        29                          0.1641213               4.4660
        30                          0.1884514               5.1280
       ...                                ...                  ...
        36                          0.3038731               8.2688
      -------------------------------------------------------------
                  HL-Gap            0.3602798 Eh            9.8037 eV
             Fermi-level           -0.2317212 Eh           -6.3055 eV

     #   Z          covCN         q      C6AA      α(0)
     1   7 N        3.485    -0.162    24.483     7.349
     2   6 C        3.732    -0.038    21.354     6.596
     3   6 C        3.804    -0.085    22.114     6.695
     4   6 C        3.801    -0.082    22.070     6.689
     5   6 C        3.675     0.075    19.546     6.335
     6   8 O        1.654    -0.518    23.293     6.515
     7   1 H        0.859     0.317     0.666     1.278
     8   1 H        0.859     0.309     0.687     1.299
     9   1 H        0.859     0.308     0.689     1.300
    10   1 H        0.925     0.108     1.712     2.046
    11   1 H        0.925     0.108     1.713     2.047
    12   1 H        0.924     0.067     2.123     2.278
    13   1 H        0.924     0.075     2.027     2.227
    14   1 H        0.924     0.053     2.283     2.363
    15   1 H        0.925     0.051     2.311     2.377
    16   1 H        0.924     0.016     2.800     2.617
    17   1 H        0.924     0.047     2.357     2.401
    18   1 H        0.805     0.352     0.584     1.201

 Mol. C6AA /au·bohr⁶  :       1857.816691
 Mol. C8AA /au·bohr⁸  :      38343.859740
 Mol. α(0) /au        :         63.611733


Wiberg/Mayer (AO) data.
largest (>0.10) Wiberg bond orders for each atom

 ---------------------------------------------------------------------------
     #   Z sym  total        # sym  WBO       # sym  WBO       # sym  WBO
 ---------------------------------------------------------------------------
     1   7 N    3.653 --     2 C    0.967     9 H    0.890     8 H    0.890
                             7 H    0.887
     2   6 C    3.927 --     3 C    1.011     1 N    0.967    11 H    0.966
                            10 H    0.966
     3   6 C    3.989 --     2 C    1.011     4 C    1.006    12 H    0.972
                            13 H    0.970
     4   6 C    3.995 --     3 C    1.006     5 C    0.997    15 H    0.975
                            14 H    0.974
     5   6 C    3.950 --     4 C    0.997     6 O    0.993    17 H    0.973
                            16 H    0.972
     6   8 O    1.914 --     5 C    0.993    18 H    0.863
     7   1 H    0.899 --     1 N    0.887
     8   1 H    0.905 --     1 N    0.890
     9   1 H    0.905 --     1 N    0.890
    10   1 H    0.988 --     2 C    0.966
    11   1 H    0.988 --     2 C    0.966
    12   1 H    0.996 --     3 C    0.972
    13   1 H    0.994 --     3 C    0.970
    14   1 H    0.997 --     4 C    0.974
    15   1 H    0.997 --     4 C    0.975
    16   1 H    0.999 --     5 C    0.972
    17   1 H    0.998 --     5 C    0.973
    18   1 H    0.876 --     6 O    0.863
 ---------------------------------------------------------------------------

Topologies differ in total number of bonds
Writing topology from bond orders to xtbtopo.mol

molecular dipole:
                 x           y           z       tot (Debye)
 q only:        2.351      -0.257       0.449
   full:        2.433      -0.289       0.517       6.366
molecular quadrupole (traceless):
                xx          xy          yy          xz          yz          zz
 q only:       13.858      -3.270      -0.462       3.639      -0.299     -13.396
  q+dip:       16.035      -4.595       0.455       3.470      -1.027     -16.490
   full:       16.511      -4.457      -0.018       3.298      -0.734     -16.493

           -------------------------------------------------
          |                Geometry Summary                 |
           -------------------------------------------------

      molecular mass/u    :       90.1443407
   center of mass at/Å    :        3.3763139      -0.2340369      -1.6215916
  moments of inertia/u·Å² :        0.5667455E+02   0.3727135E+03   0.3999701E+03
rotational constants/cm⁻¹ :        0.2974462E+00   0.4522947E-01   0.4214723E-01

 * 17 selected distances

     #   Z          #   Z                                           value/Å
     1   7 N        2   6 C                                       1.4831501
     2   6 C        3   6 C                                       1.5236911
     3   6 C        4   6 C                                       1.5283879
     4   6 C        5   6 C                                       1.5308395 (max)
     5   6 C        6   8 O                                       1.4142231
     1   7 N        7   1 H                                       1.0263162
     1   7 N        8   1 H                                       1.0270061
     1   7 N        9   1 H                                       1.0270521
     2   6 C       10   1 H                                       1.0899231
     2   6 C       11   1 H                                       1.0899772
     3   6 C       12   1 H                                       1.0907748
     3   6 C       13   1 H                                       1.0911662
     4   6 C       14   1 H                                       1.0918624
     4   6 C       15   1 H                                       1.0901089
     5   6 C       16   1 H                                       1.0971052
     5   6 C       17   1 H                                       1.0930243
     6   8 O       18   1 H                                       0.9661164 (min)

 * 6 distinct bonds (by element types)

   Z      Z             #   av. dist./Å        max./Å        min./Å
   1 H    6 C           8     1.0917428     1.0971052     1.0899231
   6 C    6 C           3     1.5276395     1.5308395     1.5236911
   1 H    7 N           3     1.0267915     1.0270521     1.0263162
   6 C    7 N           1     1.4831501     1.4831501     1.4831501
   1 H    8 O           1     0.9661164     0.9661164     0.9661164
   6 C    8 O           1     1.4142231     1.4142231     1.4142231


optimized geometry written to: xtbopt.xyz


           -------------------------------------------------
          | TOTAL ENERGY              -21.343729619630 Eh   |
          | GRADIENT NORM               0.000933494885 Eh/α |
          | HOMO-LUMO GAP               9.803711420595 eV   |
           -------------------------------------------------

------------------------------------------------------------------------
 * finished run on 2023/01/24 at 16:46:02.126     
------------------------------------------------------------------------
 total:
 * wall-time:     0 d,  0 h,  0 min,  0.132 sec
 *  cpu-time:     0 d,  0 h,  0 min, 18.196 sec
 * ratio c/w:   137.473 speedup
 SCF:
 * wall-time:     0 d,  0 h,  0 min,  0.016 sec
 *  cpu-time:     0 d,  0 h,  0 min,  2.283 sec
 * ratio c/w:   139.399 speedup
 ANC optimizer:
 * wall-time:     0 d,  0 h,  0 min,  0.093 sec
 *  cpu-time:     0 d,  0 h,  0 min, 12.894 sec
 * ratio c/w:   139.138 speedup

