 Entering Gaussian System
 *********************************************
 Gaussian 98:
 frequency output generated by the xtb code
 *********************************************
                         Standard orientation:
 --------------------------------------------------------------------
  Center     Atomic     Atomic              Coordinates (Angstroms)
  Number     Number      Type              X           Y           Z
 --------------------------------------------------------------------
    1          7             0       -3.467109   -0.314050    0.810543
    2          6             0       -2.780522   -0.060106   -0.491980
    3          6             0       -1.296391    0.044856   -0.342676
    4          6             0       -0.501687   -1.100868   -0.332866
    5          6             0        0.861094   -1.017995   -0.162581
    6          6             0        1.495941    0.231362    0.010754
    7          6             0        2.906533    0.364825    0.190719
    8          6             0        3.794278   -0.649530    0.228358
    9          6             0        0.678187    1.382657    0.003685
   10          6             0       -0.683314    1.284953   -0.166010
   11          1             0       -3.138942   -1.192872    1.223893
   12          1             0       -4.484430   -0.373265    0.695546
   13          1             0       -3.261163    0.438210    1.475601
   14          1             0       -3.169999    0.860135   -0.940531
   15          1             0       -3.021259   -0.861276   -1.199148
   16          1             0       -0.968253   -2.062226   -0.463283
   17          1             0        1.447000   -1.919248   -0.162382
   18          1             0        3.282189    1.368823    0.306016
   19          1             0        3.493682   -1.671168    0.123851
   20          1             0        4.841849   -0.468615    0.367834
   21          1             0        1.133433    2.349235    0.135772
   22          1             0       -1.289339    2.174727   -0.164299
 --------------------------------------------------------------------
     1 basis functions        1 primitive gaussians
     1 alpha electrons        1 beta electrons

 Harmonic frequencies (cm**-1), IR intensities (km*mol⁻¹),
 Raman scattering activities (A**4/amu), Raman depolarization ratios,
 reduced masses (AMU), force constants (mDyne/A) and normal coordinates:
                      1                      2                      3
                        a                      a                      a 
 Frequencies --    43.7633                65.0792                78.9378
 Red. masses --     6.0309                 9.9288                 9.3025
 Frc consts  --     0.0000                 0.0000                 0.0000
 IR Inten    --     2.9513                14.1542                19.1789
 Raman Activ --     0.0000                 0.0000                 0.0000
 Depolar     --     0.0000                 0.0000                 0.0000
 Atom AN      X      Y      Z        X      Y      Z        X      Y      Z
   1   7    -0.12  -0.10  -0.10    -0.18  -0.26  -0.30    -0.24   0.47  -0.14
   2   6     0.01   0.05   0.00     0.03   0.12  -0.10     0.04  -0.19  -0.12
   3   6     0.00   0.02   0.12     0.01   0.08   0.13     0.02  -0.16   0.08
   4   6     0.00   0.02   0.02    -0.05   0.04   0.39     0.09  -0.12   0.01
   5   6     0.02   0.02  -0.06    -0.05   0.00   0.40     0.08  -0.05   0.02
   6   6     0.03   0.01  -0.05     0.02   0.00   0.14     0.02  -0.03   0.09
   7   6     0.08   0.02  -0.48     0.05  -0.02  -0.11     0.03   0.07  -0.11
   8   6    -0.03  -0.04   0.31     0.06  -0.03  -0.40     0.11   0.13  -0.25
   9   6     0.02   0.01   0.09     0.07   0.03   0.02    -0.06  -0.08   0.26
  10   6     0.01   0.01   0.20     0.06   0.08   0.00    -0.05  -0.15   0.26
  11   1    -0.06  -0.05  -0.05    -0.08  -0.11  -0.14    -0.06   0.20   0.12
  12   1    -0.03  -0.01  -0.06    -0.04  -0.05  -0.13    -0.05   0.07  -0.10
  13   1    -0.04  -0.05   0.01    -0.07  -0.13  -0.01    -0.14   0.23  -0.14
  14   1     0.02   0.03   0.02     0.03   0.07   0.02     0.04  -0.11  -0.17
  15   1     0.02   0.04  -0.03     0.04   0.09  -0.10     0.04  -0.14   0.06
  16   1     0.00   0.01  -0.02    -0.03   0.01   0.16     0.04  -0.04  -0.03
  17   1     0.01   0.01  -0.08    -0.03  -0.01   0.17     0.04  -0.00  -0.02
  18   1     0.07   0.03  -0.49     0.02  -0.01  -0.02    -0.01   0.03  -0.03
  19   1    -0.06  -0.04   0.51     0.01  -0.00  -0.14     0.05   0.03  -0.07
  20   1     0.01  -0.01  -0.06     0.03  -0.01  -0.18     0.03   0.06  -0.12
  21   1     0.01   0.00   0.03     0.03   0.01  -0.04    -0.04  -0.02   0.11
  22   1     0.00   0.00   0.09     0.03   0.03  -0.04    -0.03  -0.05   0.10
                      4                      5                      6
                        a                      a                      a 
 Frequencies --   105.9339               189.8701               229.8370
 Red. masses --     1.8878                 9.7288                 8.7972
 Frc consts  --     0.0000                 0.0000                 0.0000
 IR Inten    --     1.5736                20.8415                 0.4799
 Raman Activ --     0.0000                 0.0000                 0.0000
 Depolar     --     0.0000                 0.0000                 0.0000
 Atom AN      X      Y      Z        X      Y      Z        X      Y      Z
   1   7    -0.04   0.12   0.00    -0.51  -0.06  -0.04    -0.03  -0.03  -0.01
   2   6    -0.01   0.03  -0.00    -0.02   0.04   0.21     0.08  -0.34  -0.02
   3   6     0.00  -0.11  -0.01    -0.00  -0.02   0.30     0.05   0.01   0.07
   4   6     0.03  -0.09  -0.01     0.05   0.01   0.07     0.15   0.10   0.05
   5   6     0.03  -0.04  -0.00     0.09   0.02  -0.27     0.12   0.26  -0.01
   6   6    -0.00  -0.03   0.01     0.13   0.00  -0.30     0.03   0.30  -0.02
   7   6    -0.01   0.06   0.01     0.08  -0.00   0.11     0.06  -0.06   0.01
   8   6     0.06   0.12  -0.01     0.12   0.03   0.13    -0.33  -0.41  -0.06
   9   6    -0.03  -0.05   0.01     0.12  -0.00  -0.27    -0.05   0.25  -0.01
  10   6    -0.02  -0.09   0.00     0.07  -0.01   0.05    -0.06   0.08   0.03
  11   1    -0.43  -0.23  -0.23    -0.18  -0.02   0.01    -0.13  -0.05   0.01
  12   1    -0.05   0.58   0.08    -0.12  -0.02  -0.14    -0.02   0.12  -0.01
  13   1     0.44  -0.22   0.15    -0.22  -0.02   0.02     0.08  -0.03  -0.01
  14   1     0.04   0.04   0.02     0.03   0.02   0.06    -0.02  -0.17  -0.11
  15   1    -0.05   0.03  -0.01     0.03   0.03   0.02     0.10  -0.18   0.07
  16   1     0.02  -0.03  -0.00     0.01  -0.00   0.05     0.07   0.01   0.02
  17   1     0.02  -0.01  -0.00     0.03   0.00  -0.12     0.05   0.09  -0.01
  18   1    -0.02   0.03   0.00    -0.00  -0.01   0.18     0.12  -0.06   0.04
  19   1     0.04   0.03  -0.00     0.06   0.02  -0.13    -0.20  -0.08  -0.06
  20   1     0.01   0.06  -0.00     0.01   0.01   0.20    -0.08  -0.25   0.00
  21   1    -0.02  -0.01   0.00     0.04   0.00  -0.12    -0.04   0.09  -0.01
  22   1    -0.01  -0.03  -0.00     0.03   0.00   0.03    -0.05   0.00   0.01
                      7                      8                      9
                        a                      a                      a 
 Frequencies --   334.9019               350.0913               366.6702
 Red. masses --     9.7765                 8.2242                 8.7530
 Frc consts  --     0.0000                 0.0000                 0.0000
 IR Inten    --     7.8249                 0.5782                 0.0278
 Raman Activ --     0.0000                 0.0000                 0.0000
 Depolar     --     0.0000                 0.0000                 0.0000
 Atom AN      X      Y      Z        X      Y      Z        X      Y      Z
   1   7     0.33   0.06  -0.17    -0.08   0.06   0.03     0.01   0.00  -0.00
   2   6     0.16   0.13  -0.16     0.01   0.35   0.12     0.01   0.01  -0.00
   3   6     0.09  -0.08   0.15     0.08  -0.33  -0.04     0.01  -0.01  -0.01
   4   6    -0.04  -0.15   0.33     0.20  -0.25  -0.09     0.06   0.02  -0.41
   5   6    -0.01  -0.08  -0.09     0.18   0.08   0.03    -0.04  -0.03   0.41
   6   6    -0.09   0.01  -0.39     0.01   0.16   0.14    -0.00   0.01  -0.03
   7   6    -0.17   0.08  -0.10     0.01   0.13   0.05    -0.01   0.01  -0.00
   8   6    -0.23   0.04   0.08    -0.23  -0.08  -0.07    -0.02  -0.00   0.00
   9   6    -0.06   0.01  -0.03    -0.09   0.07  -0.00     0.05   0.04  -0.40
  10   6    -0.06  -0.05   0.31    -0.03  -0.27  -0.15    -0.05  -0.04   0.43
  11   1     0.14   0.02  -0.07     0.04   0.03  -0.00     0.00   0.00  -0.00
  12   1     0.08  -0.01   0.01    -0.01  -0.08  -0.05     0.00   0.00  -0.00
  13   1     0.11   0.02  -0.05    -0.13   0.02   0.04    -0.00  -0.00   0.00
  14   1     0.09   0.07  -0.02     0.13   0.23   0.19     0.00   0.01   0.01
  15   1     0.03   0.07  -0.08    -0.15   0.25  -0.08     0.00   0.01  -0.00
  16   1    -0.03  -0.04   0.18     0.12  -0.10  -0.04     0.03   0.02  -0.25
  17   1     0.02  -0.01  -0.01     0.09   0.05   0.00    -0.03  -0.02   0.29
  18   1    -0.07   0.01   0.12     0.05   0.02  -0.03    -0.00   0.00   0.00
  19   1    -0.06   0.03  -0.14    -0.15  -0.00   0.03    -0.01   0.00  -0.03
  20   1    -0.09  -0.02   0.21    -0.04  -0.11  -0.09    -0.01  -0.01   0.03
  21   1    -0.01  -0.00   0.01    -0.08   0.05  -0.01     0.03   0.02  -0.26
  22   1    -0.05  -0.04   0.14    -0.06  -0.11  -0.08    -0.03  -0.03   0.27
                     10                     11                     12
                        a                      a                      a 
 Frequencies --   415.5806               488.5178               520.1018
 Red. masses --     9.7459                 8.7691                 8.7931
 Frc consts  --     0.0000                 0.0000                 0.0000
 IR Inten    --     2.6544                 7.4055                 7.7705
 Raman Activ --     0.0000                 0.0000                 0.0000
 Depolar     --     0.0000                 0.0000                 0.0000
 Atom AN      X      Y      Z        X      Y      Z        X      Y      Z
   1   7     0.00   0.01   0.03    -0.17  -0.04   0.11    -0.09  -0.01   0.06
   2   6    -0.33   0.06  -0.14    -0.04  -0.04   0.09     0.24   0.01   0.18
   3   6    -0.24  -0.10  -0.25     0.05   0.10  -0.38     0.24  -0.02  -0.21
   4   6    -0.04   0.04   0.12     0.06   0.08  -0.05     0.05  -0.14  -0.11
   5   6    -0.00   0.25   0.08     0.06  -0.14   0.17    -0.03   0.00   0.13
   6   6     0.21   0.18  -0.20     0.15  -0.12  -0.24    -0.23   0.11  -0.17
   7   6     0.30  -0.12  -0.08     0.06   0.31  -0.14    -0.22  -0.33  -0.19
   8   6     0.33  -0.14   0.09    -0.27   0.07   0.04     0.13  -0.04   0.06
   9   6    -0.11   0.01   0.08     0.12  -0.19   0.22    -0.08   0.27   0.18
  10   6    -0.14  -0.18   0.09     0.15   0.02  -0.06    -0.01   0.12  -0.10
  11   1     0.07   0.01  -0.02    -0.09  -0.02   0.05    -0.10  -0.02   0.05
  12   1    -0.01  -0.03   0.11    -0.04   0.01  -0.04    -0.01   0.02  -0.14
  13   1     0.04   0.01  -0.01    -0.08  -0.02   0.05    -0.11  -0.01   0.05
  14   1    -0.08   0.05   0.01    -0.05  -0.03   0.03     0.07   0.01   0.06
  15   1    -0.16   0.05  -0.05    -0.03  -0.03   0.05     0.04   0.02   0.04
  16   1     0.05  -0.03   0.12    -0.01   0.02   0.10    -0.01  -0.04   0.04
  17   1    -0.01   0.06   0.11    -0.06  -0.09   0.20     0.06   0.05   0.17
  18   1     0.11  -0.05   0.06    -0.01   0.09   0.05    -0.06  -0.10   0.01
  19   1     0.13  -0.04  -0.07    -0.23   0.08  -0.13     0.27  -0.07  -0.06
  20   1     0.08  -0.02   0.15    -0.07  -0.16   0.16    -0.01   0.20   0.14
  21   1    -0.12   0.03   0.09     0.04  -0.08   0.22    -0.02   0.06   0.17
  22   1    -0.04  -0.05   0.10     0.07   0.02   0.09    -0.08  -0.02   0.02
                     13                     14                     15
                        a                      a                      a 
 Frequencies --   608.6014               611.2919               707.7389
 Red. masses --    11.2181                 6.9570                 9.9215
 Frc consts  --     0.0000                 0.0000                 0.0000
 IR Inten    --     0.0776                 3.9981                 0.3479
 Raman Activ --     0.0000                 0.0000                 0.0000
 Depolar     --     0.0000                 0.0000                 0.0000
 Atom AN      X      Y      Z        X      Y      Z        X      Y      Z
   1   7     0.01   0.03  -0.01    -0.04  -0.00   0.04     0.08   0.02  -0.09
   2   6     0.02   0.07   0.02     0.02  -0.01   0.02     0.10   0.01   0.05
   3   6     0.00   0.11   0.02     0.07   0.04  -0.36    -0.06  -0.04   0.45
   4   6     0.36   0.29   0.05     0.01  -0.01   0.18    -0.08  -0.00  -0.28
   5   6     0.38  -0.24   0.04     0.06  -0.01  -0.19    -0.13   0.02   0.17
   6   6    -0.01  -0.11  -0.01    -0.01   0.01  -0.14     0.10   0.04  -0.47
   7   6    -0.00  -0.07  -0.02    -0.09  -0.06   0.45     0.09   0.04   0.26
   8   6     0.03  -0.07   0.00     0.00   0.01  -0.12     0.07  -0.01  -0.05
   9   6    -0.38  -0.27  -0.06     0.03   0.04  -0.21    -0.12  -0.08   0.16
  10   6    -0.42   0.26  -0.04    -0.01   0.01   0.17    -0.06   0.01  -0.28
  11   1     0.01   0.00  -0.01    -0.04  -0.01   0.02     0.03   0.01  -0.03
  12   1     0.00  -0.00  -0.01    -0.01   0.01  -0.05     0.02   0.00  -0.01
  13   1    -0.01   0.00   0.01    -0.05  -0.00   0.03     0.03   0.00  -0.02
  14   1     0.03   0.05   0.05    -0.01  -0.01   0.02     0.06   0.00  -0.02
  15   1    -0.03   0.06  -0.03    -0.02  -0.00   0.02     0.08  -0.00   0.00
  16   1     0.06   0.10   0.01    -0.02  -0.02   0.26    -0.04  -0.00  -0.00
  17   1     0.07  -0.09   0.01     0.00  -0.01   0.11    -0.08  -0.02   0.21
  18   1     0.01  -0.03   0.00     0.00   0.00  -0.12     0.04   0.02  -0.06
  19   1     0.05  -0.03  -0.01    -0.02  -0.03   0.31    -0.07   0.01   0.16
  20   1     0.00   0.01   0.02     0.04   0.05  -0.41     0.05  -0.06  -0.17
  21   1    -0.07  -0.09  -0.02    -0.00  -0.01   0.12    -0.07  -0.03   0.22
  22   1    -0.09   0.09  -0.01    -0.03  -0.01   0.27    -0.03  -0.01   0.01
                     16                     17                     18
                        a                      a                      a 
 Frequencies --   728.4808               809.2066               832.5656
 Red. masses --     9.0523                 5.9295                 2.3493
 Frc consts  --     0.0000                 0.0000                 0.0000
 IR Inten    --     4.8493                16.8277                49.8724
 Raman Activ --     0.0000                 0.0000                 0.0000
 Depolar     --     0.0000                 0.0000                 0.0000
 Atom AN      X      Y      Z        X      Y      Z        X      Y      Z
   1   7    -0.12  -0.01   0.02     0.02   0.02  -0.06    -0.01   0.15   0.03
   2   6    -0.37  -0.00  -0.18    -0.03   0.02   0.02    -0.02   0.27   0.04
   3   6    -0.09  -0.02   0.18    -0.05  -0.02   0.22     0.00   0.01  -0.03
   4   6     0.27   0.10  -0.03     0.03   0.05  -0.18     0.02  -0.06   0.04
   5   6     0.26  -0.06   0.10     0.04   0.05  -0.28     0.04  -0.02   0.04
   6   6    -0.06   0.01  -0.18    -0.04  -0.03   0.38     0.00   0.02  -0.01
   7   6    -0.31  -0.15   0.04    -0.00   0.00  -0.20    -0.00  -0.00   0.01
   8   6    -0.17   0.03  -0.04    -0.03  -0.01   0.11    -0.00  -0.00  -0.02
   9   6     0.23   0.11   0.10     0.03  -0.02  -0.22    -0.03  -0.02  -0.00
  10   6     0.25  -0.05  -0.04     0.03  -0.03  -0.14    -0.01  -0.06  -0.03
  11   1     0.11   0.02  -0.05     0.06   0.00  -0.06     0.18  -0.10  -0.44
  12   1    -0.06  -0.05   0.27    -0.00  -0.02   0.06     0.01  -0.16  -0.03
  13   1     0.12   0.01  -0.06     0.04  -0.01  -0.01    -0.16  -0.25   0.38
  14   1    -0.09   0.00  -0.05     0.01  -0.01  -0.04    -0.09  -0.16  -0.39
  15   1    -0.10   0.00  -0.05     0.04  -0.02   0.01     0.12  -0.25   0.33
  16   1     0.12   0.01  -0.02    -0.02  -0.03   0.38     0.04  -0.03  -0.07
  17   1     0.11   0.01   0.04    -0.05  -0.02   0.42     0.04   0.01  -0.06
  18   1    -0.08  -0.04  -0.03    -0.01  -0.01   0.02     0.01  -0.00  -0.01
  19   1     0.13  -0.05   0.07     0.03   0.01  -0.16     0.01  -0.00   0.01
  20   1    -0.08   0.20  -0.05    -0.01   0.02   0.00    -0.01   0.00   0.03
  21   1     0.10   0.01   0.05    -0.05  -0.03   0.31    -0.03   0.00   0.00
  22   1     0.10   0.01  -0.02    -0.02  -0.03   0.30    -0.03  -0.04   0.04
                     19                     20                     21
                        a                      a                      a 
 Frequencies --   838.1082               857.6943               872.6280
 Red. masses --     9.5267                 3.5923                 3.8366
 Frc consts  --     0.0000                 0.0000                 0.0000
 IR Inten    --     7.7463                 9.1151                12.9021
 Raman Activ --     0.0000                 0.0000                 0.0000
 Depolar     --     0.0000                 0.0000                 0.0000
 Atom AN      X      Y      Z        X      Y      Z        X      Y      Z
   1   7    -0.17  -0.02   0.06     0.00   0.01   0.01     0.00  -0.01   0.00
   2   6    -0.15   0.01  -0.14     0.00   0.03   0.00     0.00  -0.00  -0.00
   3   6     0.15   0.01   0.03     0.00   0.00  -0.03     0.00   0.00  -0.01
   4   6    -0.05  -0.38  -0.04     0.02   0.00  -0.12    -0.01  -0.01   0.12
   5   6     0.06  -0.38  -0.05     0.03   0.01  -0.19    -0.02  -0.01   0.15
   6   6    -0.07  -0.00   0.01     0.01   0.01  -0.09     0.01   0.01  -0.07
   7   6     0.20   0.10   0.02     0.01   0.00  -0.07     0.02   0.01  -0.15
   8   6     0.16  -0.02   0.03    -0.03  -0.02   0.25    -0.05  -0.03   0.41
   9   6     0.00   0.37   0.01    -0.03  -0.02   0.26     0.01   0.01  -0.11
  10   6    -0.10   0.37   0.02    -0.02  -0.02   0.19     0.01   0.01  -0.10
  11   1     0.09   0.02  -0.04     0.01  -0.01  -0.04    -0.01   0.00   0.02
  12   1    -0.07  -0.05   0.26     0.00  -0.02  -0.02     0.00   0.01  -0.01
  13   1     0.09   0.00  -0.04    -0.03  -0.02   0.04     0.00   0.00  -0.01
  14   1    -0.05  -0.00  -0.04    -0.02  -0.02  -0.03     0.00   0.01   0.01
  15   1    -0.05   0.01  -0.04     0.01  -0.03   0.03    -0.01   0.01  -0.01
  16   1    -0.11  -0.07   0.00    -0.02  -0.02   0.24     0.03   0.02  -0.27
  17   1     0.06  -0.08   0.04    -0.04  -0.03   0.35     0.03   0.02  -0.26
  18   1     0.06   0.03   0.01    -0.01  -0.01   0.11    -0.02  -0.01   0.15
  19   1    -0.13   0.05  -0.02     0.02   0.01  -0.15     0.04   0.02  -0.35
  20   1     0.08  -0.21  -0.01     0.05   0.03  -0.41     0.07   0.04  -0.59
  21   1     0.07   0.07   0.03     0.05   0.04  -0.45    -0.03  -0.02   0.23
  22   1    -0.12   0.05   0.00     0.04   0.03  -0.39    -0.02  -0.01   0.20
                     22                     23                     24
                        a                      a                      a 
 Frequencies --   903.3672               915.3372               958.8768
 Red. masses --     2.9935                 4.1079                 8.0675
 Frc consts  --     0.0000                 0.0000                 0.0000
 IR Inten    --     0.7855                 0.4256                76.4873
 Raman Activ --     0.0000                 0.0000                 0.0000
 Depolar     --     0.0000                 0.0000                 0.0000
 Atom AN      X      Y      Z        X      Y      Z        X      Y      Z
   1   7     0.01   0.00  -0.01     0.01   0.00  -0.00     0.36   0.06  -0.19
   2   6    -0.01  -0.00  -0.00    -0.00  -0.03  -0.01    -0.32  -0.06   0.20
   3   6    -0.00  -0.00   0.00    -0.00  -0.00   0.00    -0.20  -0.02   0.06
   4   6     0.03   0.02  -0.28    -0.03  -0.02   0.23     0.04   0.09  -0.00
   5   6    -0.03  -0.02   0.25     0.02   0.01  -0.19     0.13  -0.30  -0.01
   6   6    -0.00  -0.00   0.01    -0.00  -0.00   0.01    -0.07  -0.01  -0.01
   7   6     0.00   0.00  -0.01     0.00   0.00   0.00     0.01  -0.00   0.01
   8   6     0.00  -0.00   0.02     0.00   0.00  -0.01     0.07   0.02   0.01
   9   6    -0.02  -0.01   0.13    -0.03  -0.02   0.28     0.08   0.33   0.03
  10   6     0.01   0.01  -0.13     0.04   0.03  -0.33     0.04  -0.08  -0.01
  11   1     0.00   0.00   0.00    -0.00   0.00   0.01    -0.14  -0.04   0.03
  12   1    -0.00   0.00   0.01     0.00   0.01   0.00     0.14   0.08  -0.46
  13   1     0.01   0.00  -0.01     0.00   0.01  -0.01    -0.15   0.00   0.04
  14   1    -0.00   0.00   0.00     0.02   0.01   0.02    -0.15  -0.02   0.08
  15   1     0.01   0.00  -0.01    -0.03   0.01  -0.02    -0.15  -0.02   0.08
  16   1    -0.06  -0.05   0.58     0.03   0.03  -0.33    -0.03   0.04   0.01
  17   1     0.06   0.04  -0.49    -0.03  -0.02   0.25    -0.00  -0.11   0.00
  18   1    -0.01  -0.00   0.05    -0.00  -0.00   0.00    -0.01   0.01  -0.01
  19   1    -0.00   0.00  -0.00    -0.00  -0.00   0.03    -0.06   0.03  -0.01
  20   1     0.01  -0.00  -0.04    -0.00  -0.00   0.02     0.03  -0.09   0.00
  21   1     0.04   0.03  -0.32     0.06   0.04  -0.46    -0.01   0.10   0.03
  22   1    -0.04  -0.03   0.35    -0.06  -0.04   0.57    -0.04  -0.05  -0.00
                     25                     26                     27
                        a                      a                      a 
 Frequencies --   980.3717               999.2533              1008.2554
 Red. masses --     2.0066                 7.0613                 9.1245
 Frc consts  --     0.0000                 0.0000                 0.0000
 IR Inten    --    16.2436                 2.6398                11.9639
 Raman Activ --     0.0000                 0.0000                 0.0000
 Depolar     --     0.0000                 0.0000                 0.0000
 Atom AN      X      Y      Z        X      Y      Z        X      Y      Z
   1   7     0.00  -0.00  -0.01     0.13  -0.01  -0.13     0.04  -0.09   0.48
   2   6    -0.01   0.00   0.02    -0.21   0.02   0.13     0.11   0.15  -0.61
   3   6    -0.00   0.00   0.01     0.02   0.05   0.02    -0.07   0.01   0.15
   4   6    -0.00   0.00   0.00    -0.08  -0.38  -0.04    -0.01  -0.02  -0.03
   5   6    -0.00  -0.01   0.02     0.00   0.05   0.00     0.03  -0.08  -0.02
   6   6    -0.00  -0.00   0.02     0.16   0.08   0.03     0.03   0.03   0.01
   7   6     0.03   0.02  -0.28     0.12   0.17   0.03     0.04   0.05   0.01
   8   6     0.01   0.01  -0.10    -0.26  -0.12  -0.04    -0.06  -0.03  -0.01
   9   6     0.00   0.01  -0.03     0.03  -0.20  -0.01     0.00   0.03  -0.01
  10   6     0.00  -0.00  -0.00    -0.08   0.28   0.01     0.00  -0.03  -0.03
  11   1     0.00   0.00  -0.00    -0.05   0.00   0.04    -0.23  -0.06   0.23
  12   1     0.00   0.00  -0.00     0.04   0.05  -0.13     0.05   0.05  -0.24
  13   1     0.00   0.00  -0.01    -0.01   0.03  -0.05    -0.21  -0.02   0.18
  14   1    -0.00  -0.00   0.00    -0.16  -0.04   0.03    -0.08   0.02  -0.11
  15   1     0.00  -0.00   0.00    -0.02  -0.02   0.05     0.01  -0.01  -0.10
  16   1     0.00   0.00  -0.03     0.01  -0.13  -0.01    -0.04   0.01   0.03
  17   1    -0.00  -0.00   0.02     0.13   0.09   0.03     0.00  -0.03   0.02
  18   1    -0.09  -0.05   0.77     0.24  -0.04   0.02     0.07  -0.01   0.02
  19   1    -0.06  -0.04   0.54     0.31  -0.14   0.03     0.08  -0.04   0.02
  20   1     0.01   0.01  -0.09    -0.13   0.34   0.01    -0.03   0.08   0.01
  21   1    -0.01  -0.00   0.05     0.11  -0.10   0.01    -0.03   0.02   0.03
  22   1    -0.00  -0.00  -0.00     0.08   0.15   0.02    -0.01  -0.02   0.02
                     28                     29                     30
                        a                      a                      a 
 Frequencies --  1019.9770              1032.7930              1143.5789
 Red. masses --     6.0654                 4.6663                 3.1046
 Frc consts  --     0.0000                 0.0000                 0.0000
 IR Inten    --    16.2299                 9.5329                 0.2683
 Raman Activ --     0.0000                 0.0000                 0.0000
 Depolar     --     0.0000                 0.0000                 0.0000
 Atom AN      X      Y      Z        X      Y      Z        X      Y      Z
   1   7     0.09   0.10   0.07    -0.04   0.19   0.04     0.00  -0.04  -0.01
   2   6    -0.12  -0.19  -0.13     0.09  -0.38  -0.05     0.00   0.09   0.01
   3   6     0.03  -0.09   0.07    -0.01  -0.08   0.00     0.01  -0.16  -0.01
   4   6     0.05  -0.16  -0.02    -0.08   0.16  -0.01     0.05   0.10   0.02
   5   6    -0.03   0.33   0.02    -0.05  -0.11  -0.01    -0.09   0.12  -0.00
   6   6    -0.06  -0.10  -0.01     0.09  -0.01   0.01     0.11  -0.21  -0.00
   7   6    -0.12  -0.14  -0.03     0.10   0.12   0.02     0.03   0.01   0.00
   8   6     0.13   0.10   0.02    -0.14  -0.07  -0.02    -0.06  -0.00  -0.01
   9   6     0.05  -0.17  -0.02     0.04   0.12   0.01     0.08   0.16   0.02
  10   6    -0.02   0.32   0.02     0.00   0.03   0.01    -0.12   0.12  -0.01
  11   1    -0.02  -0.04  -0.09     0.13  -0.03  -0.26    -0.02   0.01   0.05
  12   1     0.05  -0.03  -0.17    -0.00  -0.12   0.02    -0.00   0.02   0.01
  13   1    -0.14  -0.07   0.17    -0.08  -0.12   0.22     0.01   0.02  -0.04
  14   1     0.11   0.05   0.05     0.40   0.11   0.09    -0.05  -0.02  -0.03
  15   1    -0.30   0.03  -0.03    -0.37   0.07  -0.07     0.05  -0.01   0.03
  16   1     0.19  -0.13   0.03    -0.14   0.10   0.01     0.40  -0.16   0.03
  17   1     0.10   0.16   0.03    -0.14  -0.11  -0.03    -0.39  -0.21  -0.06
  18   1    -0.21   0.03  -0.01     0.16  -0.02   0.02     0.02  -0.00   0.00
  19   1    -0.21   0.10  -0.01     0.18  -0.08   0.02     0.01  -0.01   0.00
  20   1     0.07  -0.22  -0.01    -0.07   0.21   0.00    -0.04   0.12   0.00
  21   1     0.21  -0.14   0.03     0.01   0.04   0.01     0.37  -0.12   0.03
  22   1     0.10   0.16   0.02    -0.02   0.00  -0.02    -0.43  -0.23  -0.06
                     31                     32                     33
                        a                      a                      a 
 Frequencies --  1190.6384              1214.9978              1217.6067
 Red. masses --     2.1198                 5.3095                 3.3536
 Frc consts  --     0.0000                 0.0000                 0.0000
 IR Inten    --     3.0713                 1.5541                16.0829
 Raman Activ --     0.0000                 0.0000                 0.0000
 Depolar     --     0.0000                 0.0000                 0.0000
 Atom AN      X      Y      Z        X      Y      Z        X      Y      Z
   1   7    -0.00  -0.01   0.01     0.02  -0.00  -0.03    -0.02   0.29   0.05
   2   6     0.04   0.01   0.01    -0.17  -0.00  -0.04     0.01  -0.25  -0.04
   3   6    -0.09  -0.01  -0.02     0.39   0.00   0.07     0.01   0.17   0.01
   4   6     0.03  -0.11  -0.00    -0.01  -0.04  -0.01     0.03  -0.06   0.01
   5   6    -0.03  -0.06  -0.01     0.03   0.17   0.02    -0.05  -0.05  -0.01
   6   6     0.18  -0.03   0.02     0.34  -0.14   0.03     0.00   0.04   0.00
   7   6    -0.04  -0.06  -0.01    -0.03  -0.09  -0.01    -0.01  -0.01  -0.00
   8   6    -0.02  -0.01  -0.00    -0.07  -0.02  -0.01     0.00   0.01   0.00
   9   6    -0.06   0.10   0.00    -0.01  -0.06  -0.01     0.05  -0.05   0.00
  10   6     0.03   0.14   0.02     0.05   0.11   0.01    -0.01  -0.05  -0.01
  11   1     0.01  -0.00   0.00    -0.02  -0.00   0.01     0.05  -0.02  -0.23
  12   1     0.00   0.00  -0.01     0.00   0.00  -0.01     0.01  -0.12  -0.03
  13   1     0.01   0.01  -0.02    -0.02  -0.00   0.01    -0.05  -0.08   0.20
  14   1     0.05   0.01  -0.01    -0.17  -0.04   0.01    -0.39  -0.03   0.40
  15   1     0.03  -0.01   0.02    -0.18  -0.00   0.03     0.39   0.15  -0.38
  16   1     0.40  -0.22   0.03    -0.30   0.14  -0.02     0.14  -0.08   0.00
  17   1    -0.34  -0.24  -0.06    -0.07  -0.01  -0.01     0.02   0.01   0.00
  18   1    -0.13   0.03  -0.01    -0.35   0.10  -0.04    -0.00  -0.00   0.00
  19   1    -0.03   0.01  -0.00    -0.03   0.00  -0.00    -0.00   0.00  -0.00
  20   1    -0.02   0.08   0.00    -0.04   0.10   0.00     0.00  -0.01  -0.00
  21   1    -0.46   0.24  -0.03    -0.36   0.16  -0.03    -0.07   0.03  -0.01
  22   1     0.37   0.28   0.06    -0.30  -0.19  -0.05    -0.11  -0.09  -0.01
                     34                     35                     36
                        a                      a                      a 
 Frequencies --  1252.5814              1283.8936              1305.1055
 Red. masses --     5.9283                 5.7005                 8.0791
 Frc consts  --     0.0000                 0.0000                 0.0000
 IR Inten    --     7.2757                 2.7236                 1.6441
 Raman Activ --     0.0000                 0.0000                 0.0000
 Depolar     --     0.0000                 0.0000                 0.0000
 Atom AN      X      Y      Z        X      Y      Z        X      Y      Z
   1   7    -0.01  -0.01   0.02     0.00  -0.03  -0.04     0.00   0.04  -0.01
   2   6     0.14   0.00   0.04    -0.05  -0.01  -0.05    -0.05   0.02  -0.02
   3   6    -0.36  -0.03  -0.07     0.26   0.18   0.07     0.19  -0.33   0.00
   4   6    -0.22   0.07  -0.02     0.03   0.14   0.01    -0.05   0.13   0.01
   5   6     0.11  -0.03   0.01    -0.22  -0.06  -0.03     0.10   0.17   0.02
   6   6     0.15  -0.34  -0.01    -0.33  -0.16  -0.05    -0.25  -0.23  -0.05
   7   6     0.09   0.10   0.02     0.07   0.18   0.02     0.13   0.26   0.03
   8   6    -0.08  -0.12  -0.02     0.03  -0.04   0.00     0.04  -0.22  -0.01
   9   6     0.05   0.17   0.02    -0.04  -0.12  -0.02    -0.34   0.14  -0.03
  10   6    -0.01   0.10   0.01     0.21  -0.01   0.02     0.21   0.00   0.02
  11   1     0.02   0.00   0.00    -0.02   0.00   0.03    -0.01  -0.01  -0.03
  12   1    -0.00   0.01  -0.00    -0.01   0.02   0.03     0.00  -0.03   0.01
  13   1     0.02   0.01  -0.01    -0.02   0.01  -0.02    -0.01  -0.01   0.03
  14   1     0.16   0.03  -0.04    -0.04  -0.00   0.00    -0.23  -0.05   0.08
  15   1     0.14   0.01  -0.03    -0.28  -0.03   0.11     0.08   0.00  -0.03
  16   1     0.15  -0.09   0.01     0.39  -0.14   0.04    -0.09   0.08  -0.01
  17   1     0.44   0.26   0.07     0.16   0.13   0.03    -0.13  -0.05  -0.02
  18   1    -0.34   0.16  -0.03     0.24  -0.04   0.03    -0.18   0.15  -0.01
  19   1     0.13  -0.08   0.01     0.15  -0.06   0.02     0.23  -0.13   0.02
  20   1    -0.02  -0.00  -0.00     0.04  -0.13  -0.00     0.03  -0.07  -0.00
  21   1    -0.07   0.10  -0.00    -0.30   0.10  -0.03     0.14  -0.08   0.01
  22   1    -0.14  -0.05  -0.02    -0.16  -0.15  -0.03     0.27   0.14   0.04
                     37                     38                     39
                        a                      a                      a 
 Frequencies --  1316.5745              1324.3319              1365.3986
 Red. masses --     6.6668                 4.8692                 2.8804
 Frc consts  --     0.0000                 0.0000                 0.0000
 IR Inten    --     2.9749                38.6683               300.0618
 Raman Activ --     0.0000                 0.0000                 0.0000
 Depolar     --     0.0000                 0.0000                 0.0000
 Atom AN      X      Y      Z        X      Y      Z        X      Y      Z
   1   7     0.01   0.01   0.04     0.04  -0.04   0.22    -0.25  -0.07   0.25
   2   6    -0.08   0.00   0.03    -0.44  -0.05   0.10     0.13   0.02  -0.04
   3   6     0.02  -0.23  -0.03     0.19   0.06  -0.03    -0.02  -0.00   0.02
   4   6    -0.22   0.08  -0.02     0.09  -0.01   0.01    -0.01   0.00  -0.00
   5   6     0.21   0.15   0.04    -0.09   0.01  -0.01     0.01  -0.00   0.00
   6   6     0.08  -0.35  -0.02    -0.10   0.05  -0.01     0.01  -0.00   0.00
   7   6    -0.07  -0.17  -0.02     0.03   0.08   0.01    -0.00  -0.01   0.00
   8   6    -0.05   0.25   0.01     0.02  -0.07  -0.00    -0.00   0.00  -0.00
   9   6    -0.18   0.09  -0.01     0.01  -0.07  -0.00    -0.01   0.01  -0.00
  10   6     0.18   0.15   0.03     0.03  -0.00   0.01     0.00  -0.01  -0.00
  11   1     0.00  -0.02  -0.03     0.04  -0.07  -0.12     0.43   0.04  -0.26
  12   1     0.01  -0.01  -0.04     0.04   0.05  -0.22     0.03   0.11  -0.53
  13   1     0.00   0.02  -0.00     0.02   0.12  -0.11     0.40   0.11  -0.25
  14   1     0.02  -0.01  -0.04     0.44   0.06  -0.32    -0.17  -0.04   0.08
  15   1     0.18   0.03  -0.09     0.38   0.10  -0.27    -0.17  -0.02   0.08
  16   1    -0.06   0.02  -0.01     0.00   0.01  -0.00    -0.01   0.00   0.01
  17   1     0.08   0.05   0.01    -0.06  -0.02  -0.01     0.01   0.00   0.00
  18   1     0.53  -0.26   0.05    -0.07   0.05  -0.01     0.00  -0.00   0.00
  19   1    -0.19   0.13  -0.02     0.08  -0.04   0.00    -0.01   0.00  -0.00
  20   1    -0.02   0.05  -0.00     0.01  -0.04  -0.00    -0.00   0.00   0.00
  21   1    -0.14   0.07  -0.01    -0.05   0.00  -0.01     0.01  -0.01   0.00
  22   1    -0.01   0.00   0.00    -0.05  -0.04  -0.02    -0.00  -0.00   0.01
                     40                     41                     42
                        a                      a                      a 
 Frequencies --  1385.8715              1403.8368              1408.0468
 Red. masses --     1.5092                 2.1889                 3.5578
 Frc consts  --     0.0000                 0.0000                 0.0000
 IR Inten    --   114.8946                68.1059                35.1661
 Raman Activ --     0.0000                 0.0000                 0.0000
 Depolar     --     0.0000                 0.0000                 0.0000
 Atom AN      X      Y      Z        X      Y      Z        X      Y      Z
   1   7     0.02  -0.18  -0.04    -0.11   0.02  -0.14    -0.06   0.01  -0.08
   2   6     0.00  -0.05  -0.01    -0.06  -0.01   0.01    -0.10  -0.00  -0.00
   3   6    -0.00   0.00  -0.00    -0.06  -0.00  -0.01     0.12   0.01   0.01
   4   6    -0.01  -0.01  -0.00    -0.02  -0.06  -0.01     0.08   0.08   0.02
   5   6     0.01   0.00   0.00     0.09   0.05   0.01    -0.15  -0.05  -0.02
   6   6    -0.00   0.00   0.00     0.04   0.04   0.01    -0.16  -0.07  -0.02
   7   6    -0.00  -0.00  -0.00    -0.17   0.05  -0.02     0.31  -0.07   0.03
   8   6     0.00   0.00  -0.00    -0.01   0.05   0.00     0.03  -0.12  -0.00
   9   6    -0.01   0.00  -0.00     0.03  -0.06  -0.00    -0.05   0.06  -0.00
  10   6     0.01  -0.00   0.00     0.05   0.07   0.01    -0.03  -0.08  -0.01
  11   1     0.43   0.12  -0.05     0.22   0.30   0.43     0.12   0.17   0.25
  12   1    -0.05   0.71   0.13     0.00   0.02  -0.16     0.00   0.02  -0.09
  13   1    -0.47   0.02   0.09     0.27  -0.39   0.34     0.15  -0.22   0.20
  14   1    -0.03  -0.00   0.05     0.08   0.02  -0.04     0.03   0.01  -0.03
  15   1     0.03   0.01  -0.05     0.08   0.01  -0.05     0.04   0.01  -0.03
  16   1    -0.00  -0.00   0.00    -0.04  -0.00  -0.01     0.06   0.00   0.01
  17   1    -0.01  -0.01  -0.00    -0.10  -0.07  -0.02     0.13   0.10   0.02
  18   1     0.00  -0.00   0.00     0.05  -0.02   0.00    -0.08   0.04  -0.01
  19   1    -0.00   0.00   0.00     0.25  -0.08   0.03    -0.44   0.13  -0.04
  20   1     0.00  -0.00   0.00     0.06  -0.29  -0.01    -0.11   0.52   0.02
  21   1     0.00  -0.00   0.00    -0.05   0.01  -0.01     0.04  -0.01   0.00
  22   1     0.01   0.00  -0.00    -0.06  -0.03  -0.01     0.09   0.04   0.01
                     43                     44                     45
                        a                      a                      a 
 Frequencies --  1415.5373              1474.1744              1483.7336
 Red. masses --     9.8123                 2.0869                 9.4857
 Frc consts  --     0.0000                 0.0000                 0.0000
 IR Inten    --     0.2160                14.4406                 1.4707
 Raman Activ --     0.0000                 0.0000                 0.0000
 Depolar     --     0.0000                 0.0000                 0.0000
 Atom AN      X      Y      Z        X      Y      Z        X      Y      Z
   1   7    -0.00   0.00  -0.00    -0.00   0.00  -0.01     0.01   0.00  -0.00
   2   6    -0.01   0.06  -0.00    -0.17   0.02  -0.22     0.15   0.01   0.06
   3   6     0.05  -0.24  -0.01    -0.02  -0.01  -0.01    -0.39  -0.08  -0.05
   4   6     0.39   0.07   0.05     0.05  -0.04   0.00     0.20  -0.17   0.01
   5   6    -0.40   0.06  -0.04     0.02   0.04   0.00     0.15   0.21   0.03
   6   6     0.04  -0.30  -0.02    -0.08  -0.01  -0.01    -0.45  -0.06  -0.06
   7   6    -0.00   0.03   0.00     0.02   0.02   0.00     0.10   0.12   0.02
   8   6    -0.07   0.09  -0.00     0.02  -0.02   0.00     0.10  -0.14   0.00
   9   6     0.34   0.13   0.05     0.04  -0.04   0.00     0.27  -0.19   0.02
  10   6    -0.41  -0.01  -0.05     0.03   0.05   0.01     0.12   0.24   0.03
  11   1     0.02   0.01   0.00     0.01  -0.01  -0.03    -0.01  -0.01  -0.02
  12   1    -0.00   0.01  -0.01     0.00   0.00  -0.02    -0.00  -0.00   0.02
  13   1    -0.00  -0.01   0.01     0.01   0.02  -0.03    -0.01   0.02  -0.02
  14   1    -0.09  -0.02   0.01     0.23   0.36   0.51    -0.03  -0.06  -0.07
  15   1     0.07  -0.00  -0.01     0.30  -0.45   0.39    -0.02   0.07  -0.06
  16   1    -0.13   0.14  -0.00    -0.06   0.02  -0.00    -0.19   0.07  -0.02
  17   1     0.07   0.14   0.02    -0.03  -0.01  -0.01    -0.17  -0.08  -0.03
  18   1     0.13  -0.05   0.01     0.01   0.00   0.00     0.04   0.03   0.01
  19   1     0.13  -0.03   0.01    -0.02   0.00  -0.00    -0.10   0.00  -0.01
  20   1     0.01  -0.13  -0.01    -0.00   0.03   0.00    -0.00   0.14   0.01
  21   1    -0.09   0.13   0.00    -0.04   0.01  -0.00    -0.23   0.09  -0.02
  22   1     0.14   0.17   0.03    -0.06  -0.03  -0.01    -0.18  -0.07  -0.02
                     46                     47                     48
                        a                      a                      a 
 Frequencies --  1536.4368              1592.5281              1610.4618
 Red. masses --    11.4186                11.2249                11.2330
 Frc consts  --     0.0000                 0.0000                 0.0000
 IR Inten    --     0.3617                 4.4751                 2.1907
 Raman Activ --     0.0000                 0.0000                 0.0000
 Depolar     --     0.0000                 0.0000                 0.0000
 Atom AN      X      Y      Z        X      Y      Z        X      Y      Z
   1   7     0.00   0.00   0.00     0.01   0.00  -0.01    -0.01  -0.00   0.00
   2   6    -0.01   0.05   0.00     0.02  -0.00   0.01    -0.03  -0.00  -0.01
   3   6     0.06  -0.58  -0.04    -0.18   0.02  -0.02     0.21   0.03   0.03
   4   6    -0.16   0.32   0.01     0.33  -0.09   0.03    -0.32   0.07  -0.03
   5   6    -0.15  -0.28  -0.04    -0.31  -0.07  -0.04     0.26   0.08   0.04
   6   6     0.03   0.42   0.04     0.31  -0.05   0.03    -0.01  -0.07  -0.01
   7   6    -0.06  -0.01  -0.01    -0.42   0.26  -0.03    -0.40   0.31  -0.03
   8   6     0.05  -0.04   0.00     0.26  -0.27   0.01     0.30  -0.32   0.01
   9   6     0.16  -0.23   0.00    -0.30   0.07  -0.03     0.31  -0.01   0.04
  10   6     0.09   0.32   0.04     0.28   0.09   0.04    -0.34  -0.14  -0.05
  11   1     0.00   0.00  -0.00    -0.00  -0.00  -0.00     0.00   0.00   0.00
  12   1     0.00   0.00  -0.00     0.00   0.00   0.00    -0.00   0.00  -0.00
  13   1    -0.00  -0.00   0.00    -0.00   0.00  -0.00     0.00  -0.00   0.00
  14   1    -0.09  -0.02   0.01     0.01  -0.00  -0.00    -0.00   0.00   0.00
  15   1     0.08  -0.00  -0.01     0.00   0.00  -0.00    -0.01  -0.00   0.00
  16   1     0.08   0.02   0.01    -0.07   0.05  -0.00     0.06  -0.05   0.00
  17   1     0.12   0.03   0.02     0.06   0.08   0.01    -0.00  -0.03  -0.00
  18   1    -0.05   0.02  -0.00     0.11  -0.01   0.01     0.11   0.00   0.01
  19   1    -0.04   0.01  -0.00    -0.14  -0.01  -0.02    -0.15  -0.02  -0.02
  20   1     0.01   0.01   0.00     0.04   0.10   0.01     0.05   0.12   0.01
  21   1    -0.08   0.01  -0.01     0.06  -0.05   0.00    -0.03   0.05   0.00
  22   1    -0.07   0.02  -0.00    -0.04  -0.05  -0.01     0.06   0.07   0.01
                     49                     50                     51
                        a                      a                      a 
 Frequencies --  2971.7120              2994.4840              3095.4524
 Red. masses --     1.9749                 1.5155                 1.7986
 Frc consts  --     0.0000                 0.0000                 0.0000
 IR Inten    --     1.7372                 6.4860                72.4233
 Raman Activ --     0.0000                 0.0000                 0.0000
 Depolar     --     0.0000                 0.0000                 0.0000
 Atom AN      X      Y      Z        X      Y      Z        X      Y      Z
   1   7     0.00   0.00  -0.00     0.00   0.00  -0.00     0.00  -0.00  -0.00
   2   6     0.02  -0.29  -0.05    -0.10   0.04  -0.18    -0.00   0.00   0.00
   3   6     0.00  -0.01  -0.00    -0.01   0.00  -0.00    -0.00  -0.00  -0.00
   4   6     0.00   0.00   0.00     0.00   0.00   0.00     0.00   0.01   0.00
   5   6    -0.00  -0.00   0.00     0.00  -0.00  -0.00    -0.00  -0.00  -0.00
   6   6    -0.00   0.00   0.00     0.00  -0.00   0.00    -0.00   0.01   0.00
   7   6     0.00   0.00  -0.00    -0.00   0.00  -0.00     0.09   0.25   0.03
   8   6     0.00   0.00   0.00     0.00   0.00   0.00    -0.02  -0.01  -0.00
   9   6     0.00  -0.00  -0.00     0.00   0.00   0.00    -0.01  -0.02  -0.00
  10   6    -0.00   0.00  -0.00     0.00  -0.00   0.00    -0.00   0.00   0.00
  11   1     0.01  -0.01   0.01    -0.00   0.02  -0.01    -0.00   0.00  -0.00
  12   1    -0.00   0.00   0.00    -0.00   0.00  -0.00     0.00  -0.00   0.00
  13   1    -0.00  -0.01  -0.01    -0.00  -0.01  -0.01     0.00   0.00   0.00
  14   1    -0.23   0.53  -0.27     0.25  -0.63   0.27     0.00  -0.00   0.00
  15   1     0.16   0.52   0.46     0.13   0.50   0.40    -0.00  -0.00  -0.00
  16   1    -0.00  -0.00  -0.00    -0.00  -0.00  -0.00    -0.01  -0.02  -0.00
  17   1    -0.00   0.00   0.00    -0.00   0.00  -0.00     0.00  -0.00  -0.00
  18   1    -0.00  -0.00  -0.00     0.00  -0.00  -0.00    -0.33  -0.89  -0.10
  19   1    -0.00  -0.00   0.00     0.00  -0.00  -0.00     0.00   0.03   0.00
  20   1    -0.00   0.00   0.00    -0.00  -0.00  -0.00     0.08   0.01   0.01
  21   1     0.00   0.00  -0.00    -0.00  -0.00  -0.00     0.03   0.07   0.01
  22   1     0.00  -0.00  -0.00    -0.00   0.00  -0.00     0.01  -0.01  -0.00
                     52                     53                     54
                        a                      a                      a 
 Frequencies --  3109.9966              3114.7086              3122.3106
 Red. masses --     1.7785                 1.8064                 1.8788
 Frc consts  --     0.0000                 0.0000                 0.0000
 IR Inten    --    27.8055                48.6236                98.5268
 Raman Activ --     0.0000                 0.0000                 0.0000
 Depolar     --     0.0000                 0.0000                 0.0000
 Atom AN      X      Y      Z        X      Y      Z        X      Y      Z
   1   7     0.00   0.00   0.00     0.00  -0.00   0.00    -0.00  -0.00   0.00
   2   6     0.00  -0.00   0.00     0.00   0.00   0.00    -0.00   0.00   0.00
   3   6     0.01  -0.00   0.00     0.01   0.00   0.00    -0.01  -0.00  -0.00
   4   6    -0.02  -0.03  -0.00     0.11   0.23   0.03    -0.01  -0.02  -0.00
   5   6    -0.01   0.01  -0.00     0.03  -0.05  -0.00    -0.02   0.03  -0.00
   6   6     0.01   0.01   0.00     0.00  -0.00   0.00     0.00   0.00   0.00
   7   6     0.01   0.02   0.00     0.00  -0.00   0.00     0.00   0.01   0.00
   8   6    -0.00  -0.00  -0.00    -0.00   0.00   0.00    -0.00  -0.00  -0.00
   9   6     0.08   0.17   0.02     0.02   0.05   0.01     0.08   0.16   0.02
  10   6     0.10  -0.14  -0.00    -0.00   0.00  -0.00    -0.12   0.17   0.00
  11   1     0.00  -0.00   0.00    -0.00   0.00   0.00    -0.00   0.00  -0.00
  12   1    -0.00  -0.00  -0.00    -0.00  -0.00  -0.00     0.00   0.00   0.00
  13   1    -0.00  -0.00   0.00     0.00   0.00   0.00    -0.00  -0.00  -0.00
  14   1    -0.00   0.00  -0.00     0.00  -0.00   0.00     0.00  -0.00   0.00
  15   1     0.00   0.00   0.00    -0.00  -0.00  -0.00     0.00  -0.00  -0.00
  16   1     0.05   0.11   0.01    -0.39  -0.82  -0.11     0.04   0.08   0.01
  17   1     0.03  -0.04   0.00    -0.14   0.21  -0.00     0.07  -0.10   0.00
  18   1    -0.02  -0.06  -0.01     0.00   0.00   0.00    -0.02  -0.04  -0.00
  19   1     0.00   0.01   0.00    -0.00  -0.01  -0.00     0.00   0.01   0.00
  20   1     0.01   0.00   0.00     0.00   0.00   0.00     0.01   0.00   0.00
  21   1    -0.30  -0.63  -0.09    -0.08  -0.16  -0.02    -0.26  -0.56  -0.08
  22   1    -0.36   0.53   0.00     0.00  -0.00   0.00     0.40  -0.59  -0.00
                     55                     56                     57
                        a                      a                      a 
 Frequencies --  3136.4705              3156.5437              3189.9191
 Red. masses --     1.8519                 1.5791                 2.0274
 Frc consts  --     0.0000                 0.0000                 0.0000
 IR Inten    --    44.1153                52.0602                70.6068
 Raman Activ --     0.0000                 0.0000                 0.0000
 Depolar     --     0.0000                 0.0000                 0.0000
 Atom AN      X      Y      Z        X      Y      Z        X      Y      Z
   1   7    -0.00   0.00   0.00    -0.00  -0.00  -0.00    -0.00   0.00  -0.00
   2   6     0.00  -0.00   0.00     0.00   0.00  -0.00    -0.00  -0.00  -0.00
   3   6    -0.00   0.00  -0.00     0.00  -0.00   0.00    -0.00   0.00   0.00
   4   6    -0.04  -0.08  -0.01     0.00   0.00   0.00    -0.00  -0.00  -0.00
   5   6     0.15  -0.22   0.00    -0.01   0.02  -0.00     0.01  -0.01  -0.00
   6   6     0.01  -0.00   0.00     0.00   0.00   0.00     0.00  -0.00  -0.00
   7   6     0.00   0.00   0.00    -0.00  -0.03  -0.00    -0.02  -0.02  -0.00
   8   6    -0.01   0.02   0.00    -0.21   0.07  -0.02    -0.17  -0.25  -0.04
   9   6     0.01   0.02   0.00    -0.00  -0.00  -0.00    -0.00  -0.00  -0.00
  10   6    -0.01   0.01   0.00     0.00  -0.00   0.00     0.00  -0.00  -0.00
  11   1    -0.00   0.00  -0.00     0.00  -0.00   0.00     0.00  -0.00   0.00
  12   1     0.00   0.00   0.00    -0.00  -0.00  -0.00     0.00  -0.00   0.00
  13   1    -0.00  -0.00  -0.00     0.00   0.00   0.00    -0.00  -0.00   0.00
  14   1     0.00   0.00  -0.00     0.00  -0.00   0.00    -0.00  -0.00   0.00
  15   1     0.00  -0.00  -0.00     0.00   0.00   0.00     0.00   0.00   0.00
  16   1     0.11   0.24   0.03    -0.01  -0.01  -0.00     0.00   0.00   0.00
  17   1    -0.51   0.76  -0.00     0.05  -0.07   0.00    -0.03   0.05  -0.00
  18   1    -0.00  -0.01  -0.00     0.02   0.06   0.01     0.03   0.06   0.01
  19   1    -0.02  -0.08  -0.01    -0.14  -0.38  -0.04     0.24   0.83   0.08
  20   1     0.05   0.01   0.01     0.86   0.17   0.12     0.37   0.04   0.05
  21   1    -0.03  -0.06  -0.01     0.00   0.01   0.00     0.00   0.01   0.00
  22   1     0.03  -0.04  -0.00    -0.01   0.01  -0.00    -0.00   0.00  -0.00
                     58                     59                     60
                        a                      a                      a 
 Frequencies --  3268.5972              3277.5471              3298.2699
 Red. masses --     2.0219                 2.0493                 1.3189
 Frc consts  --     0.0000                 0.0000                 0.0000
 IR Inten    --   209.9899               171.0117                62.2481
 Raman Activ --     0.0000                 0.0000                 0.0000
 Depolar     --     0.0000                 0.0000                 0.0000
 Atom AN      X      Y      Z        X      Y      Z        X      Y      Z
   1   7     0.26   0.01   0.10     0.03  -0.28  -0.05     0.00   0.04  -0.15
   2   6     0.00   0.00   0.00     0.00  -0.01  -0.00     0.00   0.00  -0.01
   3   6    -0.00  -0.00  -0.00     0.00   0.00   0.00     0.00   0.00   0.00
   4   6    -0.00  -0.00  -0.00    -0.00  -0.00   0.00    -0.00  -0.00  -0.00
   5   6     0.00  -0.00   0.00     0.00  -0.00  -0.00     0.00  -0.00  -0.00
   6   6    -0.00   0.00  -0.00    -0.00   0.00   0.00    -0.00  -0.00   0.00
   7   6    -0.00   0.00   0.00    -0.00  -0.00   0.00     0.00   0.00  -0.00
   8   6    -0.00  -0.00  -0.00     0.00  -0.00  -0.00     0.00  -0.00   0.00
   9   6     0.00   0.00   0.00    -0.00  -0.00   0.00     0.00   0.00  -0.00
  10   6    -0.00   0.00  -0.00     0.00  -0.00  -0.00    -0.00   0.00  -0.00
  11   1    -0.06   0.21  -0.08    -0.22   0.56  -0.27     0.22  -0.59   0.25
  12   1    -0.88  -0.05  -0.11    -0.04  -0.03  -0.01    -0.37  -0.02  -0.06
  13   1    -0.04  -0.21  -0.17     0.15   0.51   0.45     0.13   0.46   0.38
  14   1    -0.00   0.00  -0.00    -0.00   0.01  -0.01     0.00  -0.01   0.01
  15   1    -0.00  -0.01  -0.00     0.00   0.01   0.01     0.00   0.01   0.01
  16   1     0.00   0.00   0.00     0.00   0.00  -0.00     0.00   0.00   0.00
  17   1    -0.00   0.00   0.00    -0.00   0.00   0.00    -0.00   0.00  -0.00
  18   1     0.00  -0.00  -0.00     0.00   0.00  -0.00    -0.00  -0.00  -0.00
  19   1     0.00   0.00   0.00     0.00   0.00   0.00     0.00   0.00  -0.00
  20   1     0.00   0.00  -0.00    -0.00   0.00   0.00    -0.00  -0.00  -0.00
  21   1    -0.00  -0.00  -0.00     0.00   0.00  -0.00    -0.00  -0.00  -0.00
  22   1     0.00  -0.00  -0.00    -0.00   0.00  -0.00     0.00  -0.00   0.00
