      -----------------------------------------------------------      
     |                   =====================                   |     
     |                           x T B                           |     
     |                   =====================                   |     
     |                         S. Grimme                         |     
     |          Mulliken Center for Theoretical Chemistry        |     
     |                    University of Bonn                     |     
      -----------------------------------------------------------      

   * xtb version 6.5.1 (fef0646) compiled by 'conda@b96dff2e9fd6' on 2023-01-04

   xtb is free software: you can redistribute it and/or modify it under
   the terms of the GNU Lesser General Public License as published by
   the Free Software Foundation, either version 3 of the License, or
   (at your option) any later version.
   
   xtb is distributed in the hope that it will be useful,
   but WITHOUT ANY WARRANTY; without even the implied warranty of
   MERCHANTABILITY or FITNESS FOR A PARTICULAR PURPOSE.  See the
   GNU Lesser General Public License for more details.
   
   Cite this work as:
   * C. Bannwarth, E. Caldeweyher, S. Ehlert, A. Hansen, P. Pracht,
     J. Seibert, S. Spicher, S. Grimme, WIREs Comput. Mol. Sci., 2020, 11,
     e01493. DOI: 10.1002/wcms.1493
   
   for GFN2-xTB:
   * C. Bannwarth, S. Ehlert and S. Grimme., J. Chem. Theory Comput., 2019,
     15, 1652-1671. DOI: 10.1021/acs.jctc.8b01176
   for GFN1-xTB:
   * S. Grimme, C. Bannwarth, P. Shushkov, J. Chem. Theory Comput., 2017,
     13, 1989-2009. DOI: 10.1021/acs.jctc.7b00118
   for GFN0-xTB:
   * P. Pracht, E. Caldeweyher, S. Ehlert, S. Grimme, ChemRxiv, 2019, preprint.
     DOI: 10.26434/chemrxiv.8326202.v1
   for GFN-FF:
   * S. Spicher and S. Grimme, Angew. Chem. Int. Ed., 2020, 59, 15665-15673.
     DOI: 10.1002/anie.202004239
   
   for ALPB and GBSA implicit solvation:
   * S. Ehlert, M. Stahn, S. Spicher, S. Grimme, J. Chem. Theory Comput.,
     2021, 17, 4250-4261. DOI: 10.1021/acs.jctc.1c00471
   
   for DFT-D4:
   * E. Caldeweyher, C. Bannwarth and S. Grimme, J. Chem. Phys., 2017,
     147, 034112. DOI: 10.1063/1.4993215
   * E. Caldeweyher, S. Ehlert, A. Hansen, H. Neugebauer, S. Spicher,
     C. Bannwarth and S. Grimme, J. Chem. Phys., 2019, 150, 154122.
     DOI: 10.1063/1.5090222
   * E. Caldeweyher, J.-M. Mewes, S. Ehlert and S. Grimme, Phys. Chem. Chem. Phys.
     2020, 22, 8499-8512. DOI: 10.1039/D0CP00502A
   
   for sTDA-xTB:
   * S. Grimme and C. Bannwarth, J. Chem. Phys., 2016, 145, 054103.
     DOI: 10.1063/1.4959605
   
   in the mass-spec context:
   * V. Asgeirsson, C. Bauer and S. Grimme, Chem. Sci., 2017, 8, 4879.
     DOI: 10.1039/c7sc00601b
   * J. Koopman and S. Grimme, ACS Omega 2019, 4, 12, 15120-15133.
     DOI: 10.1021/acsomega.9b02011
   
   for metadynamics refer to:
   * S. Grimme, J. Chem. Theory Comput., 2019, 155, 2847-2862
     DOI: 10.1021/acs.jctc.9b00143
   
   for SPH calculations refer to:
   * S. Spicher and S. Grimme, J. Chem. Theory Comput., 2021, 17, 1701-1714
     DOI: 10.1021/acs.jctc.0c01306
   
   with help from (in alphabetical order)
   P. Atkinson, C. Bannwarth, F. Bohle, G. Brandenburg, E. Caldeweyher
   M. Checinski, S. Dohm, S. Ehlert, S. Ehrlich, I. Gerasimov, C. Hölzer
   A. Katbashev, J. Koopman, C. Lavigne, S. Lehtola, F. März, M. Müller,
   F. Musil, H. Neugebauer, J. Pisarek, C. Plett, P. Pracht, F. Pultar,
   J. Seibert, P. Shushkov, S. Spicher, M. Stahn, M. Steiner, T. Strunk,
   J. Stückrath, T. Rose, and J. Unsleber
   
 * started run on 2023/01/24 at 14:57:32.097     

           -------------------------------------------------
          |                Calculation Setup                |
           -------------------------------------------------

          program call               : xtb init.xyz --opt -c 1 -u 0 -P 16 --alpb water
          hostname                   : gpg-woodward
          coordinate file            : init.xyz
          omp threads                :                    16

   ID    Z sym.   atoms
    1    7 N      1
    2    6 C      2-19
    3   16 S      20-23
    4    1 H      24-39

           -------------------------------------------------
          |                 G F N 2 - x T B                 |
           -------------------------------------------------

        Reference                      10.1021/acs.jctc.8b01176
      * Hamiltonian:
        H0-scaling (s, p, d)           1.850000    2.230000    2.230000
        zeta-weighting                 0.500000
      * Dispersion:
        s8                             2.700000
        a1                             0.520000
        a2                             5.000000
        s9                             5.000000
      * Repulsion:
        kExp                           1.500000    1.000000
        rExp                           1.000000
      * Coulomb:
        alpha                          2.000000
        third order                    shell-resolved
        anisotropic                    true
        a3                             3.000000
        a5                             4.000000
        cn-shift                       1.200000
        cn-exp                         4.000000
        max-rad                        5.000000

      * Solvation model:               ALPB
        Solvent                        water
        Parameter file                 internal GFN2-xTB/ALPB
        Dielectric constant                8.0200E+01
        Reference state                gsolv [1 M gas/solution]
        Free energy shift                  1.0808E-03 Eh       6.7819E-01 kcal/mol
        Temperature                        2.9815E+02 K
        Density                            1.0000E+00 kg/L
        Solvent mass                       1.8000E+01 g/mol
        Interaction kernel             P16
        Born radius scaling (c1)           1.4744E+00
        Born radii integrator          GBOBC
        Born offset                        0.0000E+00 a0       0.0000E+00 AA
        H-bond correction              true
        Ion screening                  false
        Surface tension                    1.0000E-05 Eh       1.5569E+01 dyn/cm
        Grid points                               230 per atom

          ...................................................
          :                      SETUP                      :
          :.................................................:
          :  # basis functions                 132          :
          :  # atomic orbitals                 128          :
          :  # shells                           66          :
          :  # electrons                       116          :
          :  max. iterations                   250          :
          :  Hamiltonian                  GFN2-xTB          :
          :  restarted?                      false          :
          :  GBSA solvation                   true          :
          :  PC potential                    false          :
          :  electronic temp.          300.0000000     K    :
          :  accuracy                    1.0000000          :
          :  -> integral cutoff          0.2500000E+02      :
          :  -> integral neglect         0.1000000E-07      :
          :  -> SCF convergence          0.1000000E-05 Eh   :
          :  -> wf. convergence          0.1000000E-03 e    :
          :  Broyden damping             0.4000000          :
          ...................................................

 iter      E             dE          RMSdq      gap      omega  full diag
   1    -63.0427456 -0.630427E+02  0.400E+00    2.09       0.0  T
   2    -63.1289496 -0.862040E-01  0.236E+00    2.13       1.0  T
   3    -63.1247623  0.418732E-02  0.110E+00    2.14       1.0  T
   4    -63.1343427 -0.958042E-02  0.614E-01    2.13       1.0  T
   5    -63.1398474 -0.550463E-02  0.234E-01    2.13       1.0  T
   6    -63.1401117 -0.264335E-03  0.144E-01    2.13       1.0  T
   7    -63.1402889 -0.177195E-03  0.591E-02    2.13       1.0  T
   8    -63.1403050 -0.161210E-04  0.275E-02    2.13       1.0  T
   9    -63.1403105 -0.548533E-05  0.119E-02    2.13       1.4  T
  10    -63.1403112 -0.715975E-06  0.673E-03    2.13       2.4  T
  11    -63.1403115 -0.278246E-06  0.318E-03    2.13       5.0  T
  12    -63.1403116 -0.135010E-06  0.108E-03    2.13      14.9  T
  13    -63.1403116 -0.620018E-08  0.616E-04    2.13      26.0  T
  14    -63.1403116 -0.489777E-10  0.310E-04    2.13      51.6  T

   *** convergence criteria satisfied after 14 iterations ***

         #    Occupation            Energy/Eh            Energy/eV
      -------------------------------------------------------------
         1        2.0000           -0.7420109             -20.1911
       ...           ...                  ...                  ...
        52        2.0000           -0.4106101             -11.1733
        53        2.0000           -0.4060519             -11.0492
        54        2.0000           -0.4040390             -10.9945
        55        2.0000           -0.4030100             -10.9665
        56        2.0000           -0.4017554             -10.9323
        57        2.0000           -0.3844246             -10.4607
        58        2.0000           -0.3645102              -9.9188 (HOMO)
        59                         -0.2863987              -7.7933 (LUMO)
        60                         -0.2643987              -7.1947
        61                         -0.2397955              -6.5252
        62                         -0.2222737              -6.0484
        63                         -0.2148695              -5.8469
       ...                                ...                  ...
       128                          0.6970013              18.9664
      -------------------------------------------------------------
                  HL-Gap            0.0781115 Eh            2.1255 eV
             Fermi-level           -0.3254544 Eh           -8.8561 eV

 SCC (total)                   0 d,  0 h,  0 min,  0.203 sec
 SCC setup                      ...        0 min,  0.001 sec (  0.382%)
 Dispersion                     ...        0 min,  0.001 sec (  0.498%)
 classical contributions        ...        0 min,  0.000 sec (  0.048%)
 integral evaluation            ...        0 min,  0.005 sec (  2.643%)
 iterations                     ...        0 min,  0.185 sec ( 91.246%)
 molecular gradient             ...        0 min,  0.009 sec (  4.433%)
 printout                       ...        0 min,  0.001 sec (  0.557%)

         :::::::::::::::::::::::::::::::::::::::::::::::::::::
         ::                     SUMMARY                     ::
         :::::::::::::::::::::::::::::::::::::::::::::::::::::
         :: total energy             -62.248883434857 Eh    ::
         :: total w/o Gsasa/hb       -62.241380970490 Eh    ::
         :: gradient norm              0.076715564974 Eh/a0 ::
         :: HOMO-LUMO gap              2.125522303777 eV    ::
         ::.................................................::
         :: SCC energy               -63.140311643884 Eh    ::
         :: -> isotropic ES            0.133031493063 Eh    ::
         :: -> anisotropic ES         -0.026506926128 Eh    ::
         :: -> anisotropic XC          0.032443074816 Eh    ::
         :: -> dispersion             -0.047933324566 Eh    ::
         :: -> Gsolv                  -0.119772254725 Eh    ::
         ::    -> Gelec               -0.112269790359 Eh    ::
         ::    -> Gsasa                0.002206263740 Eh    ::
         ::    -> Ghb                 -0.010789487805 Eh    ::
         ::    -> Gshift               0.001080759698 Eh    ::
         :: repulsion energy           0.892062374938 Eh    ::
         :: add. restraining           0.000000000000 Eh    ::
         :: total charge               1.000000000000 e     ::
         :::::::::::::::::::::::::::::::::::::::::::::::::::::

      ----------------------------------------------------------- 
     |                   =====================                   |
     |                        A N C O P T                        |
     |                   =====================                   |
     |               Approximate Normal Coordinate               |
     |                Rational Function Optimizer                |
      ----------------------------------------------------------- 

          ...................................................
          :                      SETUP                      :
          :.................................................:
          :   optimization level            normal          :
          :   max. optcycles                   200          :
          :   ANC micro-cycles                  20          :
          :   degrees of freedom               111          :
          :.................................................:
          :   RF solver                   davidson          :
          :   write xtbopt.log                true          :
          :   linear?                        false          :
          :   energy convergence         0.5000000E-05 Eh   :
          :   grad. convergence          0.1000000E-02 Eh/α :
          :   maximium RF displ.         1.0000000          :
          :   Hlow (freq-cutoff)         0.1000000E-01      :
          :   Hmax (freq-cutoff)         5.0000000          :
          :   S6 in model hess.         20.0000000          :
          ...................................................

generating ANC from model Hessian ...
Using Lindh-Hessian (1995)
 Shifting diagonal of input Hessian by    9.8276146744020031E-003
 Lowest  eigenvalues of input Hessian
    0.000000    0.000000    0.000000    0.000000    0.000000    0.000000
    0.010000    0.010162    0.010525    0.010873    0.011267    0.011680
    0.012766    0.013551    0.014570    0.015415    0.016281    0.017846
 Highest eigenvalues
    1.811829    1.822813    1.846268    1.891290    1.925621    1.946259


........................................................................
.............................. CYCLE    1 ..............................
........................................................................
   1    -63.1403116 -0.631403E+02  0.119E-04    2.13       0.0  T
   2    -63.1403116 -0.424052E-10  0.817E-05    2.13     196.1  T
   3    -63.1403116 -0.175078E-10  0.643E-05    2.13     249.1  T
     SCC iter.                  ...        0 min,  0.040 sec
     gradient                   ...        0 min,  0.009 sec
 * total energy  :   -62.2488834 Eh     change       -0.1890584E-08 Eh
   gradient norm :     0.0767152 Eh/α   predicted     0.0000000E+00 (-100.00%)
   displ. norm   :     0.2626125 α      lambda       -0.8640586E-02
   maximum displ.:     0.0865195 α      in ANC's #13, #31, #10, ...

........................................................................
.............................. CYCLE    2 ..............................
........................................................................
   1    -63.1779616 -0.631780E+02  0.158E-01    2.07       0.0  T
   2    -63.1780416 -0.800242E-04  0.974E-02    2.07       1.0  T
   3    -63.1780293  0.122810E-04  0.441E-02    2.07       1.0  T
   4    -63.1780551 -0.257343E-04  0.222E-02    2.07       1.0  T
   5    -63.1780622 -0.718701E-05  0.727E-03    2.07       2.2  T
   6    -63.1780627 -0.417585E-06  0.373E-03    2.07       4.3  T
   7    -63.1780628 -0.179945E-06  0.148E-03    2.07      10.8  T
   8    -63.1780628 -0.350119E-08  0.648E-04    2.07      24.7  T
   9    -63.1780628 -0.240814E-08  0.284E-04    2.07      56.3  T
     SCC iter.                  ...        0 min,  0.115 sec
     gradient                   ...        0 min,  0.010 sec
 * total energy  :   -62.2549118 Eh     change       -0.6028380E-02 Eh
   gradient norm :     0.0375208 Eh/α   predicted    -0.4620052E-02 ( -23.36%)
   displ. norm   :     0.2884381 α      lambda       -0.3190371E-02
   maximum displ.:     0.1310675 α      in ANC's #8, #10, #13, ...

........................................................................
.............................. CYCLE    3 ..............................
........................................................................
   1    -63.1970824 -0.631971E+02  0.149E-01    2.00       0.0  T
   2    -63.1971497 -0.673147E-04  0.844E-02    2.01       1.0  T
   3    -63.1971392  0.105670E-04  0.381E-02    2.01       1.0  T
   4    -63.1971562 -0.170165E-04  0.194E-02    2.01       1.0  T
   5    -63.1971623 -0.612790E-05  0.610E-03    2.01       2.6  T
   6    -63.1971625 -0.207002E-06  0.321E-03    2.01       5.0  T
   7    -63.1971627 -0.163758E-06  0.128E-03    2.01      12.5  T
   8    -63.1971627 -0.356260E-08  0.531E-04    2.01      30.1  T
   9    -63.1971627 -0.152678E-08  0.203E-04    2.01      78.9  T
     SCC iter.                  ...        0 min,  0.116 sec
     gradient                   ...        0 min,  0.010 sec
 * total energy  :   -62.2568940 Eh     change       -0.1982176E-02 Eh
   gradient norm :     0.0114443 Eh/α   predicted    -0.1728840E-02 ( -12.78%)
   displ. norm   :     0.2705405 α      lambda       -0.8916490E-03
   maximum displ.:     0.1467649 α      in ANC's #8, #10, #5, ...

........................................................................
.............................. CYCLE    4 ..............................
........................................................................
   1    -63.1974490 -0.631974E+02  0.123E-01    1.96       0.0  T
   2    -63.1974618 -0.127356E-04  0.681E-02    1.96       1.0  T
   3    -63.1974570  0.479497E-05  0.190E-02    1.96       1.0  T
   4    -63.1974617 -0.476620E-05  0.937E-03    1.96       1.7  T
   5    -63.1974636 -0.181508E-05  0.272E-03    1.96       5.9  T
   6    -63.1974636 -0.858678E-08  0.131E-03    1.96      12.2  T
   7    -63.1974636 -0.379480E-07  0.618E-04    1.96      25.9  T
   8    -63.1974636 -0.100190E-08  0.263E-04    1.96      60.8  T
     SCC iter.                  ...        0 min,  0.102 sec
     gradient                   ...        0 min,  0.009 sec
 * total energy  :   -62.2575944 Eh     change       -0.7003901E-03 Eh
   gradient norm :     0.0076089 Eh/α   predicted    -0.4784612E-03 ( -31.69%)
   displ. norm   :     0.4684309 α      lambda       -0.1067623E-02
   maximum displ.:     0.2469067 α      in ANC's #8, #5, #6, ...

........................................................................
.............................. CYCLE    5 ..............................
........................................................................
   1    -63.1912511 -0.631913E+02  0.201E-01    1.90       0.0  T
   2    -63.1912645 -0.134505E-04  0.113E-01    1.90       1.0  T
   3    -63.1912622  0.230628E-05  0.187E-02    1.90       1.0  T
   4    -63.1912644 -0.223905E-05  0.108E-02    1.90       1.5  T
   5    -63.1912666 -0.218118E-05  0.320E-03    1.90       5.0  T
   6    -63.1912667 -0.763455E-07  0.125E-03    1.90      12.8  T
   7    -63.1912667 -0.250589E-07  0.695E-04    1.90      23.0  T
   8    -63.1912667 -0.118269E-08  0.290E-04    1.90      55.3  T
     SCC iter.                  ...        0 min,  0.101 sec
     gradient                   ...        0 min,  0.009 sec
 * total energy  :   -62.2583653 Eh     change       -0.7708882E-03 Eh
   gradient norm :     0.0153950 Eh/α   predicted    -0.6509511E-03 ( -15.56%)
   displ. norm   :     0.4140377 α      lambda       -0.7400267E-03
   maximum displ.:     0.1948005 α      in ANC's #8, #3, #6, ...

........................................................................
.............................. CYCLE    6 ..............................
........................................................................
   1    -63.1863588 -0.631864E+02  0.166E-01    1.86       0.0  T
   2    -63.1863629 -0.415779E-05  0.942E-02    1.86       1.0  T
   3    -63.1863637 -0.792026E-06  0.107E-02    1.86       1.5  T
   4    -63.1863636  0.957779E-07  0.455E-03    1.86       3.5  T
   5    -63.1863640 -0.348440E-06  0.140E-03    1.86      11.4  T
   6    -63.1863640 -0.345381E-07  0.641E-04    1.86      25.0  T
   7    -63.1863640 -0.219254E-08  0.378E-04    1.86      42.4  T
     SCC iter.                  ...        0 min,  0.088 sec
     gradient                   ...        0 min,  0.009 sec
 * total energy  :   -62.2589470 Eh     change       -0.5817664E-03 Eh
   gradient norm :     0.0188103 Eh/α   predicted    -0.4334457E-03 ( -25.49%)
   displ. norm   :     0.4417609 α      lambda       -0.9786611E-03
   maximum displ.:     0.2159332 α      in ANC's #3, #5, #6, ...

........................................................................
.............................. CYCLE    7 ..............................
........................................................................
   1    -63.1855211 -0.631855E+02  0.167E-01    1.86       0.0  T
   2    -63.1855265 -0.537617E-05  0.945E-02    1.85       1.0  T
   3    -63.1855235  0.302013E-05  0.160E-02    1.86       1.0  T
   4    -63.1855273 -0.387175E-05  0.796E-03    1.85       2.0  T
   5    -63.1855281 -0.791102E-06  0.220E-03    1.85       7.3  T
   6    -63.1855282 -0.921691E-07  0.962E-04    1.85      16.6  T
   7    -63.1855282 -0.130097E-07  0.512E-04    1.85      31.3  T
     SCC iter.                  ...        0 min,  0.087 sec
     gradient                   ...        0 min,  0.010 sec
 * total energy  :   -62.2597267 Eh     change       -0.7796661E-03 Eh
   gradient norm :     0.0147872 Eh/α   predicted    -0.5848253E-03 ( -24.99%)
   displ. norm   :     0.4949274 α      lambda       -0.1000023E-02
   maximum displ.:     0.2544382 α      in ANC's #3, #5, #6, ...

........................................................................
.............................. CYCLE    8 ..............................
........................................................................
   1    -63.1887725 -0.631888E+02  0.176E-01    1.85       0.0  T
   2    -63.1887797 -0.714594E-05  0.993E-02    1.85       1.0  T
   3    -63.1887765  0.318518E-05  0.175E-02    1.85       1.0  T
   4    -63.1887802 -0.372094E-05  0.927E-03    1.85       1.7  T
   5    -63.1887816 -0.137848E-05  0.230E-03    1.85       7.0  T
   6    -63.1887817 -0.591379E-07  0.990E-04    1.85      16.2  T
   7    -63.1887817 -0.146732E-07  0.555E-04    1.85      28.8  T
     SCC iter.                  ...        0 min,  0.087 sec
     gradient                   ...        0 min,  0.009 sec
 * total energy  :   -62.2605113 Eh     change       -0.7845654E-03 Eh
   gradient norm :     0.0084404 Eh/α   predicted    -0.6224920E-03 ( -20.66%)
   displ. norm   :     0.5437051 α      lambda       -0.7811019E-03
   maximum displ.:     0.2787617 α      in ANC's #3, #5, #6, ...

........................................................................
.............................. CYCLE    9 ..............................
........................................................................
   1    -63.1917974 -0.631918E+02  0.189E-01    1.84       0.0  T
   2    -63.1918039 -0.648535E-05  0.107E-01    1.83       1.0  T
   3    -63.1918031  0.819402E-06  0.153E-02    1.83       1.0  T
   4    -63.1918041 -0.997378E-06  0.929E-03    1.83       1.7  T
   5    -63.1918057 -0.163264E-05  0.183E-03    1.83       8.7  T
   6    -63.1918057 -0.282394E-07  0.928E-04    1.83      17.2  T
   7    -63.1918057 -0.799791E-08  0.572E-04    1.83      28.0  T
     SCC iter.                  ...        0 min,  0.086 sec
     gradient                   ...        0 min,  0.010 sec
 * total energy  :   -62.2611323 Eh     change       -0.6210444E-03 Eh
   gradient norm :     0.0081394 Eh/α   predicted    -0.5060054E-03 ( -18.52%)
   displ. norm   :     0.5155537 α      lambda       -0.7168599E-03
   maximum displ.:     0.2891591 α      in ANC's #3, #5, #6, ...

........................................................................
.............................. CYCLE   10 ..............................
........................................................................
   1    -63.2008150 -0.632008E+02  0.165E-01    1.84       0.0  T
   2    -63.2008209 -0.590673E-05  0.933E-02    1.84       1.0  T
   3    -63.2008173  0.355913E-05  0.164E-02    1.84       1.0  T
   4    -63.2008222 -0.489194E-05  0.777E-03    1.84       2.1  T
   5    -63.2008228 -0.598996E-06  0.221E-03    1.84       7.2  T
   6    -63.2008229 -0.922208E-07  0.910E-04    1.84      17.6  T
   7    -63.2008229 -0.762331E-08  0.510E-04    1.84      31.4  T
     SCC iter.                  ...        0 min,  0.087 sec
     gradient                   ...        0 min,  0.010 sec
 * total energy  :   -62.2616335 Eh     change       -0.5011951E-03 Eh
   gradient norm :     0.0094422 Eh/α   predicted    -0.4537045E-03 (  -9.48%)
   displ. norm   :     0.7562033 α      lambda       -0.7694549E-03
   maximum displ.:     0.3719340 α      in ANC's #3, #5, #6, ...

........................................................................
.............................. CYCLE   11 ..............................
........................................................................
   1    -63.1890060 -0.631890E+02  0.274E-01    1.77       0.0  T
   2    -63.1890227 -0.167560E-04  0.155E-01    1.77       1.0  T
   3    -63.1890097  0.130757E-04  0.301E-02    1.77       1.0  T
   4    -63.1890281 -0.184653E-04  0.129E-02    1.77       1.2  T
   5    -63.1890291 -0.979025E-06  0.414E-03    1.77       3.9  T
   6    -63.1890294 -0.320180E-06  0.214E-03    1.77       7.5  T
   7    -63.1890294 -0.193900E-07  0.126E-03    1.77      12.7  T
   8    -63.1890295 -0.108533E-07  0.428E-04    1.77      37.4  T
   9    -63.1890295 -0.130247E-08  0.247E-04    1.77      64.9  T
     SCC iter.                  ...        0 min,  0.111 sec
     gradient                   ...        0 min,  0.009 sec
 * total energy  :   -62.2618344 Eh     change       -0.2008743E-03 Eh
   gradient norm :     0.0177812 Eh/α   predicted    -0.6047412E-03 ( 201.05%)
   displ. norm   :     0.1090191 α      lambda       -0.6964855E-03
   maximum displ.:     0.0481815 α      in ANC's #8, #11, #9, ...

........................................................................
.............................. CYCLE   12 ..............................
........................................................................
   1    -63.1988325 -0.631988E+02  0.701E-02    1.80       0.0  T
   2    -63.1988370 -0.443954E-05  0.412E-02    1.80       1.0  T
   3    -63.1988306  0.636203E-05  0.176E-02    1.80       1.0  T
   4    -63.1988393 -0.867684E-05  0.451E-03    1.80       3.6  T
   5    -63.1988393 -0.130106E-07  0.254E-03    1.80       6.3  T
   6    -63.1988394 -0.136462E-06  0.802E-04    1.80      20.0  T
   7    -63.1988394 -0.257725E-08  0.476E-04    1.80      33.6  T
     SCC iter.                  ...        0 min,  0.085 sec
     gradient                   ...        0 min,  0.009 sec
 * total energy  :   -62.2622696 Eh     change       -0.4352076E-03 Eh
   gradient norm :     0.0075668 Eh/α   predicted    -0.3523924E-03 ( -19.03%)
   displ. norm   :     0.3850884 α      lambda       -0.3953304E-03
   maximum displ.:     0.2084996 α      in ANC's #3, #5, #6, ...

........................................................................
.............................. CYCLE   13 ..............................
........................................................................
   1    -63.2011815 -0.632012E+02  0.117E-01    1.80       0.0  T
   2    -63.2011862 -0.470633E-05  0.661E-02    1.80       1.0  T
   3    -63.2011841  0.216741E-05  0.130E-02    1.80       1.2  T
   4    -63.2011868 -0.277081E-05  0.646E-03    1.80       2.5  T
   5    -63.2011874 -0.553103E-06  0.227E-03    1.80       7.0  T
   6    -63.2011875 -0.609918E-07  0.108E-03    1.80      14.8  T
   7    -63.2011875 -0.119958E-07  0.596E-04    1.80      26.8  T
   8    -63.2011875 -0.124670E-08  0.275E-04    1.80      58.2  T
     SCC iter.                  ...        0 min,  0.096 sec
     gradient                   ...        0 min,  0.010 sec
 * total energy  :   -62.2625475 Eh     change       -0.2779533E-03 Eh
   gradient norm :     0.0056521 Eh/α   predicted    -0.2269786E-03 ( -18.34%)
   displ. norm   :     0.6242528 α      lambda       -0.4488610E-03
   maximum displ.:     0.3017377 α      in ANC's #3, #6, #5, ...

........................................................................
.............................. CYCLE   14 ..............................
........................................................................
   1    -63.1972202 -0.631972E+02  0.207E-01    1.78       0.0  T
   2    -63.1972295 -0.925768E-05  0.117E-01    1.78       1.0  T
   3    -63.1972259  0.355637E-05  0.192E-02    1.78       1.0  T
   4    -63.1972306 -0.468103E-05  0.105E-02    1.78       1.5  T
   5    -63.1972322 -0.153753E-05  0.309E-03    1.78       5.2  T
   6    -63.1972323 -0.137221E-06  0.142E-03    1.78      11.2  T
   7    -63.1972323 -0.190003E-07  0.821E-04    1.78      19.5  T
   8    -63.1972323 -0.241052E-08  0.299E-04    1.78      53.5  T
     SCC iter.                  ...        0 min,  0.097 sec
     gradient                   ...        0 min,  0.010 sec
 * total energy  :   -62.2628033 Eh     change       -0.2557860E-03 Eh
   gradient norm :     0.0092516 Eh/α   predicted    -0.3118893E-03 (  21.93%)
   displ. norm   :     0.3200646 α      lambda       -0.2731856E-03
   maximum displ.:     0.1691881 α      in ANC's #5, #6, #3, ...

........................................................................
.............................. CYCLE   15 ..............................
........................................................................
   1    -63.1967312 -0.631967E+02  0.104E-01    1.77       0.0  T
   2    -63.1967342 -0.303574E-05  0.593E-02    1.77       1.0  T
   3    -63.1967316  0.263885E-05  0.125E-02    1.77       1.3  T
   4    -63.1967353 -0.368938E-05  0.483E-03    1.77       3.3  T
   5    -63.1967354 -0.114181E-06  0.197E-03    1.77       8.1  T
   6    -63.1967355 -0.470784E-07  0.108E-03    1.77      14.8  T
   7    -63.1967355 -0.779342E-08  0.630E-04    1.77      25.4  T
   8    -63.1967355 -0.195759E-08  0.212E-04    1.77      75.6  T
     SCC iter.                  ...        0 min,  0.097 sec
     gradient                   ...        0 min,  0.010 sec
 * total energy  :   -62.2629653 Eh     change       -0.1619489E-03 Eh
   gradient norm :     0.0072690 Eh/α   predicted    -0.1505877E-03 (  -7.02%)
   displ. norm   :     0.3049753 α      lambda       -0.2843002E-03
   maximum displ.:     0.1642756 α      in ANC's #6, #7, #5, ...

........................................................................
.............................. CYCLE   16 ..............................
........................................................................
   1    -63.1990949 -0.631991E+02  0.102E-01    1.78       0.0  T
   2    -63.1990976 -0.270548E-05  0.577E-02    1.78       1.0  T
   3    -63.1990952  0.241324E-05  0.126E-02    1.78       1.3  T
   4    -63.1990983 -0.311623E-05  0.520E-03    1.78       3.1  T
   5    -63.1990986 -0.253218E-06  0.182E-03    1.78       8.8  T
   6    -63.1990986 -0.333353E-07  0.838E-04    1.78      19.1  T
   7    -63.1990986 -0.334582E-08  0.542E-04    1.78      29.5  T
     SCC iter.                  ...        0 min,  0.086 sec
     gradient                   ...        0 min,  0.010 sec
 * total energy  :   -62.2631143 Eh     change       -0.1490486E-03 Eh
   gradient norm :     0.0077090 Eh/α   predicted    -0.1553728E-03 (   4.24%)
   displ. norm   :     0.3266078 α      lambda       -0.2033790E-03
   maximum displ.:     0.1828516 α      in ANC's #6, #5, #7, ...

........................................................................
.............................. CYCLE   17 ..............................
........................................................................
   1    -63.1985357 -0.631985E+02  0.109E-01    1.79       0.0  T
   2    -63.1985380 -0.232726E-05  0.615E-02    1.79       1.0  T
   3    -63.1985373  0.746254E-06  0.974E-03    1.79       1.6  T
   4    -63.1985385 -0.119811E-05  0.505E-03    1.79       3.2  T
   5    -63.1985388 -0.303728E-06  0.151E-03    1.79      10.6  T
   6    -63.1985388 -0.372663E-07  0.688E-04    1.79      23.3  T
   7    -63.1985388 -0.309895E-08  0.417E-04    1.79      38.4  T
     SCC iter.                  ...        0 min,  0.085 sec
     gradient                   ...        0 min,  0.009 sec
 * total energy  :   -62.2632255 Eh     change       -0.1111561E-03 Eh
   gradient norm :     0.0074955 Eh/α   predicted    -0.1125374E-03 (   1.24%)
   displ. norm   :     0.3495387 α      lambda       -0.1881106E-03
   maximum displ.:     0.1860416 α      in ANC's #6, #5, #7, ...

........................................................................
.............................. CYCLE   18 ..............................
........................................................................
   1    -63.1969843 -0.631970E+02  0.119E-01    1.78       0.0  T
   2    -63.1969880 -0.364654E-05  0.674E-02    1.78       1.0  T
   3    -63.1969864  0.157653E-05  0.126E-02    1.78       1.3  T
   4    -63.1969886 -0.218453E-05  0.596E-03    1.78       2.7  T
   5    -63.1969890 -0.390481E-06  0.221E-03    1.78       7.2  T
   6    -63.1969891 -0.809859E-07  0.838E-04    1.78      19.1  T
   7    -63.1969891 -0.378683E-08  0.544E-04    1.78      29.4  T
     SCC iter.                  ...        0 min,  0.085 sec
     gradient                   ...        0 min,  0.010 sec
 * total energy  :   -62.2633130 Eh     change       -0.8747658E-04 Eh
   gradient norm :     0.0068374 Eh/α   predicted    -0.1055505E-03 (  20.66%)
   displ. norm   :     0.1519426 α      lambda       -0.1359994E-03
   maximum displ.:     0.0611359 α      in ANC's #6, #1, #2, ...

........................................................................
.............................. CYCLE   19 ..............................
........................................................................
   1    -63.2012033 -0.632012E+02  0.504E-02    1.78       0.0  T
   2    -63.2012048 -0.153286E-05  0.281E-02    1.78       1.0  T
   3    -63.2012043  0.457255E-06  0.638E-03    1.78       2.5  T
   4    -63.2012050 -0.632468E-06  0.299E-03    1.78       5.3  T
   5    -63.2012051 -0.116878E-06  0.114E-03    1.78      14.1  T
   6    -63.2012051 -0.102998E-07  0.543E-04    1.78      29.5  T
   7    -63.2012051 -0.437797E-08  0.331E-04    1.78      48.4  T
     SCC iter.                  ...        0 min,  0.085 sec
     gradient                   ...        0 min,  0.009 sec
 * total energy  :   -62.2633938 Eh     change       -0.8080078E-04 Eh
   gradient norm :     0.0054089 Eh/α   predicted    -0.6957107E-04 ( -13.90%)
   displ. norm   :     0.3558408 α      lambda       -0.1842788E-03
   maximum displ.:     0.2151120 α      in ANC's #6, #5, #1, ...

........................................................................
.............................. CYCLE   20 ..............................
........................................................................
   1    -63.1977108 -0.631977E+02  0.118E-01    1.76       0.0  T
   2    -63.1977142 -0.340451E-05  0.662E-02    1.76       1.0  T
   3    -63.1977135  0.662682E-06  0.110E-02    1.76       1.5  T
   4    -63.1977149 -0.139959E-05  0.570E-03    1.76       2.8  T
   5    -63.1977152 -0.344093E-06  0.206E-03    1.76       7.8  T
   6    -63.1977153 -0.734844E-07  0.938E-04    1.76      17.1  T
   7    -63.1977153 -0.305290E-08  0.588E-04    1.76      27.2  T
     SCC iter.                  ...        0 min,  0.085 sec
     gradient                   ...        0 min,  0.010 sec
 * total energy  :   -62.2634424 Eh     change       -0.4859520E-04 Eh
   gradient norm :     0.0075149 Eh/α   predicted    -0.1038097E-03 ( 113.62%)
   displ. norm   :     0.1406706 α      lambda       -0.1661752E-03
   maximum displ.:     0.0849091 α      in ANC's #3, #8, #9, ...
 * RMSD in coord.:     0.9911579 α      energy gain  -0.1455892E-01 Eh

generating ANC from model Hessian ...
Using Lindh-Hessian (1995)
 Shifting diagonal of input Hessian by    9.8134399874483975E-003
 Lowest  eigenvalues of input Hessian
    0.000000    0.000000    0.000000    0.000000    0.000000    0.000000
    0.010000    0.010289    0.010533    0.010917    0.011133    0.011592
    0.013352    0.014083    0.014837    0.015414    0.016723    0.018809
 Highest eigenvalues
    1.881856    1.907703    1.921381    1.978619    2.017499    2.039335


........................................................................
.............................. CYCLE   21 ..............................
........................................................................
   1    -63.2034957 -0.632035E+02  0.493E-02    1.77       0.0  T
   2    -63.2034973 -0.167740E-05  0.283E-02    1.77       1.0  T
   3    -63.2034956  0.177866E-05  0.953E-03    1.77       1.7  T
   4    -63.2034979 -0.237187E-05  0.270E-03    1.78       5.9  T
   5    -63.2034980 -0.358234E-07  0.122E-03    1.78      13.1  T
   6    -63.2034980 -0.142211E-07  0.599E-04    1.78      26.7  T
   7    -63.2034980 -0.459794E-08  0.330E-04    1.78      48.5  T
     SCC iter.                  ...        0 min,  0.086 sec
     gradient                   ...        0 min,  0.010 sec
 * total energy  :   -62.2635063 Eh     change       -0.6395608E-04 Eh
   gradient norm :     0.0068418 Eh/α   predicted     0.0000000E+00 (-100.00%)
   displ. norm   :     0.0482965 α      lambda       -0.1033028E-03
   maximum displ.:     0.0183286 α      in ANC's #8, #1, #2, ...

........................................................................
.............................. CYCLE   22 ..............................
........................................................................
   1    -63.2013108 -0.632013E+02  0.246E-02    1.77       0.0  T
   2    -63.2013112 -0.361356E-06  0.140E-02    1.77       1.1  T
   3    -63.2013107  0.453970E-06  0.482E-03    1.77       3.3  T
   4    -63.2013113 -0.597369E-06  0.143E-03    1.77      11.2  T
   5    -63.2013113 -0.465502E-08  0.626E-04    1.77      25.6  T
   6    -63.2013114 -0.699492E-08  0.268E-04    1.77      59.8  T
     SCC iter.                  ...        0 min,  0.073 sec
     gradient                   ...        0 min,  0.009 sec
 * total energy  :   -62.2635798 Eh     change       -0.7344112E-04 Eh
   gradient norm :     0.0026266 Eh/α   predicted    -0.5321135E-04 ( -27.55%)
   displ. norm   :     0.0760298 α      lambda       -0.5650542E-04
   maximum displ.:     0.0285051 α      in ANC's #8, #1, #2, ...

........................................................................
.............................. CYCLE   23 ..............................
........................................................................
   1    -63.1998359 -0.631998E+02  0.292E-02    1.77       0.0  T
   2    -63.1998362 -0.308510E-06  0.165E-02    1.77       1.0  T
   3    -63.1998358  0.430119E-06  0.453E-03    1.77       3.5  T
   4    -63.1998363 -0.547759E-06  0.148E-03    1.77      10.8  T
   5    -63.1998363 -0.861777E-08  0.591E-04    1.77      27.1  T
   6    -63.1998363 -0.770755E-08  0.251E-04    1.77      63.8  T
     SCC iter.                  ...        0 min,  0.073 sec
     gradient                   ...        0 min,  0.010 sec
 * total energy  :   -62.2636187 Eh     change       -0.3891916E-04 Eh
   gradient norm :     0.0016839 Eh/α   predicted    -0.2841761E-04 ( -26.98%)
   displ. norm   :     0.1428915 α      lambda       -0.3745352E-04
   maximum displ.:     0.0580813 α      in ANC's #1, #2, #6, ...

........................................................................
.............................. CYCLE   24 ..............................
........................................................................
   1    -63.1990171 -0.631990E+02  0.508E-02    1.77       0.0  T
   2    -63.1990176 -0.521727E-06  0.285E-02    1.77       1.0  T
   3    -63.1990173  0.392780E-06  0.523E-03    1.77       3.1  T
   4    -63.1990177 -0.487141E-06  0.253E-03    1.77       6.3  T
   5    -63.1990178 -0.809592E-07  0.708E-04    1.77      22.6  T
   6    -63.1990178 -0.108206E-07  0.306E-04    1.77      52.4  T
     SCC iter.                  ...        0 min,  0.073 sec
     gradient                   ...        0 min,  0.009 sec
 * total energy  :   -62.2636559 Eh     change       -0.3722830E-04 Eh
   gradient norm :     0.0035446 Eh/α   predicted    -0.1899621E-04 ( -48.97%)
   displ. norm   :     0.0922688 α      lambda       -0.3272282E-04
   maximum displ.:     0.0421676 α      in ANC's #1, #2, #6, ...

........................................................................
.............................. CYCLE   25 ..............................
........................................................................
   1    -63.1995012 -0.631995E+02  0.321E-02    1.77       0.0  T
   2    -63.1995013 -0.135929E-06  0.181E-02    1.77       1.0  T
   3    -63.1995013  0.435942E-07  0.270E-03    1.77       5.9  T
   4    -63.1995013 -0.502211E-07  0.157E-03    1.77      10.2  T
   5    -63.1995014 -0.395913E-07  0.286E-04    1.77      56.0  T
   6    -63.1995014 -0.119286E-08  0.158E-04    1.77     101.1  T
     SCC iter.                  ...        0 min,  0.074 sec
     gradient                   ...        0 min,  0.010 sec
 * total energy  :   -62.2636839 Eh     change       -0.2799368E-04 Eh
   gradient norm :     0.0028794 Eh/α   predicted    -0.1650114E-04 ( -41.05%)
   displ. norm   :     0.1978120 α      lambda       -0.5919934E-04
   maximum displ.:     0.0938010 α      in ANC's #1, #2, #6, ...

........................................................................
.............................. CYCLE   26 ..............................
........................................................................
   1    -63.2003313 -0.632003E+02  0.696E-02    1.77       0.0  T
   2    -63.2003319 -0.633764E-06  0.391E-02    1.77       1.0  T
   3    -63.2003317  0.141333E-06  0.575E-03    1.77       2.8  T
   4    -63.2003319 -0.175105E-06  0.333E-03    1.77       4.8  T
   5    -63.2003321 -0.179180E-06  0.575E-04    1.77      27.8  T
   6    -63.2003321 -0.534290E-08  0.329E-04    1.77      48.6  T
     SCC iter.                  ...        0 min,  0.074 sec
     gradient                   ...        0 min,  0.009 sec
 * total energy  :   -62.2637259 Eh     change       -0.4204317E-04 Eh
   gradient norm :     0.0019243 Eh/α   predicted    -0.3076043E-04 ( -26.84%)
   displ. norm   :     0.2185941 α      lambda       -0.2883128E-04
   maximum displ.:     0.1110824 α      in ANC's #1, #2, #4, ...

........................................................................
.............................. CYCLE   27 ..............................
........................................................................
   1    -63.2007976 -0.632008E+02  0.783E-02    1.77       0.0  T
   2    -63.2007985 -0.829505E-06  0.440E-02    1.77       1.0  T
   3    -63.2007984  0.851185E-08  0.594E-03    1.77       2.7  T
   4    -63.2007985 -0.218425E-07  0.344E-03    1.77       4.6  T
   5    -63.2007987 -0.242182E-06  0.596E-04    1.77      26.8  T
   6    -63.2007987 -0.412889E-08  0.362E-04    1.77      44.2  T
     SCC iter.                  ...        0 min,  0.073 sec
     gradient                   ...        0 min,  0.009 sec
 * total energy  :   -62.2637546 Eh     change       -0.2868807E-04 Eh
   gradient norm :     0.0019481 Eh/α   predicted    -0.1472554E-04 ( -48.67%)
   displ. norm   :     0.1240355 α      lambda       -0.2098702E-04
   maximum displ.:     0.0689134 α      in ANC's #1, #2, #4, ...

........................................................................
.............................. CYCLE   28 ..............................
........................................................................
   1    -63.2012645 -0.632013E+02  0.451E-02    1.77       0.0  T
   2    -63.2012649 -0.342693E-06  0.253E-02    1.77       1.0  T
   3    -63.2012648  0.619826E-07  0.389E-03    1.77       4.1  T
   4    -63.2012649 -0.566915E-07  0.233E-03    1.77       6.9  T
   5    -63.2012650 -0.104775E-06  0.464E-04    1.77      34.5  T
   6    -63.2012650 -0.399053E-08  0.225E-04    1.77      71.2  T
     SCC iter.                  ...        0 min,  0.073 sec
     gradient                   ...        0 min,  0.009 sec
 * total energy  :   -62.2637802 Eh     change       -0.2558361E-04 Eh
   gradient norm :     0.0013946 Eh/α   predicted    -0.1056619E-04 ( -58.70%)
   displ. norm   :     0.2461915 α      lambda       -0.3213933E-04
   maximum displ.:     0.1353952 α      in ANC's #1, #4, #2, ...

........................................................................
.............................. CYCLE   29 ..............................
........................................................................
   1    -63.2001449 -0.632001E+02  0.910E-02    1.77       0.0  T
   2    -63.2001461 -0.118523E-05  0.510E-02    1.77       1.0  T
   3    -63.2001461  0.656405E-08  0.723E-03    1.77       2.2  T
   4    -63.2001460  0.772509E-07  0.446E-03    1.77       3.6  T
   5    -63.2001465 -0.431068E-06  0.704E-04    1.77      22.7  T
   6    -63.2001465 -0.778524E-08  0.370E-04    1.77      43.2  T
     SCC iter.                  ...        0 min,  0.073 sec
     gradient                   ...        0 min,  0.010 sec
 * total energy  :   -62.2638159 Eh     change       -0.3566312E-04 Eh
   gradient norm :     0.0019567 Eh/α   predicted    -0.1651269E-04 ( -53.70%)
   displ. norm   :     0.2234486 α      lambda       -0.2653260E-04
   maximum displ.:     0.1282590 α      in ANC's #1, #4, #2, ...

........................................................................
.............................. CYCLE   30 ..............................
........................................................................
   1    -63.1998924 -0.631999E+02  0.778E-02    1.77       0.0  T
   2    -63.1998932 -0.813484E-06  0.434E-02    1.77       1.0  T
   3    -63.1998933 -0.137375E-06  0.580E-03    1.77       2.8  T
   4    -63.1998932  0.176764E-06  0.323E-03    1.77       5.0  T
   5    -63.1998935 -0.280734E-06  0.466E-04    1.77      34.3  T
   6    -63.1998935 -0.122590E-08  0.280E-04    1.77      57.3  T
     SCC iter.                  ...        0 min,  0.073 sec
     gradient                   ...        0 min,  0.010 sec
 * total energy  :   -62.2638459 Eh     change       -0.3000537E-04 Eh
   gradient norm :     0.0020335 Eh/α   predicted    -0.1356969E-04 ( -54.78%)
   displ. norm   :     0.1604493 α      lambda       -0.2480670E-04
   maximum displ.:     0.0934559 α      in ANC's #1, #4, #2, ...

........................................................................
.............................. CYCLE   31 ..............................
........................................................................
   1    -63.1997927 -0.631998E+02  0.556E-02    1.77       0.0  T
   2    -63.1997931 -0.393565E-06  0.312E-02    1.77       1.0  T
   3    -63.1997932 -0.201583E-07  0.412E-03    1.77       3.9  T
   4    -63.1997931  0.888507E-07  0.260E-03    1.77       6.1  T
   5    -63.1997933 -0.190645E-06  0.355E-04    1.77      45.1  T
   6    -63.1997933 -0.612474E-09  0.229E-04    1.77      69.8  T
     SCC iter.                  ...        0 min,  0.073 sec
     gradient                   ...        0 min,  0.010 sec
 * total energy  :   -62.2638666 Eh     change       -0.2072397E-04 Eh
   gradient norm :     0.0018542 Eh/α   predicted    -0.1272704E-04 ( -38.59%)
   displ. norm   :     0.3829845 α      lambda       -0.3793224E-04
   maximum displ.:     0.2256187 α      in ANC's #1, #4, #2, ...

........................................................................
.............................. CYCLE   32 ..............................
........................................................................
   1    -63.1994869 -0.631995E+02  0.127E-01    1.77       0.0  T
   2    -63.1994892 -0.233390E-05  0.713E-02    1.77       1.0  T
   3    -63.1994886  0.612483E-06  0.107E-02    1.77       1.5  T
   4    -63.1994889 -0.313829E-06  0.691E-03    1.77       2.3  T
   5    -63.1994900 -0.105548E-05  0.977E-04    1.77      16.4  T
   6    -63.1994900 -0.617390E-08  0.625E-04    1.77      25.6  T
   7    -63.1994900 -0.229409E-08  0.354E-04    1.77      45.2  T
     SCC iter.                  ...        0 min,  0.084 sec
     gradient                   ...        0 min,  0.010 sec
 * total energy  :   -62.2638958 Eh     change       -0.2920690E-04 Eh
   gradient norm :     0.0014293 Eh/α   predicted    -0.2020360E-04 ( -30.83%)
   displ. norm   :     0.0455679 α      lambda       -0.1067937E-04
   maximum displ.:     0.0261777 α      in ANC's #5, #6, #10, ...

........................................................................
.............................. CYCLE   33 ..............................
........................................................................
   1    -63.2015230 -0.632015E+02  0.182E-02    1.77       0.0  T
   2    -63.2015232 -0.155400E-06  0.103E-02    1.77       1.6  T
   3    -63.2015229  0.293957E-06  0.372E-03    1.77       4.3  T
   4    -63.2015233 -0.375170E-06  0.101E-03    1.77      15.9  T
   5    -63.2015233 -0.150731E-08  0.484E-04    1.77      33.1  T
   6    -63.2015233 -0.503337E-08  0.164E-04    1.77      97.5  T
     SCC iter.                  ...        0 min,  0.073 sec
     gradient                   ...        0 min,  0.010 sec
 * total energy  :   -62.2638994 Eh     change       -0.3556183E-05 Eh
   gradient norm :     0.0018083 Eh/α   predicted    -0.5345116E-05 (  50.30%)
   displ. norm   :     0.0727000 α      lambda       -0.9165932E-05
   maximum displ.:     0.0402615 α      in ANC's #1, #4, #2, ...

........................................................................
.............................. CYCLE   34 ..............................
........................................................................
   1    -63.2010817 -0.632011E+02  0.257E-02    1.77       0.0  T
   2    -63.2010818 -0.130271E-06  0.144E-02    1.77       1.1  T
   3    -63.2010817  0.113648E-06  0.285E-03    1.77       5.6  T
   4    -63.2010818 -0.150284E-06  0.124E-03    1.77      12.9  T
   5    -63.2010819 -0.106306E-07  0.380E-04    1.77      42.1  T
   6    -63.2010819 -0.355997E-08  0.143E-04    1.77     111.7  T
     SCC iter.                  ...        0 min,  0.073 sec
     gradient                   ...        0 min,  0.010 sec
 * total energy  :   -62.2639081 Eh     change       -0.8765737E-05 Eh
   gradient norm :     0.0007022 Eh/α   predicted    -0.4597679E-05 ( -47.55%)
   displ. norm   :     0.0517378 α      lambda       -0.3866801E-05
   maximum displ.:     0.0311019 α      in ANC's #1, #4, #2, ...

........................................................................
.............................. CYCLE   35 ..............................
........................................................................
   1    -63.2007671 -0.632008E+02  0.165E-02    1.77       0.0  T
   2    -63.2007671 -0.570452E-07  0.920E-03    1.77       1.7  T
   3    -63.2007671  0.164316E-07  0.155E-03    1.77      10.3  T
   4    -63.2007671 -0.209991E-07  0.856E-04    1.77      18.7  T
   5    -63.2007671 -0.119747E-07  0.178E-04    1.77      90.1  T
     SCC iter.                  ...        0 min,  0.061 sec
     gradient                   ...        0 min,  0.010 sec
 * total energy  :   -62.2639118 Eh     change       -0.3716587E-05 Eh
   gradient norm :     0.0005123 Eh/α   predicted    -0.1939034E-05 ( -47.83%)
   displ. norm   :     0.0486758 α      lambda       -0.2571895E-05
   maximum displ.:     0.0298644 α      in ANC's #1, #11, #4, ...

   *** GEOMETRY OPTIMIZATION CONVERGED AFTER 35 ITERATIONS ***

------------------------------------------------------------------------
 total energy gain   :        -0.0150284 Eh       -9.4305 kcal/mol
 total RMSD          :         1.1522252 a0        0.6097 Å
 total power (kW/mol):        -1.1273454 (step)  -11.1180 (real)
------------------------------------------------------------------------

 ANCopt (total)                0 d,  0 h,  0 min,  3.549 sec
 optimizer setup                ...        0 min,  0.000 sec (  0.014%)
 model hessian                  ...        0 min,  0.017 sec (  0.477%)
 ANC generation                 ...        0 min,  0.012 sec (  0.345%)
 coordinate transformation      ...        0 min,  0.002 sec (  0.065%)
 single point calculation       ...        0 min,  3.493 sec ( 98.433%)
 optimization log               ...        0 min,  0.007 sec (  0.209%)
 hessian update                 ...        0 min,  0.002 sec (  0.064%)
 rational function              ...        0 min,  0.007 sec (  0.211%)

================
 final structure:
================
39
 xtb: 6.5.1 (fef0646)
N            3.20340020329134       -1.46321776508334        1.69099353536334
C            2.63864611015353       -0.92276451746237        0.43540459086978
C            3.59063192768084        0.09940349517046       -0.19095901001646
C            4.81707996884125       -0.53021658472637       -0.76097272598814
C            5.17841265902372       -0.64892170624602       -2.06877554903296
C            6.40577372620143       -1.31205558578896       -2.25710565935810
C            7.00041113331065       -1.71121492156153       -1.08806527190980
C            8.22703454842974       -2.40607535014776       -0.89334020164525
C            8.82673359275503       -2.76390780099856        0.29173498948675
C           10.03892557361558       -3.43697864203074        0.11613399738071
C           10.38405363930502       -3.60762408713377       -1.20575033842143
C           11.53485307663485       -4.24702977857146       -1.74584233078796
C           12.58266677356015       -4.83493679845529       -1.07386202869834
C           13.55041337110409       -5.37802513132773       -1.92408482917875
C           13.26356635609415       -5.21823447321390       -3.25889705219110
C           14.01949228976210       -5.64644321873621       -4.38742218892448
C           13.72668793008050       -5.49497087317522       -5.71931951561901
C           14.70660102181926       -6.04682420224362       -6.56512027053953
C           15.73470185593844       -6.61372332970638       -5.88085564087191
S           15.53340264727770       -6.48640124193448       -4.17823482806668
S           11.75903614881694       -4.37272073587409       -3.47151531841338
S            9.18479861464385       -2.91763116003975       -2.26036482210810
S            6.03277208075212       -1.24567346693983        0.26854735224118
H            2.58412578356957       -2.17224873442243        2.09748347945549
H            3.34365894015521       -0.70915699294091        2.37268552337325
H            4.12415225980174       -1.88660219933606        1.50284183445156
H            1.68720601551941       -0.43763458307365        0.64870678681191
H            2.46933504825399       -1.73981744428136       -0.26502374956385
H            3.87513192572798        0.84278386788928        0.55461766783512
H            3.07168808857403        0.61515887812406       -0.99783255360550
H            4.58977367616789       -0.27142794634379       -2.88509703387262
H            6.85601975071112       -1.49771787766600       -3.21655235541637
H            8.40536827914091       -2.54362892892416        1.25658163232947
H           10.64853949320851       -3.79028664054269        0.92678620998950
H           12.64872318212178       -4.87108734543010       -0.00243319052738
H           14.44022229648110       -5.87798403141004       -1.58435041039408
H           12.83580389324112       -5.00308119625136       -6.06776920246616
H           14.64907006401713       -6.02336386364929       -7.63792765708212
H           16.60719605421412       -7.10208708551508       -6.26529386488845

 Bond Distances (Angstroems)
 ---------------------------
N1-C2=1.4790         N1-H24=1.0254        N1-H25=1.0262        N1-H26=1.0307        C2-N1=1.4790         C2-C3=1.5308         
C2-H27=1.0891        C2-H28=1.0894        C3-C2=1.5308         C3-C4=1.4918         C3-H29=1.0906        C3-H30=1.0892        
C4-C3=1.4918         C4-C5=1.3620         C4-S23=1.7463        C5-C4=1.3620         C5-C6=1.4077         C5-H31=1.0749        
C6-C5=1.4077         C6-C7=1.3710         C6-H32=1.0760        C7-C6=1.3710         C7-C8=1.4231         C7-S23=1.7302        
C8-C7=1.4231         C8-C9=1.3755         C8-S22=1.7458        C9-C8=1.3755         C9-C10=1.3976        C9-H33=1.0756        
C10-C9=1.3976        C10-C11=1.3768       C10-H34=1.0741       C11-C10=1.3768       C11-C12=1.4230       C11-S22=1.7397       
C12-C11=1.4230       C12-C13=1.3766       C12-S21=1.7447       C13-C12=1.3766       C13-C14=1.3980       C13-H35=1.0741       
C14-C13=1.3980       C14-C15=1.3746       C14-H36=1.0757       C15-C14=1.3746       C15-C16=1.4242       C15-S21=1.7389       
C16-C15=1.4242       C16-C17=1.3721       C16-S20=1.7439       C17-C16=1.3721       C17-C18=1.4072       C17-H37=1.0757       
C18-C17=1.4072       C18-C19=1.3589       C18-H38=1.0746       C19-C18=1.3589       C19-S20=1.7192       C19-H39=1.0712       
S20-C16=1.7439       S20-C19=1.7192       S21-C12=1.7447       S21-C15=1.7389       S22-C8=1.7458        S22-C11=1.7397       
S23-C4=1.7463        S23-C7=1.7302        H24-N1=1.0254        H25-N1=1.0262        H26-N1=1.0307        H27-C2=1.0891        
H28-C2=1.0894        H29-C3=1.0906        H30-C3=1.0892        H31-C5=1.0749        H32-C6=1.0760        H33-C9=1.0756        
H34-C10=1.0741       H35-C13=1.0741       H36-C14=1.0757       H37-C17=1.0757       H38-C18=1.0746       H39-C19=1.0712       
 C  H  Rav=1.0792 sigma=0.0070  Rmin=1.0712  Rmax=1.0906    13
 C  C  Rav=1.4042 sigma=0.0448  Rmin=1.3589  Rmax=1.5308    17
 N  H  Rav=1.0274 sigma=0.0024  Rmin=1.0254  Rmax=1.0307     3
 N  C  Rav=1.4790 sigma=0.0000  Rmin=1.4790  Rmax=1.4790     1
 S  C  Rav=1.7386 sigma=0.0088  Rmin=1.7192  Rmax=1.7463     8

 selected bond angles (degree)
 --------------------
H24-N1-C2=111.01               H25-N1-C2=110.34               H25-N1-H24=109.11              H26-N1-C2=109.65               
H26-N1-H24=109.14              H26-N1-H25=107.52              C3-C2-N1=110.73                H27-C2-N1=109.27               
H27-C2-C3=109.03               H28-C2-N1=109.34               H28-C2-C3=109.53               H28-C2-H27=108.92              
C4-C3-C2=112.69                H29-C3-C2=109.73               H29-C3-C4=109.54               H30-C3-C2=108.84               
H30-C3-C4=107.97               H30-C3-H29=107.94              C5-C4-C3=128.45                S23-C4-C3=121.33               
S23-C4-C5=110.22               C6-C5-C4=113.63                H31-C5-C4=123.60               H31-C5-C6=122.77               
C7-C6-C5=113.66                H32-C6-C5=124.43               H32-C6-C7=121.91               C8-C7-C6=129.25                
S23-C7-C6=110.35               S23-C7-C8=120.41               C9-C8-C7=128.36                S22-C8-C7=120.58               
S22-C8-C9=111.05               C10-C9-C8=113.28               H33-C9-C8=123.28               H33-C9-C10=123.44              
C11-C10-C9=113.44              H34-C10-C9=123.77              H34-C10-C11=122.79             

 selected dihedral angles (degree)
 ---------------------------------
C3-C2-N1-H24=181.96           C3-C2-N1-H25= 60.87           C3-C2-N1-H26=302.63           H27-C2-N1-H24= 61.86          
H27-C2-N1-H25=300.77          H27-C2-N1-H26=182.52          H28-C2-N1-H24=302.73          H28-C2-N1-H25=181.64          
H28-C2-N1-H26= 63.40          C4-C3-C2-N1= 71.04            C4-C3-C2-H27=191.30           C4-C3-C2-H28=310.39           
H29-C3-C2-N1=308.69           H29-C3-C2-H27= 68.95          H29-C3-C2-H28=188.04          H30-C3-C2-N1=190.78           
H30-C3-C2-H27=311.03          H30-C3-C2-H28= 70.13          C5-C4-C3-C2=111.07            C5-C4-C3-H29=233.53           
C5-C4-C3-H30=350.83           S23-C4-C3-C2=291.00           S23-C4-C3-H29= 53.46          S23-C4-C3-H30=170.76          
C6-C5-C4-C3=180.42            C6-C5-C4-S23=  0.48           H31-C5-C4-C3=  0.64           H31-C5-C4-S23=180.71          
C7-C6-C5-C4=  0.04            C7-C6-C5-H31=179.81           H32-C6-C5-C4=180.18           H32-C6-C5-H31=359.96          
C8-C7-C6-C5=179.62            C8-C7-C6-H32=359.47           S23-C7-C6-C5=359.46           S23-C7-C6-H32=179.32          
C9-C8-C7-C6=177.91            C9-C8-C7-S23=358.08           S22-C8-C7-C6=358.10           S22-C8-C7-S23=178.27          
C10-C9-C8-C7=180.29           C10-C9-C8-S22=  0.12          H33-C9-C8-C7=  0.07           H33-C9-C8-S22=179.89          
C11-C10-C9-C8=359.85          C11-C10-C9-H33=180.07         H34-C10-C9-C8=179.85          H34-C10-C9-H33=  0.07         
           -------------------------------------------------
          |                Final Singlepoint                |
           -------------------------------------------------

          ...................................................
          :                      SETUP                      :
          :.................................................:
          :  # basis functions                 132          :
          :  # atomic orbitals                 128          :
          :  # shells                           66          :
          :  # electrons                       116          :
          :  max. iterations                   250          :
          :  Hamiltonian                  GFN2-xTB          :
          :  restarted?                      false          :
          :  GBSA solvation                   true          :
          :  PC potential                    false          :
          :  electronic temp.          300.0000000     K    :
          :  accuracy                    1.0000000          :
          :  -> integral cutoff          0.2500000E+02      :
          :  -> integral neglect         0.1000000E-07      :
          :  -> SCF convergence          0.1000000E-05 Eh   :
          :  -> wf. convergence          0.1000000E-03 e    :
          :  Broyden damping             0.4000000          :
          ...................................................

 iter      E             dE          RMSdq      gap      omega  full diag
   1    -63.2007671 -0.632008E+02  0.785E-05    1.77       0.0  T
   2    -63.2007671 -0.276685E-10  0.509E-05    1.77     314.9  T
   3    -63.2007671 -0.193552E-10  0.338E-05    1.77     473.2  T

   *** convergence criteria satisfied after 3 iterations ***

         #    Occupation            Energy/Eh            Energy/eV
      -------------------------------------------------------------
         1        2.0000           -0.7414567             -20.1761
       ...           ...                  ...                  ...
        52        2.0000           -0.4165957             -11.3361
        53        2.0000           -0.4090017             -11.1295
        54        2.0000           -0.4048257             -11.0159
        55        2.0000           -0.4039605             -10.9923
        56        2.0000           -0.4025348             -10.9535
        57        2.0000           -0.3856907             -10.4952
        58        2.0000           -0.3601625              -9.8005 (HOMO)
        59                         -0.2951025              -8.0301 (LUMO)
        60                         -0.2663820              -7.2486
        61                         -0.2375270              -6.4634
        62                         -0.2320456              -6.3143
        63                         -0.2183254              -5.9409
       ...                                ...                  ...
       128                          0.6993255              19.0296
      -------------------------------------------------------------
                  HL-Gap            0.0650600 Eh            1.7704 eV
             Fermi-level           -0.3276325 Eh           -8.9153 eV

 SCC (total)                   0 d,  0 h,  0 min,  0.054 sec
 SCC setup                      ...        0 min,  0.000 sec (  0.829%)
 Dispersion                     ...        0 min,  0.001 sec (  1.459%)
 classical contributions        ...        0 min,  0.000 sec (  0.112%)
 integral evaluation            ...        0 min,  0.004 sec (  7.858%)
 iterations                     ...        0 min,  0.038 sec ( 69.894%)
 molecular gradient             ...        0 min,  0.009 sec ( 16.980%)
 printout                       ...        0 min,  0.001 sec (  2.279%)

         :::::::::::::::::::::::::::::::::::::::::::::::::::::
         ::                     SUMMARY                     ::
         :::::::::::::::::::::::::::::::::::::::::::::::::::::
         :: total energy             -62.263911846831 Eh    ::
         :: total w/o Gsasa/hb       -62.255924142235 Eh    ::
         :: gradient norm              0.000512327146 Eh/a0 ::
         :: HOMO-LUMO gap              1.770371950706 eV    ::
         ::.................................................::
         :: SCC energy               -63.200767137864 Eh    ::
         :: -> isotropic ES            0.135215097437 Eh    ::
         :: -> anisotropic ES         -0.033934629366 Eh    ::
         :: -> anisotropic XC          0.031623223131 Eh    ::
         :: -> dispersion             -0.048233698805 Eh    ::
         :: -> Gsolv                  -0.122185248732 Eh    ::
         ::    -> Gelec               -0.114197544136 Eh    ::
         ::    -> Gsasa                0.001779825282 Eh    ::
         ::    -> Ghb                 -0.010848289577 Eh    ::
         ::    -> Gshift               0.001080759698 Eh    ::
         :: repulsion energy           0.937558130146 Eh    ::
         :: add. restraining           0.000000000000 Eh    ::
         :: total charge               1.000000000000 e     ::
         :::::::::::::::::::::::::::::::::::::::::::::::::::::

           -------------------------------------------------
          |                Property Printout                |
           -------------------------------------------------

    * Orbital Energies and Occupations

         #    Occupation            Energy/Eh            Energy/eV
      -------------------------------------------------------------
         1        2.0000           -0.7414567             -20.1761
       ...           ...                  ...                  ...
        46        2.0000           -0.4548078             -12.3759
        47        2.0000           -0.4531056             -12.3296
        48        2.0000           -0.4503509             -12.2547
        49        2.0000           -0.4494453             -12.2300
        50        2.0000           -0.4490025             -12.2180
        51        2.0000           -0.4417396             -12.0203
        52        2.0000           -0.4165957             -11.3361
        53        2.0000           -0.4090017             -11.1295
        54        2.0000           -0.4048257             -11.0159
        55        2.0000           -0.4039605             -10.9923
        56        2.0000           -0.4025348             -10.9535
        57        2.0000           -0.3856907             -10.4952
        58        2.0000           -0.3601625              -9.8005 (HOMO)
        59                         -0.2951025              -8.0301 (LUMO)
        60                         -0.2663820              -7.2486
        61                         -0.2375270              -6.4634
        62                         -0.2320456              -6.3143
        63                         -0.2183254              -5.9409
        64                         -0.2103601              -5.7242
        65                         -0.2092570              -5.6942
        66                         -0.1947294              -5.2989
        67                         -0.1877003              -5.1076
        68                         -0.1674824              -4.5574
        69                         -0.1565450              -4.2598
       ...                                ...                  ...
       128                          0.6993255              19.0296
      -------------------------------------------------------------
                  HL-Gap            0.0650600 Eh            1.7704 eV
             Fermi-level           -0.3276325 Eh           -8.9153 eV

     #   Z          covCN         q      C6AA      α(0)
     1   7 N        3.485    -0.164    24.526     7.355
     2   6 C        3.732    -0.041    21.409     6.604
     3   6 C        3.822    -0.096    22.309     6.722
     4   6 C        2.983     0.026    27.405     8.587
     5   6 C        3.110    -0.059    29.305     8.869
     6   6 C        3.121    -0.052    29.111     8.836
     7   6 C        3.018     0.009    27.793     8.648
     8   6 C        3.030     0.023    27.471     8.597
     9   6 C        3.090    -0.057    29.306     8.873
    10   6 C        3.095    -0.054    29.218     8.859
    11   6 C        3.022     0.018    27.580     8.614
    12   6 C        3.025     0.019    27.554     8.610
    13   6 C        3.094    -0.055    29.245     8.863
    14   6 C        3.101    -0.053    29.181     8.852
    15   6 C        3.021     0.018    27.573     8.613
    16   6 C        3.026     0.017    27.612     8.619
    17   6 C        3.107    -0.055    29.211     8.855
    18   6 C        3.107    -0.048    29.033     8.828
    19   6 C        2.940    -0.024    28.596     8.770
    20  16 S        2.325    -0.045   142.903    20.120
    21  16 S        2.380    -0.060   143.556    20.166
    22  16 S        2.370    -0.070   143.966    20.194
    23  16 S        2.377    -0.028   142.194    20.070
    24   1 H        0.859     0.321     0.654     1.267
    25   1 H        0.859     0.315     0.670     1.283
    26   1 H        0.859     0.304     0.703     1.313
    27   1 H        0.925     0.126     1.566     1.957
    28   1 H        0.925     0.116     1.642     2.004
    29   1 H        0.924     0.106     1.731     2.057
    30   1 H        0.925     0.095     1.831     2.116
    31   1 H        0.926     0.050     2.317     2.380
    32   1 H        0.926     0.025     2.654     2.548
    33   1 H        0.926     0.069     2.093     2.262
    34   1 H        0.926     0.045     2.379     2.412
    35   1 H        0.926     0.051     2.309     2.376
    36   1 H        0.926     0.048     2.343     2.394
    37   1 H        0.926     0.047     2.351     2.398
    38   1 H        0.926     0.051     2.313     2.378
    39   1 H        0.926     0.059     2.214     2.327

 Mol. C6AA /au·bohr⁶  :      28465.338780
 Mol. C8AA /au·bohr⁸  :     885168.867783
 Mol. α(0) /au        :        274.600844


Wiberg/Mayer (AO) data.
largest (>0.10) Wiberg bond orders for each atom

 ---------------------------------------------------------------------------
     #   Z sym  total        # sym  WBO       # sym  WBO       # sym  WBO
 ---------------------------------------------------------------------------
     1   7 N    3.649 --     2 C    0.973    25 H    0.885    24 H    0.883
                            26 H    0.874
     2   6 C    3.926 --     3 C    0.994     1 N    0.973    28 H    0.965
                            27 H    0.961
     3   6 C    3.983 --     4 C    1.026     2 C    0.994    30 H    0.958
                            29 H    0.951
     4   6 C    3.921 --     5 C    1.579    23 S    1.143     3 C    1.026
     5   6 C    3.985 --     4 C    1.579     6 C    1.298    31 H    0.962
     6   6 C    3.970 --     7 C    1.510     5 C    1.298    32 H    0.961
     7   6 C    3.955 --     6 C    1.510     8 C    1.166    23 S    1.108
     8   6 C    3.920 --     9 C    1.473     7 C    1.166    22 S    1.116
     9   6 C    3.980 --     8 C    1.473    10 C    1.343    33 H    0.959
    10   6 C    3.970 --    11 C    1.466     9 C    1.343    34 H    0.963
    11   6 C    3.937 --    10 C    1.466    12 C    1.172    22 S    1.125
    12   6 C    3.935 --    13 C    1.466    11 C    1.172    21 S    1.123
    13   6 C    3.971 --    12 C    1.466    14 C    1.343    35 H    0.962
    14   6 C    3.985 --    15 C    1.478    13 C    1.343    36 H    0.960
    15   6 C    3.930 --    14 C    1.478    16 C    1.164    21 S    1.120
    16   6 C    3.950 --    17 C    1.505    15 C    1.164    20 S    1.121
    17   6 C    3.969 --    16 C    1.505    18 C    1.299    37 H    0.961
    18   6 C    3.986 --    19 C    1.605    17 C    1.299    38 H    0.963
    19   6 C    3.922 --    18 C    1.605    20 S    1.191    39 H    0.969
    20  16 S    2.594 --    19 C    1.191    16 C    1.121
    21  16 S    2.562 --    12 C    1.123    15 C    1.120
    22  16 S    2.561 --    11 C    1.125     8 C    1.116
    23  16 S    2.572 --     4 C    1.143     7 C    1.108
    24   1 H    0.897 --     1 N    0.883
    25   1 H    0.901 --     1 N    0.885
    26   1 H    0.908 --     1 N    0.874
    27   1 H    0.983 --     2 C    0.961
    28   1 H    0.986 --     2 C    0.965
    29   1 H    0.987 --     3 C    0.951
    30   1 H    0.991 --     3 C    0.958
    31   1 H    0.997 --     5 C    0.962
    32   1 H    0.999 --     6 C    0.961
    33   1 H    0.995 --     9 C    0.959
    34   1 H    0.998 --    10 C    0.963
    35   1 H    0.997 --    13 C    0.962
    36   1 H    0.997 --    14 C    0.960
    37   1 H    0.998 --    17 C    0.961
    38   1 H    0.997 --    18 C    0.963
    39   1 H    0.996 --    19 C    0.969
 ---------------------------------------------------------------------------

Topologies differ in total number of bonds
Writing topology from bond orders to xtbtopo.mol

molecular dipole:
                 x           y           z       tot (Debye)
 q only:        4.965      -2.094       3.497
   full:        6.136      -2.451       2.808      18.249
molecular quadrupole (traceless):
                xx          xy          yy          xz          yz          zz
 q only:        6.736     -14.278      -9.587      37.644     -15.521       2.851
  q+dip:       36.169     -32.909     -27.601      18.864      -9.234      -8.568
   full:       36.132     -30.873     -25.240      18.412      -9.227     -10.892

           -------------------------------------------------
          |                Geometry Summary                 |
           -------------------------------------------------

      molecular mass/u    :      374.5861510
   center of mass at/Å    :        9.7397286      -3.4018602      -2.0388437
  moments of inertia/u·Å² :        0.5912629E+03   0.8976867E+04   0.9455615E+04
rotational constants/cm⁻¹ :        0.2851123E-01   0.1877897E-02   0.1782817E-02

 * 41 selected distances

     #   Z          #   Z                                           value/Å
     1   7 N        2   6 C                                       1.4790338
     2   6 C        3   6 C                                       1.5308286
     4   6 C        5   6 C                                       1.3619841
     5   6 C        6   6 C                                       1.4077039
     6   6 C        7   6 C                                       1.3709769
     7   6 C        8   6 C                                       1.4231494
     8   6 C        9   6 C                                       1.3755314
     9   6 C       10   6 C                                       1.3975943
    10   6 C       11   6 C                                       1.3768122
    11   6 C       12   6 C                                       1.4229823
    12   6 C       13   6 C                                       1.3766285
    13   6 C       14   6 C                                       1.3979834
    14   6 C       15   6 C                                       1.3746048
    15   6 C       16   6 C                                       1.4242037
    16   6 C       17   6 C                                       1.3720893
    17   6 C       18   6 C                                       1.4071784
    18   6 C       19   6 C                                       1.3588909
    16   6 C       20  16 S                                       1.7439077
    19   6 C       20  16 S                                       1.7192005
    12   6 C       21  16 S                                       1.7447075
    15   6 C       21  16 S                                       1.7388823
     8   6 C       22  16 S                                       1.7457830
    11   6 C       22  16 S                                       1.7396882
     4   6 C       23  16 S                                       1.7463385 (max)
     7   6 C       23  16 S                                       1.7301597
     1   7 N       24   1 H                                       1.0254072 (min)
     1   7 N       25   1 H                                       1.0261502
     1   7 N       26   1 H                                       1.0307473
     2   6 C       27   1 H                                       1.0890764
     2   6 C       28   1 H                                       1.0894227
     3   6 C       29   1 H                                       1.0906142
     3   6 C       30   1 H                                       1.0891976
     5   6 C       31   1 H                                       1.0748853
     6   6 C       32   1 H                                       1.0759787
     9   6 C       33   1 H                                       1.0756397
    10   6 C       34   1 H                                       1.0740637
    13   6 C       35   1 H                                       1.0740718
    14   6 C       36   1 H                                       1.0757037
    17   6 C       37   1 H                                       1.0756613
    18   6 C       38   1 H                                       1.0746051
    19   6 C       39   1 H                                       1.0712321

 * 5 distinct bonds (by element types)

   Z      Z             #   av. dist./Å        max./Å        min./Å
   1 H    6 C          13     1.0792425     1.0906142     1.0712321
   6 C    6 C          16     1.3986964     1.5308286     1.3588909
   1 H    7 N           3     1.0274349     1.0307473     1.0254072
   6 C    7 N           1     1.4790338     1.4790338     1.4790338
   6 C   16 S           8     1.7385834     1.7463385     1.7192005


optimized geometry written to: xtbopt.xyz


           -------------------------------------------------
          | TOTAL ENERGY              -62.263911846831 Eh   |
          | GRADIENT NORM               0.000512327146 Eh/α |
          | HOMO-LUMO GAP               1.770371950706 eV   |
           -------------------------------------------------

------------------------------------------------------------------------
 * finished run on 2023/01/24 at 14:57:35.930     
------------------------------------------------------------------------
 total:
 * wall-time:     0 d,  0 h,  0 min,  3.833 sec
 *  cpu-time:     0 d,  0 h,  9 min,  5.027 sec
 * ratio c/w:   142.196 speedup
 SCF:
 * wall-time:     0 d,  0 h,  0 min,  0.203 sec
 *  cpu-time:     0 d,  0 h,  0 min, 28.850 sec
 * ratio c/w:   142.099 speedup
 ANC optimizer:
 * wall-time:     0 d,  0 h,  0 min,  3.605 sec
 *  cpu-time:     0 d,  0 h,  8 min, 32.838 sec
 * ratio c/w:   142.246 speedup

