 Entering Gaussian System
 *********************************************
 Gaussian 98:
 frequency output generated by the xtb code
 *********************************************
                         Standard orientation:
 --------------------------------------------------------------------
  Center     Atomic     Atomic              Coordinates (Angstroms)
  Number     Number      Type              X           Y           Z
 --------------------------------------------------------------------
    1          7             0       -2.967430    0.817814   -1.072891
    2          6             0       -2.961523   -0.435685   -0.260159
    3          6             0       -2.035879   -0.356758    0.955018
    4          6             0       -0.588529   -0.211446    0.587262
    5          6             0        0.074368    1.004131    0.743608
    6          6             0        1.400127    1.136663    0.388733
    7          6             0        2.099560    0.052769   -0.133907
    8          9             0        3.370670    0.179192   -0.479832
    9          6             0        1.444623   -1.165028   -0.289883
   10          6             0        0.118653   -1.292361    0.066452
   11          1             0       -3.575773    0.728005   -1.893899
   12          1             0       -2.022080    1.038968   -1.404025
   13          1             0       -3.302754    1.610077   -0.514481
   14          1             0       -2.659160   -1.273128   -0.899619
   15          1             0       -3.988544   -0.656259    0.057625
   16          1             0       -2.150441   -1.248246    1.582870
   17          1             0       -2.335592    0.484285    1.588477
   18          1             0       -0.454086    1.847205    1.156388
   19          1             0        1.918463    2.073421    0.509050
   20          1             0        1.996467   -1.998582   -0.691414
   21          1             0       -0.377932   -2.241268   -0.051015
 --------------------------------------------------------------------
     1 basis functions        1 primitive gaussians
     1 alpha electrons        1 beta electrons

 Harmonic frequencies (cm**-1), IR intensities (km*mol⁻¹),
 Raman scattering activities (A**4/amu), Raman depolarization ratios,
 reduced masses (AMU), force constants (mDyne/A) and normal coordinates:
                      1                      2                      3
                        a                      a                      a 
 Frequencies --    43.1128                53.7030               104.9428
 Red. masses --    12.7558                10.9437                 5.9534
 Frc consts  --     0.0000                 0.0000                 0.0000
 IR Inten    --    14.5599                11.6247                11.7285
 Raman Activ --     0.0000                 0.0000                 0.0000
 Depolar     --     0.0000                 0.0000                 0.0000
 Atom AN      X      Y      Z        X      Y      Z        X      Y      Z
   1   7    -0.39  -0.21   0.02    -0.19   0.30   0.31    -0.42   0.05   0.05
   2   6    -0.14  -0.09   0.18    -0.05   0.08  -0.03     0.16  -0.11  -0.20
   3   6     0.07   0.13   0.00     0.04  -0.18  -0.07    -0.00   0.10  -0.09
   4   6     0.02   0.13  -0.18     0.01  -0.10  -0.14     0.04   0.08   0.05
   5   6     0.10   0.08  -0.07    -0.12   0.00  -0.39     0.10   0.04   0.09
   6   6     0.13   0.01   0.03    -0.11   0.05  -0.33     0.11  -0.02   0.09
   7   6     0.08   0.00  -0.02     0.04  -0.00  -0.02     0.05  -0.03   0.05
   8   9     0.25  -0.19   0.44     0.13   0.01   0.29     0.01  -0.11  -0.16
   9   6    -0.02   0.08  -0.23     0.15  -0.09   0.16     0.01  -0.02   0.08
  10   6    -0.05   0.15  -0.31     0.13  -0.13   0.08     0.01   0.04   0.09
  11   1    -0.18  -0.08   0.07    -0.06   0.13   0.08     0.13  -0.12  -0.15
  12   1    -0.13  -0.08  -0.09    -0.06   0.12   0.09    -0.09   0.31   0.27
  13   1    -0.04  -0.03   0.01    -0.06   0.03   0.14    -0.49  -0.12  -0.03
  14   1    -0.06  -0.05   0.07    -0.02   0.07  -0.07     0.19   0.05  -0.09
  15   1    -0.02  -0.03   0.12    -0.00  -0.02   0.00     0.07  -0.20  -0.11
  16   1     0.06   0.06   0.04     0.02  -0.09  -0.07    -0.01   0.05   0.00
  17   1     0.04   0.06  -0.02     0.02  -0.09   0.03    -0.03   0.04  -0.06
  18   1     0.04   0.02  -0.00    -0.06   0.01  -0.17     0.04   0.02   0.03
  19   1     0.06  -0.01   0.05    -0.06   0.04  -0.14     0.04  -0.01   0.03
  20   1    -0.02   0.02  -0.08     0.08  -0.04   0.11    -0.01  -0.01   0.02
  21   1    -0.03   0.06  -0.12     0.07  -0.06   0.07    -0.01   0.02   0.03
                      4                      5                      6
                        a                      a                      a 
 Frequencies --   139.3222               210.2648               290.1016
 Red. masses --     7.7951                 8.1598                11.5016
 Frc consts  --     0.0000                 0.0000                 0.0000
 IR Inten    --    12.9128                 1.8114                12.6559
 Raman Activ --     0.0000                 0.0000                 0.0000
 Depolar     --     0.0000                 0.0000                 0.0000
 Atom AN      X      Y      Z        X      Y      Z        X      Y      Z
   1   7     0.39  -0.07   0.12    -0.09  -0.00  -0.17    -0.12   0.07  -0.16
   2   6     0.09  -0.06   0.12    -0.37   0.24   0.24     0.25   0.13  -0.01
   3   6     0.00  -0.05   0.17    -0.00   0.09  -0.02     0.04   0.24   0.15
   4   6    -0.05   0.03   0.00     0.01  -0.15  -0.15     0.09  -0.21   0.26
   5   6    -0.09   0.07  -0.12     0.02  -0.17  -0.03     0.03  -0.17   0.10
   6   6    -0.10   0.06  -0.17     0.03  -0.12   0.10    -0.10  -0.11  -0.21
   7   6    -0.10   0.04  -0.12     0.11  -0.05   0.07    -0.10  -0.09  -0.24
   8   9    -0.00  -0.11   0.28     0.06   0.29  -0.07    -0.01   0.32   0.30
   9   6    -0.14   0.07  -0.22     0.17  -0.09   0.07    -0.05  -0.11  -0.25
  10   6    -0.12   0.06  -0.15     0.12  -0.14  -0.05     0.01  -0.19   0.08
  11   1     0.40  -0.11  -0.18     0.19  -0.14  -0.19    -0.09  -0.05   0.01
  12   1     0.19   0.11   0.37     0.04   0.05   0.17    -0.07   0.06  -0.14
  13   1    -0.20  -0.07  -0.09    -0.24   0.03  -0.21    -0.04   0.02  -0.05
  14   1     0.04  -0.03   0.06    -0.25  -0.02   0.11     0.15   0.05   0.02
  15   1     0.01   0.01  -0.01    -0.11   0.21   0.16     0.08  -0.03  -0.04
  16   1     0.02  -0.02   0.05    -0.03   0.04   0.01    -0.10   0.13   0.11
  17   1    -0.00  -0.02   0.05     0.09   0.05   0.01     0.05   0.15  -0.04
  18   1    -0.02   0.02  -0.03    -0.01  -0.05  -0.01     0.01  -0.06   0.04
  19   1    -0.03   0.02  -0.05    -0.00  -0.03   0.05    -0.02  -0.03  -0.09
  20   1    -0.04   0.02  -0.07     0.06  -0.02   0.03    -0.03  -0.03  -0.10
  21   1    -0.04   0.02  -0.05     0.05  -0.05  -0.03     0.01  -0.06   0.04
                      7                      8                      9
                        a                      a                      a 
 Frequencies --   327.6586               374.8121               386.9080
 Red. masses --    10.9677                 9.0240                10.1245
 Frc consts  --     0.0000                 0.0000                 0.0000
 IR Inten    --    15.8832                 0.0456                 7.7673
 Raman Activ --     0.0000                 0.0000                 0.0000
 Depolar     --     0.0000                 0.0000                 0.0000
 Atom AN      X      Y      Z        X      Y      Z        X      Y      Z
   1   7     0.15  -0.05   0.28     0.00  -0.01  -0.00    -0.03  -0.01  -0.05
   2   6     0.08  -0.19  -0.01     0.01  -0.00   0.00    -0.13  -0.01  -0.05
   3   6    -0.01   0.27  -0.05     0.00   0.01   0.00    -0.08  -0.27  -0.03
   4   6    -0.06   0.09  -0.26     0.00   0.01  -0.00    -0.05   0.28   0.13
   5   6    -0.01   0.04  -0.20     0.12  -0.11   0.40     0.14   0.19   0.09
   6   6     0.05  -0.21   0.10    -0.11   0.11  -0.39     0.13  -0.23  -0.13
   7   6     0.01  -0.25   0.17    -0.00  -0.01   0.00     0.07  -0.26  -0.19
   8   9    -0.12   0.40  -0.01    -0.00   0.01   0.00     0.13   0.33   0.10
   9   6    -0.01  -0.24   0.09     0.11  -0.12   0.39    -0.09  -0.19  -0.06
  10   6    -0.13  -0.00  -0.17    -0.12   0.12  -0.40    -0.09   0.23   0.18
  11   1     0.02   0.09   0.08     0.00  -0.00  -0.00     0.02  -0.00  -0.03
  12   1     0.04  -0.03   0.08    -0.00   0.00   0.00     0.01  -0.01   0.02
  13   1     0.09  -0.05   0.15    -0.00  -0.00  -0.00    -0.02   0.00  -0.03
  14   1     0.09  -0.03  -0.01     0.01   0.00   0.00    -0.09  -0.01  -0.03
  15   1     0.02  -0.11  -0.05     0.00  -0.00  -0.00    -0.04   0.03   0.00
  16   1     0.01   0.18   0.13    -0.00   0.00   0.00     0.06  -0.19  -0.16
  17   1     0.01   0.18  -0.14     0.00   0.00   0.00    -0.11  -0.21   0.13
  18   1     0.01   0.03  -0.09     0.07  -0.07   0.24     0.12   0.10   0.04
  19   1     0.06  -0.08   0.03    -0.07   0.07  -0.24     0.11  -0.10  -0.06
  20   1    -0.03  -0.09   0.05     0.07  -0.07   0.24    -0.12  -0.13   0.00
  21   1    -0.07   0.02  -0.06    -0.07   0.07  -0.24    -0.08   0.09   0.10
                     10                     11                     12
                        a                      a                      a 
 Frequencies --   400.9313               450.0041               524.3868
 Red. masses --    10.2424                10.8304                 9.0858
 Frc consts  --     0.0000                 0.0000                 0.0000
 IR Inten    --     4.6138                 5.8130                 2.1379
 Raman Activ --     0.0000                 0.0000                 0.0000
 Depolar     --     0.0000                 0.0000                 0.0000
 Atom AN      X      Y      Z        X      Y      Z        X      Y      Z
   1   7     0.09  -0.04   0.18     0.03  -0.03   0.07     0.01   0.03  -0.07
   2   6    -0.29  -0.19  -0.14    -0.07  -0.05  -0.01     0.21   0.10   0.10
   3   6    -0.34   0.17  -0.12     0.23   0.06  -0.27    -0.09  -0.02   0.27
   4   6    -0.17  -0.07   0.08     0.16   0.11  -0.30    -0.27   0.05  -0.32
   5   6     0.05  -0.17   0.13     0.11   0.08   0.21    -0.11  -0.11  -0.09
   6   6     0.01  -0.03  -0.10     0.03   0.10   0.06    -0.02  -0.15   0.18
   7   6     0.15   0.13  -0.27    -0.33   0.10  -0.37     0.01   0.13  -0.39
   8   9     0.36  -0.03  -0.01    -0.30  -0.06   0.19     0.22   0.01  -0.04
   9   6     0.03   0.15  -0.04     0.02  -0.12   0.01     0.00   0.03   0.22
  10   6     0.05   0.02   0.18     0.10  -0.14   0.16    -0.10   0.04  -0.06
  11   1     0.06   0.15   0.00     0.04   0.04  -0.01    -0.04  -0.10   0.02
  12   1     0.07  -0.07   0.13     0.03  -0.02   0.07    -0.03   0.04  -0.10
  13   1     0.08  -0.04   0.12     0.01  -0.02   0.04    -0.02   0.03  -0.06
  14   1    -0.08  -0.05  -0.04    -0.11  -0.04  -0.02     0.20   0.06   0.05
  15   1    -0.10  -0.04  -0.07    -0.00   0.04   0.08     0.04  -0.06  -0.09
  16   1    -0.14   0.16   0.11     0.11   0.04  -0.04     0.02  -0.06   0.01
  17   1    -0.10   0.16  -0.18     0.07   0.03  -0.09    -0.00  -0.06   0.15
  18   1     0.06  -0.05   0.09     0.04  -0.04   0.20     0.02  -0.07   0.12
  19   1    -0.04   0.01   0.01     0.09  -0.03   0.11     0.00  -0.07   0.26
  20   1    -0.01   0.02   0.01     0.08  -0.04   0.12     0.03  -0.06   0.25
  21   1     0.07  -0.03   0.08     0.02  -0.05   0.20     0.05  -0.05   0.12
                     13                     14                     15
                        a                      a                      a 
 Frequencies --   609.4024               673.4468               726.9409
 Red. masses --    11.4526                10.9557                10.4537
 Frc consts  --     0.0000                 0.0000                 0.0000
 IR Inten    --     1.3305                 3.2884                49.9335
 Raman Activ --     0.0000                 0.0000                 0.0000
 Depolar     --     0.0000                 0.0000                 0.0000
 Atom AN      X      Y      Z        X      Y      Z        X      Y      Z
   1   7     0.01   0.01   0.00    -0.02   0.01  -0.02    -0.03   0.03  -0.04
   2   6     0.01   0.01   0.02    -0.07  -0.04  -0.07    -0.17   0.00   0.00
   3   6    -0.00   0.06   0.01    -0.03  -0.04  -0.00    -0.35  -0.01   0.29
   4   6    -0.01   0.10   0.03     0.18  -0.14   0.51    -0.07   0.01  -0.08
   5   6    -0.39   0.22   0.17    -0.01   0.12  -0.28     0.26  -0.05  -0.08
   6   6    -0.37  -0.27   0.04     0.15  -0.03   0.27     0.24   0.13  -0.08
   7   6     0.00  -0.09  -0.04    -0.15   0.11  -0.39    -0.08  -0.02   0.08
   8   9     0.01  -0.16  -0.05    -0.08  -0.01   0.05    -0.39  -0.04   0.10
   9   6     0.38  -0.19  -0.16     0.13  -0.11   0.26     0.27  -0.07  -0.15
  10   6     0.37   0.30  -0.03    -0.03   0.08  -0.29     0.27   0.07  -0.05
  11   1    -0.00  -0.01   0.00     0.01   0.05  -0.02     0.02   0.04  -0.04
  12   1    -0.00   0.00  -0.01     0.01   0.00   0.02     0.03  -0.10   0.02
  13   1    -0.00   0.00  -0.00     0.00  -0.01   0.02     0.05   0.06  -0.05
  14   1     0.01   0.00   0.01    -0.09  -0.03  -0.03     0.20   0.07   0.02
  15   1     0.00   0.00   0.00    -0.02   0.04   0.03    -0.08  -0.16  -0.21
  16   1    -0.02   0.05   0.05    -0.09   0.03   0.04    -0.08  -0.04   0.03
  17   1     0.02   0.06  -0.04    -0.03   0.03  -0.06    -0.09  -0.04   0.13
  18   1    -0.08   0.08   0.05    -0.02   0.06  -0.15     0.11  -0.01   0.02
  19   1    -0.08  -0.09   0.01     0.07  -0.02   0.07     0.13  -0.00   0.00
  20   1     0.08  -0.07  -0.04     0.05  -0.02   0.07     0.14   0.01   0.00
  21   1     0.08   0.10   0.00    -0.03   0.05  -0.15     0.13  -0.01   0.02
                     16                     17                     18
                        a                      a                      a 
 Frequencies --   806.3011               827.9957               864.5626
 Red. masses --     4.3537                 6.2520                 9.5300
 Frc consts  --     0.0000                 0.0000                 0.0000
 IR Inten    --    44.3327                19.7085                30.1998
 Raman Activ --     0.0000                 0.0000                 0.0000
 Depolar     --     0.0000                 0.0000                 0.0000
 Atom AN      X      Y      Z        X      Y      Z        X      Y      Z
   1   7    -0.02  -0.05   0.05    -0.14  -0.00   0.02    -0.03  -0.20   0.18
   2   6    -0.05   0.07   0.07    -0.19   0.04   0.03     0.07   0.20   0.02
   3   6    -0.02   0.13  -0.06     0.07   0.10  -0.02     0.09   0.25  -0.33
   4   6    -0.03   0.05  -0.17     0.20  -0.03   0.13    -0.04  -0.05   0.19
   5   6     0.03  -0.06   0.19    -0.15   0.25   0.02     0.05  -0.28  -0.17
   6   6     0.02  -0.06   0.20    -0.09   0.13  -0.00    -0.05  -0.25  -0.12
   7   6    -0.07   0.08  -0.24     0.01  -0.02   0.07     0.06   0.00   0.03
   8   9     0.04  -0.01   0.04     0.24   0.03  -0.08    -0.23  -0.02   0.05
   9   6     0.05  -0.06   0.18    -0.07  -0.12  -0.09    -0.03   0.25   0.04
  10   6     0.04  -0.09   0.16    -0.13  -0.24  -0.13     0.06   0.28   0.01
  11   1     0.04  -0.02  -0.02     0.11   0.09  -0.11     0.04  -0.07   0.01
  12   1     0.04  -0.16   0.05     0.11  -0.36   0.16     0.04  -0.18   0.09
  13   1     0.06   0.07  -0.07     0.14   0.18  -0.15     0.05   0.03  -0.04
  14   1     0.18   0.09   0.01     0.23   0.16  -0.06     0.09   0.07   0.01
  15   1    -0.00  -0.16  -0.08    -0.02  -0.30  -0.10     0.07  -0.07   0.07
  16   1     0.07  -0.06  -0.14     0.02  -0.03  -0.09     0.01  -0.09  -0.32
  17   1     0.01  -0.07   0.12     0.03  -0.04   0.09     0.02  -0.09   0.11
  18   1    -0.12   0.10  -0.35    -0.06  -0.01   0.15     0.09  -0.08   0.04
  19   1    -0.12   0.10  -0.34     0.04  -0.01   0.13    -0.05  -0.07   0.12
  20   1    -0.09   0.10  -0.33     0.06  -0.06   0.12    -0.03   0.01   0.11
  21   1    -0.09   0.08  -0.33    -0.05  -0.08   0.13     0.10   0.03   0.03
                     19                     20                     21
                        a                      a                      a 
 Frequencies --   871.8537               879.3221               901.7112
 Red. masses --     3.3168                 5.4036                 6.2808
 Frc consts  --     0.0000                 0.0000                 0.0000
 IR Inten    --     1.4620                32.4307                51.2090
 Raman Activ --     0.0000                 0.0000                 0.0000
 Depolar     --     0.0000                 0.0000                 0.0000
 Atom AN      X      Y      Z        X      Y      Z        X      Y      Z
   1   7     0.01  -0.04  -0.01    -0.07   0.26   0.01    -0.15   0.12  -0.35
   2   6     0.00   0.02  -0.02    -0.04  -0.13   0.07    -0.09  -0.21  -0.02
   3   6    -0.01   0.05  -0.01     0.18  -0.34  -0.00     0.26   0.08   0.24
   4   6     0.01  -0.00   0.02    -0.03  -0.00  -0.03     0.02   0.01  -0.02
   5   6     0.05  -0.06   0.19     0.06  -0.11  -0.00    -0.01  -0.11  -0.08
   6   6     0.06  -0.06   0.21     0.01  -0.14  -0.00    -0.05  -0.19   0.02
   7   6     0.00   0.00   0.01     0.03  -0.01  -0.02     0.03   0.01  -0.01
   8   9     0.00  -0.00  -0.00    -0.11  -0.01   0.03    -0.08  -0.01   0.02
   9   6    -0.06   0.06  -0.24    -0.08   0.17   0.04    -0.03   0.13   0.10
  10   6    -0.06   0.04  -0.21     0.00   0.21   0.04     0.01   0.10   0.00
  11   1    -0.01   0.04   0.00     0.07  -0.14  -0.04     0.05   0.52  -0.21
  12   1    -0.00   0.03   0.01     0.04  -0.21  -0.01     0.06  -0.01   0.17
  13   1    -0.01  -0.05   0.05     0.05   0.32  -0.32     0.09  -0.12   0.21
  14   1    -0.00  -0.02   0.03     0.00   0.13  -0.19     0.00  -0.10   0.07
  15   1    -0.00   0.03   0.00     0.02  -0.16   0.04    -0.01  -0.06   0.02
  16   1    -0.01  -0.02  -0.05     0.04   0.14   0.33     0.16  -0.02   0.03
  17   1    -0.00  -0.02   0.05     0.08   0.14  -0.29     0.10  -0.02   0.13
  18   1    -0.12   0.12  -0.38     0.03   0.02  -0.09     0.06  -0.06   0.10
  19   1    -0.12   0.12  -0.40    -0.04  -0.01  -0.07    -0.09   0.00  -0.10
  20   1     0.14  -0.13   0.44    -0.06  -0.00   0.08    -0.07   0.06  -0.09
  21   1     0.12  -0.11   0.39     0.02   0.05   0.04     0.05  -0.00   0.06
                     22                     23                     24
                        a                      a                      a 
 Frequencies --   908.6659               923.5031              1009.8663
 Red. masses --     2.9505                 3.9579                 8.4053
 Frc consts  --     0.0000                 0.0000                 0.0000
 IR Inten    --     2.0705                 0.0381                 4.7507
 Raman Activ --     0.0000                 0.0000                 0.0000
 Depolar     --     0.0000                 0.0000                 0.0000
 Atom AN      X      Y      Z        X      Y      Z        X      Y      Z
   1   7     0.03  -0.04   0.09    -0.00  -0.00  -0.01     0.10  -0.01   0.03
   2   6     0.02   0.06  -0.00     0.00  -0.00   0.00    -0.17   0.01  -0.02
   3   6    -0.06  -0.02  -0.07    -0.00   0.00   0.01    -0.02  -0.01   0.03
   4   6    -0.01  -0.00  -0.00    -0.00  -0.00  -0.00     0.16   0.00  -0.02
   5   6    -0.06   0.08  -0.21    -0.06   0.06  -0.21    -0.03   0.31   0.09
   6   6     0.08  -0.03   0.22     0.06  -0.05   0.20    -0.05  -0.41  -0.11
   7   6    -0.01  -0.00   0.01    -0.00   0.00  -0.00     0.09   0.01  -0.02
   8   9     0.01  -0.00   0.01     0.00   0.00  -0.00    -0.11  -0.01   0.03
   9   6     0.05  -0.06   0.11    -0.08   0.07  -0.26    -0.07   0.41   0.13
  10   6    -0.04   0.03  -0.14     0.08  -0.08   0.28    -0.02  -0.30  -0.08
  11   1    -0.01  -0.13   0.05    -0.00   0.00  -0.00    -0.05  -0.10   0.07
  12   1    -0.01  -0.01  -0.03    -0.00   0.00   0.00    -0.03   0.11  -0.09
  13   1    -0.02   0.04  -0.06     0.00  -0.00   0.00    -0.05  -0.04   0.01
  14   1     0.00   0.03  -0.02    -0.00   0.00  -0.00     0.07   0.02   0.03
  15   1     0.01   0.01   0.00     0.00  -0.00  -0.00    -0.09  -0.02  -0.17
  16   1    -0.04   0.00  -0.01     0.01  -0.00   0.00     0.02   0.00   0.02
  17   1    -0.03   0.01  -0.04    -0.01  -0.00   0.00     0.04   0.00   0.02
  18   1     0.13  -0.14   0.47     0.09  -0.10   0.33     0.15   0.18   0.02
  19   1    -0.13   0.14  -0.48    -0.09   0.09  -0.30     0.16  -0.19  -0.10
  20   1    -0.09   0.09  -0.33     0.13  -0.13   0.44     0.14   0.22   0.02
  21   1     0.10  -0.10   0.36    -0.14   0.13  -0.49     0.15  -0.15  -0.08
                     25                     26                     27
                        a                      a                      a 
 Frequencies --  1027.5022              1041.7352              1081.7926
 Red. masses --     8.0976                 5.3113                 7.2342
 Frc consts  --     0.0000                 0.0000                 0.0000
 IR Inten    --    24.3306                 9.2126                15.2102
 Raman Activ --     0.0000                 0.0000                 0.0000
 Depolar     --     0.0000                 0.0000                 0.0000
 Atom AN      X      Y      Z        X      Y      Z        X      Y      Z
   1   7     0.16   0.37  -0.07     0.19  -0.09   0.01    -0.03  -0.12   0.18
   2   6    -0.11  -0.48   0.24    -0.42   0.11  -0.05    -0.09   0.08  -0.49
   3   6    -0.04   0.28  -0.14     0.21  -0.06  -0.02     0.15   0.17   0.37
   4   6     0.05   0.04   0.12     0.13  -0.06   0.04     0.05   0.13   0.01
   5   6    -0.01  -0.10  -0.05     0.02  -0.11  -0.05     0.02  -0.12  -0.04
   6   6    -0.03  -0.01  -0.01    -0.04   0.08   0.03    -0.06  -0.09  -0.01
   7   6    -0.01   0.03   0.02    -0.01  -0.02  -0.00     0.00   0.07   0.02
   8   9     0.01  -0.00  -0.00     0.03   0.00  -0.01    -0.01  -0.00   0.00
   9   6     0.02  -0.05  -0.03    -0.06  -0.05  -0.00     0.03  -0.05  -0.02
  10   6     0.00  -0.03  -0.03     0.00   0.21   0.05    -0.00  -0.07  -0.02
  11   1    -0.04  -0.16   0.07    -0.09  -0.12   0.11     0.01  -0.16   0.04
  12   1    -0.04   0.19  -0.19    -0.06   0.21  -0.14    -0.01  -0.10  -0.00
  13   1    -0.07   0.14  -0.15    -0.09  -0.14   0.08    -0.01   0.06  -0.08
  14   1     0.01  -0.09   0.04     0.21   0.07   0.07    -0.24   0.04  -0.25
  15   1    -0.06  -0.10   0.00    -0.20  -0.10  -0.40    -0.03   0.13  -0.05
  16   1     0.31  -0.05  -0.15     0.08   0.03   0.07     0.35   0.01   0.10
  17   1    -0.23  -0.12   0.11     0.33   0.05   0.03    -0.21  -0.05   0.10
  18   1    -0.04  -0.07   0.01    -0.07  -0.09   0.01     0.02  -0.03  -0.02
  19   1    -0.07   0.02   0.04    -0.09   0.06   0.05    -0.17   0.05   0.06
  20   1     0.04   0.00   0.01    -0.16  -0.12   0.02     0.11   0.06  -0.02
  21   1     0.01  -0.02   0.02    -0.09   0.10   0.06    -0.09   0.02   0.03
                     28                     29                     30
                        a                      a                      a 
 Frequencies --  1125.0998              1175.8483              1188.3408
 Red. masses --     3.0399                 2.2066                 4.2193
 Frc consts  --     0.0000                 0.0000                 0.0000
 IR Inten    --     3.9920                26.2048                14.6404
 Raman Activ --     0.0000                 0.0000                 0.0000
 Depolar     --     0.0000                 0.0000                 0.0000
 Atom AN      X      Y      Z        X      Y      Z        X      Y      Z
   1   7    -0.01   0.01   0.06     0.01  -0.03  -0.02    -0.02   0.15   0.12
   2   6    -0.01  -0.05  -0.15    -0.02   0.04   0.03     0.00  -0.31  -0.24
   3   6     0.04   0.12   0.12     0.02  -0.01  -0.03     0.10   0.15   0.16
   4   6     0.01  -0.14  -0.05    -0.04  -0.00   0.02    -0.03  -0.11  -0.08
   5   6    -0.11   0.07   0.06    -0.07  -0.15  -0.02     0.02   0.03   0.00
   6   6     0.07   0.13   0.02     0.05  -0.04  -0.03    -0.04   0.03   0.02
   7   6     0.00  -0.13  -0.04    -0.13  -0.01   0.04    -0.04  -0.03   0.00
   8   9     0.00   0.00  -0.00     0.11   0.01  -0.03     0.03   0.00  -0.01
   9   6    -0.08   0.12   0.06     0.04   0.05   0.00     0.03   0.03   0.00
  10   6     0.11   0.09  -0.01    -0.07   0.13   0.05    -0.03   0.07   0.04
  11   1     0.01  -0.05   0.01    -0.01   0.03  -0.00     0.03  -0.13   0.02
  12   1    -0.00  -0.04  -0.01    -0.00   0.02  -0.00    -0.01  -0.07  -0.05
  13   1    -0.00   0.05  -0.05    -0.00  -0.03   0.02    -0.01   0.15  -0.14
  14   1    -0.08  -0.03  -0.05     0.02   0.04  -0.02    -0.13  -0.19   0.02
  15   1    -0.00   0.05   0.01     0.00  -0.03   0.00    -0.01   0.07   0.01
  16   1     0.08  -0.01  -0.02     0.06   0.02   0.03    -0.46  -0.09  -0.22
  17   1    -0.06  -0.03   0.07    -0.03  -0.01  -0.02     0.45   0.03   0.24
  18   1    -0.38  -0.21   0.04    -0.33  -0.25   0.02     0.10   0.07  -0.01
  19   1     0.39  -0.14  -0.15     0.45  -0.23  -0.20     0.06  -0.03  -0.03
  20   1    -0.40  -0.22   0.05     0.42   0.30  -0.04     0.06   0.05  -0.01
  21   1     0.38  -0.14  -0.14    -0.31   0.17   0.14    -0.14   0.09   0.05
                     31                     32                     33
                        a                      a                      a 
 Frequencies --  1208.2081              1244.9291              1261.7832
 Red. masses --     6.2104                 2.7918                 3.6448
 Frc consts  --     0.0000                 0.0000                 0.0000
 IR Inten    --    77.9479                11.2426                 3.3825
 Raman Activ --     0.0000                 0.0000                 0.0000
 Depolar     --     0.0000                 0.0000                 0.0000
 Atom AN      X      Y      Z        X      Y      Z        X      Y      Z
   1   7    -0.04   0.01   0.01     0.22  -0.07  -0.12    -0.04   0.00   0.00
   2   6     0.07  -0.03   0.05    -0.19   0.00   0.06     0.06   0.01   0.02
   3   6    -0.18  -0.02   0.07     0.06   0.08   0.12    -0.08   0.03  -0.04
   4   6     0.45   0.05  -0.16    -0.02  -0.03  -0.05     0.01  -0.13  -0.01
   5   6     0.06   0.06   0.00    -0.02   0.02   0.01    -0.15  -0.12   0.01
   6   6    -0.00  -0.15  -0.04     0.01  -0.00   0.00    -0.05   0.01   0.01
   7   6     0.27   0.02  -0.08     0.07   0.04  -0.01     0.03   0.34   0.09
   8   9    -0.17  -0.02   0.05    -0.05  -0.01   0.01    -0.02  -0.03  -0.00
   9   6     0.00   0.16   0.05     0.04   0.02  -0.00     0.07   0.02  -0.02
  10   6     0.04  -0.04  -0.02     0.02  -0.04  -0.01     0.14  -0.12  -0.08
  11   1     0.01   0.01  -0.01    -0.08   0.02   0.06     0.01  -0.01  -0.01
  12   1     0.00  -0.03   0.02    -0.01   0.18  -0.07     0.00  -0.02   0.03
  13   1     0.02   0.03  -0.01    -0.08  -0.15   0.07     0.03   0.02   0.00
  14   1    -0.01  -0.05   0.05    -0.12   0.33  -0.46    -0.00  -0.02   0.03
  15   1    -0.03   0.08  -0.07     0.16  -0.40   0.40    -0.02   0.06  -0.06
  16   1    -0.26  -0.01  -0.02    -0.23  -0.03  -0.08     0.19   0.01   0.03
  17   1    -0.20  -0.03  -0.02    -0.04  -0.01   0.05    -0.03  -0.02   0.01
  18   1    -0.35  -0.23   0.03     0.02   0.02  -0.00     0.35   0.22  -0.03
  19   1    -0.19   0.05   0.07     0.03  -0.01  -0.02     0.34  -0.17  -0.15
  20   1    -0.18  -0.08   0.03    -0.09  -0.06   0.00    -0.35  -0.25   0.03
  21   1    -0.34   0.16   0.14    -0.08   0.03   0.03    -0.38   0.16   0.16
                     34                     35                     36
                        a                      a                      a 
 Frequencies --  1290.1368              1307.9908              1326.6276
 Red. masses --    10.2108                10.7653                 4.7255
 Frc consts  --     0.0000                 0.0000                 0.0000
 IR Inten    --   135.6538                 3.8325                51.9893
 Raman Activ --     0.0000                 0.0000                 0.0000
 Depolar     --     0.0000                 0.0000                 0.0000
 Atom AN      X      Y      Z        X      Y      Z        X      Y      Z
   1   7     0.01   0.04  -0.00    -0.01  -0.03  -0.02    -0.07  -0.19   0.05
   2   6     0.01   0.01  -0.08     0.06   0.01   0.04     0.10  -0.12   0.29
   3   6     0.01   0.00  -0.09    -0.16   0.05  -0.02     0.28   0.08   0.01
   4   6    -0.35  -0.09   0.12     0.10  -0.43  -0.13    -0.18  -0.04   0.03
   5   6    -0.14   0.17   0.09     0.27   0.17  -0.03    -0.06   0.01   0.02
   6   6     0.20   0.08  -0.04    -0.33   0.17   0.14     0.04   0.06   0.01
   7   6     0.52  -0.02  -0.16    -0.08  -0.40  -0.09     0.14  -0.01  -0.05
   8   9    -0.30  -0.03   0.08     0.05  -0.00  -0.01    -0.07  -0.01   0.02
   9   6     0.23   0.01  -0.07     0.24   0.26   0.00     0.09  -0.02  -0.03
  10   6    -0.19  -0.13   0.02    -0.21   0.15   0.10    -0.09  -0.01   0.02
  11   1    -0.01  -0.04   0.01     0.00   0.01  -0.01     0.06   0.20  -0.08
  12   1     0.01  -0.03   0.01     0.00   0.02   0.02    -0.08   0.16  -0.04
  13   1    -0.01  -0.01   0.01     0.02  -0.00   0.01     0.08   0.10  -0.12
  14   1     0.02  -0.04   0.05    -0.04   0.06  -0.09    -0.13   0.21  -0.32
  15   1     0.05  -0.03   0.09     0.01   0.02   0.01    -0.20   0.25  -0.45
  16   1     0.26   0.03   0.06     0.23   0.01   0.05    -0.17  -0.04  -0.14
  17   1     0.26   0.02   0.08    -0.05  -0.04   0.05    -0.15   0.00  -0.08
  18   1    -0.17  -0.03   0.04     0.12   0.07  -0.01     0.02   0.03  -0.00
  19   1    -0.03   0.07   0.03    -0.02   0.01   0.01     0.04   0.01  -0.01
  20   1     0.04  -0.03  -0.02    -0.01   0.02   0.01     0.03  -0.01  -0.01
  21   1    -0.14  -0.00   0.04    -0.10   0.06   0.05     0.01  -0.02  -0.01
                     37                     38                     39
                        a                      a                      a 
 Frequencies --  1344.6202              1366.0471              1389.9601
 Red. masses --     5.3545                 2.8763                 1.5446
 Frc consts  --     0.0000                 0.0000                 0.0000
 IR Inten    --     2.8932               268.8391               115.6565
 Raman Activ --     0.0000                 0.0000                 0.0000
 Depolar     --     0.0000                 0.0000                 0.0000
 Atom AN      X      Y      Z        X      Y      Z        X      Y      Z
   1   7    -0.04  -0.09  -0.01    -0.06   0.23  -0.26     0.18  -0.02  -0.07
   2   6     0.19  -0.09   0.13     0.06  -0.05   0.12     0.06  -0.02   0.02
   3   6    -0.44   0.01  -0.11     0.06   0.04  -0.01    -0.02   0.00   0.00
   4   6     0.15   0.08   0.03    -0.02  -0.01   0.00     0.00  -0.00   0.00
   5   6    -0.03  -0.00   0.00    -0.02  -0.01   0.01     0.00   0.00  -0.00
   6   6     0.09  -0.08  -0.06     0.02   0.01  -0.00     0.00  -0.00  -0.00
   7   6    -0.09   0.04   0.04     0.02  -0.01  -0.01    -0.01   0.00   0.00
   8   9     0.05   0.01  -0.01    -0.00   0.00   0.00     0.00   0.00  -0.00
   9   6    -0.17  -0.03   0.04    -0.01  -0.01  -0.00    -0.00   0.00   0.00
  10   6     0.14   0.01  -0.04    -0.01   0.02   0.01     0.00   0.00  -0.00
  11   1     0.03   0.07  -0.04    -0.17  -0.51   0.15    -0.50   0.31   0.34
  12   1    -0.02   0.08   0.02     0.19  -0.21   0.40     0.16  -0.24   0.25
  13   1     0.07   0.03  -0.03     0.15  -0.20   0.37    -0.49  -0.00  -0.31
  14   1    -0.19   0.17  -0.34    -0.11   0.08  -0.15    -0.02  -0.01  -0.01
  15   1    -0.01   0.10  -0.07    -0.08   0.07  -0.19    -0.02   0.06  -0.07
  16   1     0.24   0.05   0.10    -0.06   0.00  -0.02     0.02  -0.02  -0.02
  17   1     0.50   0.02   0.24    -0.02  -0.01   0.01     0.02   0.02  -0.01
  18   1    -0.07  -0.05   0.02    -0.00   0.00  -0.00     0.01   0.00   0.00
  19   1    -0.08   0.03   0.03     0.01   0.00  -0.00    -0.00   0.00   0.00
  20   1     0.01   0.03   0.01     0.02   0.01  -0.00     0.00   0.00   0.00
  21   1     0.04   0.00   0.00     0.02  -0.01  -0.00    -0.00   0.00   0.00
                     40                     41                     42
                        a                      a                      a 
 Frequencies --  1402.8826              1418.8108              1472.2487
 Red. masses --     1.8103                 9.9069                 1.8777
 Frc consts  --     0.0000                 0.0000                 0.0000
 IR Inten    --    95.1573                11.6118                10.4908
 Raman Activ --     0.0000                 0.0000                 0.0000
 Depolar     --     0.0000                 0.0000                 0.0000
 Atom AN      X      Y      Z        X      Y      Z        X      Y      Z
   1   7    -0.04  -0.18  -0.08    -0.01  -0.02  -0.02     0.01   0.01   0.00
   2   6    -0.06   0.00  -0.10     0.01  -0.01   0.00     0.15   0.22   0.07
   3   6     0.02  -0.00   0.02    -0.04  -0.07  -0.04    -0.02   0.00   0.03
   4   6     0.00  -0.03  -0.01    -0.00   0.30   0.09     0.02   0.00  -0.00
   5   6    -0.04   0.00   0.02     0.37  -0.03  -0.12    -0.01  -0.01   0.00
   6   6     0.04   0.01  -0.01    -0.35  -0.13   0.07    -0.01   0.01   0.01
   7   6     0.00  -0.03  -0.01    -0.01   0.31   0.09     0.03   0.01  -0.01
   8   9     0.00   0.00   0.00     0.00  -0.04  -0.01    -0.01  -0.00   0.00
   9   6    -0.04   0.00   0.01     0.36  -0.06  -0.12    -0.00  -0.02  -0.00
  10   6     0.04   0.01  -0.01    -0.36  -0.11   0.08    -0.03   0.01   0.01
  11   1    -0.24  -0.04   0.17    -0.03  -0.01   0.02     0.00   0.02  -0.00
  12   1     0.03   0.53   0.45     0.01   0.05   0.06    -0.01   0.05  -0.00
  13   1     0.43   0.31  -0.22     0.05   0.03  -0.02     0.02   0.04  -0.03
  14   1     0.08  -0.07   0.10    -0.00   0.01  -0.02    -0.59  -0.29   0.12
  15   1     0.03  -0.03   0.11    -0.00   0.01   0.00     0.04  -0.59  -0.32
  16   1    -0.00   0.01   0.01    -0.05   0.02   0.03     0.04  -0.05  -0.07
  17   1    -0.02  -0.01   0.00     0.15   0.02   0.03     0.02   0.06  -0.07
  18   1     0.00   0.02  -0.00    -0.12  -0.16  -0.01     0.01   0.00  -0.00
  19   1    -0.01   0.01   0.01     0.10  -0.14  -0.07     0.01  -0.00  -0.00
  20   1     0.01   0.02   0.00    -0.10  -0.16  -0.02     0.01   0.00  -0.00
  21   1    -0.01   0.02   0.01     0.12  -0.14  -0.07     0.02  -0.01  -0.00
                     43                     44                     45
                        a                      a                      a 
 Frequencies --  1480.9024              1496.3595              1560.4524
 Red. masses --     2.0215                10.0593                11.6236
 Frc consts  --     0.0000                 0.0000                 0.0000
 IR Inten    --     4.4227               176.8168                 4.6512
 Raman Activ --     0.0000                 0.0000                 0.0000
 Depolar     --     0.0000                 0.0000                 0.0000
 Atom AN      X      Y      Z        X      Y      Z        X      Y      Z
   1   7     0.01  -0.01   0.01    -0.00   0.00  -0.00     0.00   0.00  -0.00
   2   6     0.02   0.03  -0.00     0.01   0.01   0.01    -0.00  -0.00   0.00
   3   6     0.13   0.02  -0.26     0.14   0.01  -0.05    -0.01  -0.05  -0.01
   4   6     0.00   0.00  -0.02    -0.41  -0.05   0.10    -0.01   0.52   0.15
   5   6    -0.04  -0.04  -0.00     0.20   0.24   0.01    -0.14  -0.30  -0.05
   6   6    -0.00   0.03   0.01     0.18  -0.20  -0.11    -0.13   0.26   0.12
   7   6     0.04  -0.00  -0.01    -0.45  -0.04   0.12     0.00  -0.47  -0.14
   8   9    -0.01  -0.00   0.00     0.14   0.01  -0.04     0.00   0.01   0.00
   9   6    -0.01  -0.02  -0.00     0.17   0.23   0.02     0.13   0.29   0.05
  10   6    -0.02   0.02   0.02     0.21  -0.20  -0.12     0.15  -0.27  -0.12
  11   1    -0.01   0.03   0.01    -0.00  -0.00  -0.00    -0.00  -0.00   0.00
  12   1    -0.00  -0.01  -0.01     0.00   0.00   0.00     0.00   0.00   0.00
  13   1    -0.03   0.01  -0.03     0.01   0.00   0.00     0.00   0.00  -0.00
  14   1    -0.08  -0.05   0.02    -0.04  -0.02   0.01    -0.00  -0.00   0.00
  15   1     0.00  -0.07  -0.06    -0.01  -0.03  -0.05    -0.00  -0.00  -0.01
  16   1    -0.24   0.38   0.48    -0.00   0.03   0.03    -0.05   0.00   0.00
  17   1    -0.15  -0.44   0.49    -0.01  -0.04   0.03     0.09   0.02  -0.00
  18   1     0.05   0.03  -0.00    -0.19  -0.09   0.03     0.08  -0.00  -0.02
  19   1     0.02  -0.00  -0.01    -0.19   0.05   0.07     0.07   0.02  -0.02
  20   1     0.02   0.01  -0.01    -0.18  -0.09   0.03    -0.07   0.00   0.02
  21   1     0.04  -0.01  -0.02    -0.20   0.06   0.07    -0.08  -0.01   0.02
                     46                     47                     48
                        a                      a                      a 
 Frequencies --  1615.8318              2947.3603              2954.9783
 Red. masses --    11.5958                 1.9310                 1.9333
 Frc consts  --     0.0000                 0.0000                 0.0000
 IR Inten    --    27.8591                 8.5276                 0.9559
 Raman Activ --     0.0000                 0.0000                 0.0000
 Depolar     --     0.0000                 0.0000                 0.0000
 Atom AN      X      Y      Z        X      Y      Z        X      Y      Z
   1   7    -0.00   0.00  -0.00    -0.00  -0.00  -0.00    -0.00   0.00  -0.00
   2   6     0.01   0.00   0.01     0.01  -0.02  -0.02     0.24  -0.06  -0.14
   3   6     0.04   0.00  -0.02    -0.02   0.28  -0.04    -0.01  -0.01   0.04
   4   6    -0.26  -0.02   0.07     0.00   0.01  -0.00    -0.00  -0.00   0.00
   5   6     0.41   0.15  -0.08     0.00  -0.00  -0.00     0.00  -0.00  -0.00
   6   6    -0.42   0.08   0.15    -0.00   0.00   0.00     0.00   0.00  -0.00
   7   6     0.28   0.03  -0.08    -0.00  -0.00  -0.00     0.00   0.00   0.00
   8   9    -0.05  -0.01   0.01     0.00   0.00  -0.00     0.00  -0.00  -0.00
   9   6    -0.41  -0.16   0.08     0.00   0.00   0.00    -0.00  -0.00  -0.00
  10   6     0.41  -0.08  -0.14    -0.00  -0.00   0.00     0.00   0.00   0.00
  11   1     0.00   0.00  -0.00     0.00  -0.00   0.00    -0.00   0.00   0.00
  12   1    -0.00   0.00  -0.00     0.00   0.00   0.00     0.02   0.00  -0.01
  13   1    -0.00  -0.00   0.00     0.00  -0.00   0.00     0.00  -0.01  -0.01
  14   1    -0.01  -0.00   0.00    -0.04   0.11   0.08    -0.11   0.37   0.27
  15   1    -0.00  -0.00  -0.01    -0.01  -0.01  -0.00    -0.75  -0.16   0.24
  16   1     0.01   0.00   0.01    -0.09  -0.65   0.46     0.01   0.14  -0.09
  17   1     0.00  -0.00   0.00     0.14  -0.37  -0.30     0.03  -0.09  -0.06
  18   1    -0.06  -0.07  -0.00    -0.00   0.00   0.00    -0.00   0.00   0.00
  19   1     0.07  -0.07  -0.04     0.00  -0.00  -0.00    -0.00  -0.00   0.00
  20   1     0.07   0.08   0.00     0.00  -0.00  -0.00     0.00   0.00  -0.00
  21   1    -0.06   0.06   0.04     0.00   0.00  -0.00    -0.00  -0.00  -0.00
                     49                     50                     51
                        a                      a                      a 
 Frequencies --  2975.0202              2982.7248              3109.1015
 Red. masses --     1.5365                 1.5860                 1.7970
 Frc consts  --     0.0000                 0.0000                 0.0000
 IR Inten    --    22.2486                16.3527                 2.4918
 Raman Activ --     0.0000                 0.0000                 0.0000
 Depolar     --     0.0000                 0.0000                 0.0000
 Atom AN      X      Y      Z        X      Y      Z        X      Y      Z
   1   7    -0.00   0.00   0.00     0.00  -0.00   0.00     0.00  -0.00  -0.00
   2   6     0.06   0.05  -0.00    -0.04  -0.19  -0.09     0.00   0.00   0.00
   3   6     0.07  -0.04  -0.19     0.02  -0.05  -0.06    -0.00   0.00   0.00
   4   6     0.01  -0.00  -0.00     0.00  -0.00  -0.00    -0.00   0.00   0.00
   5   6    -0.00   0.00   0.00    -0.00   0.00   0.00    -0.09   0.14   0.07
   6   6     0.00   0.00  -0.00     0.00   0.00  -0.00    -0.04  -0.08  -0.01
   7   6    -0.00   0.00   0.00     0.00   0.00   0.00    -0.00  -0.00  -0.00
   8   9     0.00   0.00  -0.00    -0.00  -0.00  -0.00     0.00   0.00   0.00
   9   6     0.00  -0.00  -0.00    -0.00  -0.00  -0.00     0.04  -0.06  -0.03
  10   6    -0.00   0.00   0.00     0.00   0.00   0.00     0.07   0.14   0.02
  11   1    -0.00  -0.00  -0.00    -0.00  -0.00  -0.00     0.00   0.00   0.00
  12   1     0.01   0.00  -0.00    -0.01  -0.00   0.00     0.00   0.00   0.00
  13   1    -0.00   0.00   0.00     0.01  -0.02  -0.01    -0.00   0.00   0.00
  14   1     0.06  -0.14  -0.11    -0.25   0.61   0.47    -0.00  -0.00  -0.00
  15   1    -0.29  -0.05   0.10     0.40   0.06  -0.15    -0.00  -0.00   0.00
  16   1    -0.04  -0.43   0.26    -0.00  -0.07   0.03    -0.00  -0.00   0.00
  17   1    -0.20   0.59   0.41    -0.09   0.25   0.18     0.00  -0.00  -0.00
  18   1     0.00  -0.00  -0.00     0.00  -0.00  -0.00     0.31  -0.49  -0.24
  19   1    -0.00  -0.00  -0.00    -0.00  -0.00  -0.00     0.16   0.30   0.04
  20   1     0.00   0.00   0.00    -0.00   0.00   0.00    -0.16   0.24   0.11
  21   1     0.00   0.00   0.00    -0.00  -0.00   0.00    -0.26  -0.50  -0.06
                     52                     53                     54
                        a                      a                      a 
 Frequencies --  3110.9915              3121.2703              3123.7499
 Red. masses --     1.7919                 1.8761                 1.8820
 Frc consts  --     0.0000                 0.0000                 0.0000
 IR Inten    --    27.0003                87.0658                12.5430
 Raman Activ --     0.0000                 0.0000                 0.0000
 Depolar     --     0.0000                 0.0000                 0.0000
 Atom AN      X      Y      Z        X      Y      Z        X      Y      Z
   1   7    -0.00  -0.00  -0.00     0.00  -0.00  -0.00     0.00   0.00   0.00
   2   6     0.00  -0.00  -0.00    -0.00   0.00   0.00    -0.00  -0.00   0.00
   3   6    -0.00  -0.00   0.00    -0.00   0.00   0.00    -0.00  -0.00  -0.00
   4   6    -0.01  -0.00   0.00    -0.00  -0.00  -0.00     0.01   0.00  -0.00
   5   6    -0.08   0.12   0.06    -0.05   0.08   0.04     0.05  -0.08  -0.04
   6   6    -0.04  -0.07  -0.01     0.09   0.15   0.02    -0.08  -0.15  -0.02
   7   6    -0.01  -0.00   0.00     0.00   0.00  -0.00    -0.01  -0.00   0.00
   8   9     0.00   0.00  -0.00     0.00  -0.00  -0.00     0.00   0.00  -0.00
   9   6    -0.05   0.07   0.04    -0.09   0.13   0.06    -0.09   0.14   0.06
  10   6    -0.08  -0.15  -0.02     0.05   0.09   0.01     0.05   0.09   0.01
  11   1     0.00   0.00   0.00     0.00   0.00   0.00    -0.00  -0.00  -0.00
  12   1     0.00   0.00  -0.00    -0.00   0.00   0.00    -0.00  -0.00   0.00
  13   1    -0.00   0.00   0.00    -0.00   0.00   0.00     0.00   0.00   0.00
  14   1     0.00   0.00   0.00     0.00  -0.00  -0.00    -0.00   0.00   0.00
  15   1    -0.00  -0.00   0.00     0.00  -0.00  -0.00     0.00   0.00  -0.00
  16   1     0.00   0.00  -0.00    -0.00  -0.00   0.00    -0.00  -0.00   0.00
  17   1     0.00  -0.00  -0.00     0.00  -0.00  -0.00    -0.00   0.00   0.00
  18   1     0.27  -0.44  -0.22     0.16  -0.25  -0.12    -0.16   0.26   0.13
  19   1     0.15   0.28   0.04    -0.29  -0.53  -0.07     0.28   0.51   0.07
  20   1     0.18  -0.28  -0.13     0.30  -0.46  -0.22     0.30  -0.47  -0.22
  21   1     0.28   0.55   0.07    -0.15  -0.28  -0.04    -0.15  -0.30  -0.04
                     55                     56                     57
                        a                      a                      a 
 Frequencies --  3265.7352              3268.9782              3290.8231
 Red. masses --     2.0546                 2.0496                 1.2790
 Frc consts  --     0.0000                 0.0000                 0.0000
 IR Inten    --   204.1513               167.1267                57.7448
 Raman Activ --     0.0000                 0.0000                 0.0000
 Depolar     --     0.0000                 0.0000                 0.0000
 Atom AN      X      Y      Z        X      Y      Z        X      Y      Z
   1   7    -0.18  -0.11  -0.19    -0.22   0.10   0.15     0.01   0.12  -0.08
   2   6    -0.00  -0.00  -0.00    -0.01   0.00   0.00     0.00   0.01  -0.00
   3   6     0.00  -0.00  -0.00    -0.00   0.00  -0.00     0.00  -0.00  -0.00
   4   6     0.00  -0.00   0.00     0.00   0.00   0.00    -0.00   0.00   0.00
   5   6     0.00  -0.00  -0.00    -0.00  -0.00   0.00    -0.00   0.00   0.00
   6   6    -0.00  -0.00  -0.00    -0.00  -0.00   0.00     0.00  -0.00  -0.00
   7   6    -0.00   0.00   0.00    -0.00  -0.00  -0.00     0.00  -0.00   0.00
   8   9     0.00  -0.00  -0.00     0.00  -0.00   0.00    -0.00   0.00  -0.00
   9   6    -0.00   0.00   0.00    -0.00   0.00   0.00    -0.00   0.00   0.00
  10   6     0.00   0.00   0.00     0.00   0.00   0.00     0.00  -0.00  -0.00
  11   1     0.48   0.08   0.64    -0.00   0.01   0.04     0.33   0.07   0.43
  12   1     0.33   0.06  -0.14     0.61   0.15  -0.20    -0.57  -0.11   0.19
  13   1    -0.15   0.29   0.20     0.21  -0.53  -0.39     0.19  -0.42  -0.32
  14   1    -0.00   0.01   0.01     0.00  -0.01  -0.01     0.00  -0.01  -0.01
  15   1     0.01   0.00  -0.00     0.01   0.00  -0.00    -0.01  -0.00   0.00
  16   1    -0.00  -0.00   0.00     0.00  -0.00   0.00     0.00  -0.00   0.00
  17   1    -0.00   0.00   0.00     0.00  -0.00  -0.00    -0.00   0.00   0.00
  18   1    -0.00   0.00   0.00     0.00  -0.00  -0.00     0.00  -0.00  -0.00
  19   1     0.00   0.00   0.00     0.00   0.00  -0.00     0.00   0.00   0.00
  20   1     0.00  -0.00  -0.00     0.00  -0.00  -0.00     0.00  -0.00  -0.00
  21   1    -0.00  -0.00  -0.00    -0.00  -0.00  -0.00    -0.00  -0.00   0.00
