48
 energy: -82.574697014104 gnorm: 0.000565687790 xtb: 6.5.1 (fef0646)
N            3.22641775463507        0.82123044503028        0.38725097066359
C            2.88128066367643        1.52037007866750       -0.86213715870252
C            4.04475372466214        2.39239612129871       -1.34908864381143
C            5.17986857509861        1.56903448949289       -1.85301852403807
C            5.47675773706192        1.23228626139318       -3.14179416157261
C            6.59889741757824        0.39554265510103       -3.25813680618642
C            7.17196073168346        0.08066605505900       -2.05032865614458
C            8.30322822828604       -0.73888022473616       -1.78703947055605
C            8.87563726228416       -1.03392180772939       -0.57195324418557
C            9.98831784029408       -1.88032514600481       -0.65124424920568
C           10.75213895794998       -2.31931661364778        0.54726219990036
C           10.27616457202718       -2.24588595742141       -1.96163976322456
C           11.30958345487567       -3.08472340373397       -2.44626080153133
C           11.57258444105180       -3.45643528901644       -3.75949501328887
C           10.84616249163065       -3.06091289553781       -4.88562832028578
N           10.28195862543152       -2.76369993851191       -5.84458945336369
C           12.70325079914051       -4.32342542434977       -3.88901085399185
C           13.09337215234590       -4.78960380834698       -5.14878418602129
N           13.36207777531431       -5.14044414975184       -6.21147947068194
C           13.31351951073871       -4.61981369632061       -2.67919166119815
C           14.45194653832579       -5.43696753947220       -2.44023892735016
C           15.06219557616421       -5.74444701145961       -1.23440733594609
C           14.62569869182239       -5.26383104578339        0.10424543860136
C           16.17813535525719       -6.58914921834995       -1.41415612178943
C           16.41073417166510       -6.91437135654397       -2.71204637552877
S           15.27368673041186       -6.20365140352603       -3.78436871138212
S           12.47479567416470       -3.81955423961733       -1.38354820624535
S            9.14881094946543       -1.52224708538141       -3.09221154153614
S            6.31083236026703        0.84296772112884       -0.75226289108354
Cl           1.06571765389973       -1.26713754465125        0.87742891385160
H            2.47690195524532        0.12189054356714        0.62454282639058
H            3.31951591210922        1.47528685786713        1.16720836494363
H            4.10529359648453        0.30342987701910        0.28124904880541
H            2.00332005232864        2.13878463996884       -0.68459388533801
H            2.62524635083256        0.77618869348736       -1.61564441897281
H            4.38589733914277        3.03231069271250       -0.53573829310519
H            3.68842623699909        3.02465825893682       -2.16113150931423
H            4.90982438473276        1.57451219590742       -3.98820091333225
H            6.98879658171746        0.02649680017913       -4.19112052476546
H            8.49603375975700       -0.64471923357905        0.35624125355362
H           10.31007114871077       -1.89145244156686        1.44155537115568
H           11.79124292806313       -2.00025525956083        0.47899388875625
H           10.74179601270368       -3.40491318393912        0.63361977607977
H           13.60302980112366       -5.57548038435732        0.31222181301539
H           14.66031742410206       -4.17631309223736        0.15368521660381
H           15.27895202363734       -5.67060255660736        0.86980036728529
H           16.78484740305801       -6.94021749105342       -0.59989714852197
H           17.18519067195921       -7.53353394401380       -3.11766820736142
