 Entering Gaussian System
 *********************************************
 Gaussian 98:
 frequency output generated by the xtb code
 *********************************************
                         Standard orientation:
 --------------------------------------------------------------------
  Center     Atomic     Atomic              Coordinates (Angstroms)
  Number     Number      Type              X           Y           Z
 --------------------------------------------------------------------
    1          7             0       -0.896340   -1.631186   -0.459974
    2          6             0        0.280195   -1.117121    0.301211
    3          6             0        0.683311    0.284836   -0.140843
    4          6             0        1.823027    0.887562    0.686042
    5          6             0        3.143573    0.115615    0.598159
    6          6             0        3.722988    0.067819   -0.808253
    7         17             0       -3.495057    0.684538   -0.009109
    8          1             0       -1.183734   -2.571554   -0.145731
    9          1             0       -0.689064   -1.682199   -1.466375
   10          1             0       -1.703257   -0.998902   -0.345062
   11          1             0        1.123321   -1.807376    0.184199
   12          1             0        0.053359   -1.113458    1.374032
   13          1             0       -0.197915    0.936971   -0.092411
   14          1             0        0.957997    0.267023   -1.201394
   15          1             0        1.503641    0.955635    1.733933
   16          1             0        1.997182    1.924630    0.371660
   17          1             0        3.000229   -0.903644    0.978391
   18          1             0        3.877368    0.566182    1.280926
   19          1             0        3.062883   -0.461919   -1.496950
   20          1             0        4.690265   -0.439026   -0.835766
   21          1             0        3.868682    1.072498   -1.209465
 --------------------------------------------------------------------
     1 basis functions        1 primitive gaussians
     1 alpha electrons        1 beta electrons

 Harmonic frequencies (cm**-1), IR intensities (km*mol⁻¹),
 Raman scattering activities (A**4/amu), Raman depolarization ratios,
 reduced masses (AMU), force constants (mDyne/A) and normal coordinates:
                      1                      2                      3
                        a                      a                      a 
 Frequencies --   -37.7468                45.8793                57.1335
 Red. masses --    23.6636                21.1068                12.4750
 Frc consts  --     0.0000                 0.0000                 0.0000
 IR Inten    --    96.1894                22.7164                10.9714
 Raman Activ --     0.0000                 0.0000                 0.0000
 Depolar     --     0.0000                 0.0000                 0.0000
 Atom AN      X      Y      Z        X      Y      Z        X      Y      Z
   1   7    -0.33   0.36   0.05     0.04  -0.35  -0.03    -0.05  -0.03   0.22
   2   6    -0.22   0.19   0.02    -0.01  -0.21  -0.04    -0.05  -0.09   0.25
   3   6    -0.07   0.15   0.02    -0.20  -0.15  -0.03    -0.04  -0.07   0.33
   4   6    -0.01   0.03   0.02    -0.30   0.01  -0.03     0.10  -0.19   0.23
   5   6    -0.08  -0.07  -0.02    -0.21   0.16   0.02     0.12  -0.10  -0.21
   6   6    -0.09  -0.07  -0.02    -0.19   0.16   0.03    -0.09   0.34  -0.31
   7  17     0.58  -0.43  -0.06     0.60   0.27   0.06     0.01   0.09  -0.35
   8   1    -0.11   0.10   0.01     0.02  -0.09   0.00    -0.03  -0.01   0.05
   9   1    -0.10   0.10   0.01     0.01  -0.10  -0.01     0.00  -0.01   0.06
  10   1    -0.07   0.12   0.03     0.01  -0.10  -0.02    -0.01   0.00   0.04
  11   1    -0.09   0.03  -0.00     0.02  -0.03  -0.02    -0.02  -0.03   0.06
  12   1    -0.06   0.06   0.01     0.00  -0.07  -0.01    -0.02  -0.05   0.07
  13   1    -0.00   0.07   0.01    -0.09  -0.08  -0.01    -0.00  -0.01   0.14
  14   1    -0.02   0.03   0.01    -0.06  -0.03  -0.01    -0.05   0.00   0.09
  15   1     0.00   0.01   0.01    -0.09   0.00  -0.01     0.09  -0.13   0.09
  16   1     0.02   0.01   0.01    -0.12   0.01  -0.02    -0.00  -0.03   0.12
  17   1    -0.05  -0.02  -0.02    -0.03   0.05   0.02     0.07  -0.06  -0.14
  18   1    -0.01  -0.05  -0.00    -0.08   0.08   0.00     0.06  -0.08  -0.05
  19   1    -0.04   0.00  -0.01    -0.04   0.02   0.01    -0.05   0.15  -0.11
  20   1    -0.04  -0.04  -0.01    -0.04   0.08   0.02    -0.02   0.11  -0.18
  21   1    -0.00  -0.02   0.00    -0.09   0.05  -0.00    -0.05   0.14  -0.01
                      4                      5                      6
                        a                      a                      a 
 Frequencies --    80.5977               151.8856               190.2850
 Red. masses --     8.7920                 7.6728                 4.6632
 Frc consts  --     0.0000                 0.0000                 0.0000
 IR Inten    --     5.4180                16.8092                 4.4054
 Raman Activ --     0.0000                 0.0000                 0.0000
 Depolar     --     0.0000                 0.0000                 0.0000
 Atom AN      X      Y      Z        X      Y      Z        X      Y      Z
   1   7     0.26   0.02  -0.09     0.28  -0.13  -0.35    -0.15   0.13  -0.09
   2   6     0.23   0.04  -0.07    -0.33   0.23   0.35    -0.11  -0.08   0.01
   3   6    -0.06   0.22   0.25    -0.04   0.05   0.05     0.22  -0.20  -0.09
   4   6     0.03   0.12   0.19     0.03   0.01  -0.01     0.01  -0.12   0.13
   5   6    -0.03   0.04   0.02    -0.01  -0.06  -0.06     0.21   0.24   0.08
   6   6    -0.44  -0.37  -0.14    -0.03  -0.06  -0.07    -0.12  -0.01  -0.05
   7  17     0.01  -0.03  -0.10     0.05  -0.02   0.10    -0.01   0.01   0.01
   8   1     0.10  -0.01  -0.05     0.07  -0.03  -0.10    -0.09   0.05  -0.03
   9   1     0.06   0.04  -0.03     0.26  -0.07  -0.05    -0.03   0.03  -0.02
  10   1     0.06  -0.02   0.00     0.03  -0.07  -0.25    -0.02   0.07  -0.03
  11   1     0.10   0.06  -0.10    -0.06   0.06   0.36    -0.06  -0.07   0.06
  12   1     0.10  -0.08  -0.01    -0.32   0.19   0.05    -0.07   0.03  -0.01
  13   1    -0.04   0.03   0.17     0.02   0.07  -0.06     0.07  -0.03  -0.13
  14   1    -0.08   0.16   0.06     0.02  -0.08   0.02     0.15  -0.11  -0.00
  15   1     0.04   0.02   0.07     0.02   0.01   0.00    -0.03  -0.10   0.03
  16   1     0.01   0.04   0.07     0.02  -0.00  -0.01    -0.06  -0.01   0.09
  17   1     0.01   0.04   0.10    -0.01  -0.02  -0.02     0.17   0.09   0.11
  18   1     0.05   0.05  -0.09     0.01  -0.03  -0.02     0.06   0.19  -0.06
  19   1    -0.17  -0.18   0.06    -0.01  -0.01  -0.02     0.09  -0.35   0.14
  20   1    -0.12  -0.09  -0.07    -0.01  -0.02  -0.02     0.13   0.31   0.00
  21   1    -0.18  -0.14  -0.14    -0.01  -0.02  -0.02    -0.39  -0.03  -0.21
                      7                      8                      9
                        a                      a                      a 
 Frequencies --   252.9956               287.3086               323.5767
 Red. masses --     7.7313                 4.9599                 6.9656
 Frc consts  --     0.0000                 0.0000                 0.0000
 IR Inten    --     6.9514                 0.5960                10.1313
 Raman Activ --     0.0000                 0.0000                 0.0000
 Depolar     --     0.0000                 0.0000                 0.0000
 Atom AN      X      Y      Z        X      Y      Z        X      Y      Z
   1   7     0.15  -0.09   0.21     0.02   0.11   0.00     0.17   0.32  -0.04
   2   6     0.14   0.27  -0.08     0.07  -0.04   0.02     0.15  -0.20   0.25
   3   6     0.15   0.18  -0.33     0.31  -0.19  -0.21     0.08  -0.26   0.06
   4   6    -0.04  -0.10   0.09    -0.03  -0.02   0.12     0.00   0.15  -0.21
   5   6    -0.20  -0.36   0.04     0.03   0.13   0.11    -0.21  -0.17   0.01
   6   6    -0.22   0.12   0.02    -0.34   0.03  -0.03    -0.16   0.09   0.03
   7  17     0.01   0.00  -0.00    -0.01  -0.01   0.01    -0.01   0.00  -0.01
   8   1     0.08  -0.00   0.15    -0.06   0.06   0.03     0.06  -0.00  -0.25
   9   1     0.01  -0.11   0.06     0.03  -0.03   0.01     0.04   0.36  -0.03
  10   1     0.02  -0.04   0.02     0.04   0.08  -0.04     0.03   0.04   0.15
  11   1     0.04   0.08   0.01    -0.02  -0.07   0.07     0.01  -0.09   0.06
  12   1     0.06   0.16  -0.02    -0.01   0.06  -0.00     0.02  -0.07   0.07
  13   1     0.05   0.07  -0.18     0.09  -0.05  -0.20    -0.00  -0.10  -0.03
  14   1     0.13   0.02  -0.07     0.20  -0.13  -0.03     0.02  -0.15   0.02
  15   1    -0.08  -0.10   0.01    -0.07  -0.06   0.02    -0.00   0.21  -0.07
  16   1     0.07  -0.01   0.12    -0.04   0.01   0.08     0.04  -0.01  -0.22
  17   1    -0.11  -0.13  -0.09     0.04   0.04   0.06    -0.15  -0.06  -0.06
  18   1    -0.05  -0.20   0.07     0.04   0.06  -0.02    -0.05  -0.14   0.05
  19   1     0.03  -0.07  -0.00    -0.32   0.32  -0.03     0.01  -0.03  -0.01
  20   1     0.03   0.22  -0.02    -0.28  -0.33  -0.14     0.01   0.13  -0.00
  21   1    -0.26   0.07   0.04     0.23   0.01   0.10    -0.15   0.05   0.04
                     10                     11                     12
                        a                      a                      a 
 Frequencies --   345.0449               402.6423               493.3326
 Red. masses --     2.2484                 7.8934                 8.2093
 Frc consts  --     0.0000                 0.0000                 0.0000
 IR Inten    --     0.7011                 4.4977                 5.8597
 Raman Activ --     0.0000                 0.0000                 0.0000
 Depolar     --     0.0000                 0.0000                 0.0000
 Atom AN      X      Y      Z        X      Y      Z        X      Y      Z
   1   7     0.03   0.14  -0.08     0.22   0.27   0.07     0.19   0.20   0.06
   2   6     0.10  -0.14  -0.01     0.17  -0.00   0.14     0.07   0.10   0.08
   3   6    -0.01  -0.07   0.11    -0.10  -0.05  -0.06    -0.33   0.00  -0.18
   4   6     0.04   0.09  -0.08    -0.36  -0.12   0.17    -0.06  -0.45  -0.30
   5   6    -0.07  -0.07   0.02    -0.24   0.10  -0.27     0.23  -0.06   0.18
   6   6    -0.04   0.05   0.03     0.25  -0.15  -0.11    -0.07   0.06   0.10
   7  17    -0.02  -0.02   0.03    -0.01  -0.00   0.00    -0.00  -0.00  -0.00
   8   1    -0.36   0.26   0.30    -0.04   0.09  -0.01     0.00   0.06  -0.02
   9   1     0.18  -0.45   0.04     0.10   0.07   0.03     0.09   0.08   0.02
  10   1     0.18   0.33  -0.39     0.10   0.13  -0.01     0.07   0.08   0.00
  11   1     0.01  -0.05  -0.04     0.05   0.00   0.04     0.06   0.07   0.03
  12   1     0.04  -0.07   0.00     0.05   0.01   0.04     0.04   0.05   0.03
  13   1    -0.02  -0.05   0.08    -0.07  -0.06  -0.08    -0.07   0.02   0.13
  14   1    -0.05   0.01   0.02     0.04  -0.04   0.00    -0.28   0.04  -0.10
  15   1     0.02   0.12  -0.03    -0.09  -0.27   0.07    -0.07  -0.13  -0.10
  16   1     0.03  -0.01  -0.11    -0.18   0.04   0.26     0.02  -0.12  -0.05
  17   1    -0.06  -0.02  -0.02    -0.04   0.02  -0.08     0.24  -0.00   0.15
  18   1    -0.01  -0.06   0.03    -0.09   0.03  -0.06    -0.02   0.19   0.00
  19   1     0.02  -0.02   0.01     0.16  -0.08  -0.09    -0.11   0.07   0.08
  20   1     0.02   0.07   0.00     0.06  -0.07   0.15    -0.03   0.01  -0.10
  21   1    -0.08   0.03   0.01     0.16  -0.08  -0.08    -0.06   0.04   0.07
                     13                     14                     15
                        a                      a                      a 
 Frequencies --   774.8648               816.3595               865.4495
 Red. masses --     2.5733                 3.0601                 4.5124
 Frc consts  --     0.0000                 0.0000                 0.0000
 IR Inten    --    27.1395                19.6237                 9.6730
 Raman Activ --     0.0000                 0.0000                 0.0000
 Depolar     --     0.0000                 0.0000                 0.0000
 Atom AN      X      Y      Z        X      Y      Z        X      Y      Z
   1   7     0.03   0.03   0.00    -0.03  -0.03   0.03    -0.15  -0.06   0.01
   2   6    -0.07   0.12   0.00    -0.12  -0.00   0.19    -0.03  -0.03   0.16
   3   6    -0.10   0.05   0.15    -0.19   0.07  -0.09     0.22   0.06  -0.03
   4   6    -0.13  -0.12   0.12     0.03   0.12  -0.05     0.23   0.03  -0.20
   5   6    -0.06  -0.16  -0.01     0.23   0.06   0.09    -0.21   0.00  -0.14
   6   6     0.01  -0.02  -0.09     0.06   0.01   0.01    -0.15  -0.05   0.14
   7  17     0.00  -0.00   0.00     0.00  -0.00   0.00     0.00   0.00   0.00
   8   1     0.05   0.00   0.02    -0.05  -0.04  -0.12    -0.03  -0.06  -0.13
   9   1     0.07  -0.02   0.01     0.26   0.05   0.06     0.24   0.04   0.06
  10   1    -0.03  -0.03  -0.06    -0.06  -0.04  -0.16    -0.11  -0.07  -0.17
  11   1     0.06   0.17  -0.25     0.01   0.11  -0.34    -0.06  -0.04  -0.15
  12   1     0.14  -0.20   0.03     0.25  -0.29   0.11     0.16  -0.09   0.08
  13   1     0.02   0.09  -0.33    -0.00   0.10  -0.24     0.10   0.06   0.15
  14   1     0.29  -0.20   0.13     0.03  -0.23  -0.00    -0.12   0.01  -0.06
  15   1     0.04   0.27   0.03    -0.03  -0.13  -0.01     0.04  -0.28  -0.04
  16   1     0.08  -0.13  -0.24    -0.03   0.09   0.14     0.02   0.10   0.22
  17   1     0.24   0.01   0.22    -0.13  -0.04  -0.19    -0.03   0.10   0.22
  18   1    -0.01   0.24  -0.19     0.04  -0.22   0.20    -0.00   0.17  -0.21
  19   1     0.11   0.06  -0.18    -0.14  -0.04   0.19     0.13   0.07  -0.18
  20   1     0.03   0.04   0.02    -0.02  -0.05  -0.14     0.01   0.09   0.15
  21   1     0.02   0.05   0.13    -0.03  -0.05  -0.14    -0.03   0.08   0.26
                     16                     17                     18
                        a                      a                      a 
 Frequencies --   876.2382               925.4543               932.5548
 Red. masses --     6.1462                 3.8559                 4.3582
 Frc consts  --     0.0000                 0.0000                 0.0000
 IR Inten    --    20.5265                14.9488                23.7071
 Raman Activ --     0.0000                 0.0000                 0.0000
 Depolar     --     0.0000                 0.0000                 0.0000
 Atom AN      X      Y      Z        X      Y      Z        X      Y      Z
   1   7    -0.07  -0.16  -0.03    -0.11   0.06   0.14     0.14   0.25  -0.02
   2   6     0.12  -0.20   0.10    -0.01   0.01  -0.05    -0.12   0.06  -0.11
   3   6    -0.22   0.18  -0.20     0.08  -0.10  -0.15    -0.04  -0.22   0.11
   4   6    -0.04   0.34   0.11    -0.19   0.06   0.23    -0.08   0.20  -0.09
   5   6     0.16  -0.20   0.11     0.06  -0.07   0.15     0.11  -0.07   0.07
   6   6     0.11  -0.12  -0.11     0.11  -0.03  -0.20     0.11  -0.15  -0.04
   7  17    -0.00  -0.00  -0.00     0.00   0.00   0.00     0.00   0.00  -0.00
   8   1    -0.30  -0.01  -0.16     0.09  -0.07  -0.12     0.39   0.06   0.29
   9   1    -0.07   0.10  -0.02     0.41   0.07   0.12    -0.11  -0.17  -0.02
  10   1     0.15   0.16   0.10    -0.19  -0.14  -0.26    -0.13  -0.15  -0.01
  11   1     0.07  -0.02   0.17    -0.16  -0.19  -0.04    -0.07  -0.03  -0.06
  12   1    -0.08   0.04   0.00     0.18   0.23   0.02    -0.07  -0.06  -0.04
  13   1    -0.13  -0.05  -0.14    -0.07  -0.16   0.18    -0.05  -0.11   0.01
  14   1     0.01   0.02  -0.04    -0.07   0.26  -0.07    -0.06  -0.12   0.01
  15   1    -0.05  -0.01   0.03    -0.13   0.24   0.02    -0.02  -0.15  -0.01
  16   1     0.06   0.12   0.16     0.00  -0.05  -0.13    -0.19   0.12   0.12
  17   1     0.04   0.02   0.21     0.05  -0.03   0.03    -0.15   0.06   0.16
  18   1     0.12   0.03  -0.10     0.05  -0.02  -0.00     0.08  -0.03  -0.02
  19   1     0.04   0.09  -0.14     0.03   0.01  -0.06    -0.02   0.10  -0.07
  20   1     0.09   0.09  -0.21     0.04   0.01  -0.09     0.09   0.09  -0.28
  21   1    -0.09   0.08   0.21     0.02   0.00  -0.03    -0.14   0.08   0.23
                     19                     20                     21
                        a                      a                      a 
 Frequencies --  1009.7811              1027.2973              1040.6676
 Red. masses --     9.1897                 4.7659                 5.7764
 Frc consts  --     0.0000                 0.0000                 0.0000
 IR Inten    --     2.8976                21.9529                10.6802
 Raman Activ --     0.0000                 0.0000                 0.0000
 Depolar     --     0.0000                 0.0000                 0.0000
 Atom AN      X      Y      Z        X      Y      Z        X      Y      Z
   1   7     0.32   0.10   0.26     0.13  -0.10   0.22    -0.19   0.08  -0.07
   2   6    -0.40  -0.22  -0.30    -0.18  -0.02  -0.26     0.29  -0.00   0.02
   3   6    -0.24  -0.06  -0.16     0.11   0.05   0.18    -0.25   0.02   0.03
   4   6     0.21   0.08   0.13    -0.07  -0.12  -0.13     0.07   0.04  -0.02
   5   6     0.12   0.04  -0.08    -0.08   0.07  -0.12     0.11  -0.06  -0.31
   6   6    -0.20   0.03   0.11     0.15  -0.11   0.10    -0.07   0.03   0.33
   7  17    -0.00  -0.00   0.00    -0.00  -0.00   0.00     0.00   0.00   0.00
   8   1     0.03   0.02   0.01    -0.20  -0.03  -0.16     0.12  -0.02   0.02
   9   1     0.14   0.08   0.08     0.18   0.15   0.08     0.07  -0.05   0.01
  10   1     0.10   0.06   0.05     0.13   0.11   0.02    -0.17  -0.12  -0.13
  11   1    -0.09  -0.05  -0.03    -0.03   0.00   0.01    -0.03  -0.15   0.12
  12   1    -0.09  -0.00  -0.07    -0.02   0.11  -0.06     0.05   0.20   0.00
  13   1    -0.06  -0.01  -0.08     0.07   0.07  -0.02    -0.25  -0.23  -0.22
  14   1    -0.01   0.01  -0.03     0.23   0.16   0.10     0.20   0.05   0.08
  15   1     0.11   0.03   0.05     0.23  -0.05   0.04     0.33  -0.04   0.09
  16   1     0.06   0.02   0.02    -0.23  -0.02  -0.10     0.01   0.02   0.02
  17   1    -0.01   0.01  -0.04    -0.16   0.07   0.05     0.11  -0.03  -0.09
  18   1     0.19  -0.09  -0.12    -0.15   0.06   0.08    -0.02   0.05  -0.06
  19   1     0.12  -0.03  -0.10    -0.15   0.07   0.13    -0.10  -0.01   0.17
  20   1    -0.04   0.01   0.29     0.05   0.03  -0.34    -0.04  -0.02   0.03
  21   1     0.07  -0.00   0.05    -0.17   0.05   0.14    -0.06   0.00   0.06
                     22                     23                     24
                        a                      a                      a 
 Frequencies --  1061.5833              1138.2447              1145.2510
 Red. masses --     5.3499                 7.7115                 7.3740
 Frc consts  --     0.0000                 0.0000                 0.0000
 IR Inten    --    11.3943                 3.2167                 7.7803
 Raman Activ --     0.0000                 0.0000                 0.0000
 Depolar     --     0.0000                 0.0000                 0.0000
 Atom AN      X      Y      Z        X      Y      Z        X      Y      Z
   1   7    -0.11  -0.12  -0.07     0.07  -0.02  -0.02     0.05  -0.05  -0.05
   2   6     0.17   0.35   0.01    -0.13  -0.03   0.09    -0.08   0.21   0.03
   3   6    -0.08  -0.26   0.02     0.26   0.09  -0.02    -0.06  -0.35  -0.23
   4   6    -0.04  -0.10   0.06    -0.37   0.15   0.02     0.22   0.09   0.36
   5   6     0.22   0.15  -0.03     0.25  -0.16  -0.37    -0.25   0.03  -0.21
   6   6    -0.15  -0.11   0.06    -0.03  -0.03   0.33     0.17  -0.02   0.13
   7  17    -0.00  -0.00  -0.00    -0.00  -0.00  -0.00    -0.00  -0.00  -0.00
   8   1    -0.15  -0.02  -0.09    -0.02   0.01   0.02    -0.07   0.02  -0.00
   9   1    -0.03   0.04  -0.02    -0.06  -0.01  -0.02    -0.08   0.02  -0.03
  10   1     0.04   0.05   0.00     0.05   0.02   0.05     0.07   0.05   0.05
  11   1     0.12   0.19  -0.03    -0.03   0.01  -0.06     0.04   0.15  -0.12
  12   1     0.11   0.14   0.01     0.00  -0.14   0.03     0.11   0.03   0.03
  13   1     0.03  -0.00   0.06     0.10   0.06   0.13     0.01  -0.06   0.11
  14   1    -0.04  -0.05   0.00    -0.07   0.09  -0.04    -0.28  -0.14  -0.13
  15   1     0.06   0.05   0.03    -0.25   0.10  -0.05     0.12   0.13   0.10
  16   1    -0.34  -0.03  -0.17    -0.11   0.02  -0.06     0.19  -0.02   0.01
  17   1    -0.23   0.06  -0.05     0.27  -0.11  -0.20     0.04   0.02   0.03
  18   1     0.29  -0.26  -0.06     0.13  -0.02  -0.18    -0.11   0.12  -0.07
  19   1     0.13   0.03  -0.18    -0.08   0.00   0.15    -0.15   0.04   0.19
  20   1     0.02   0.07   0.14    -0.01  -0.01   0.01     0.02  -0.02  -0.21
  21   1    -0.01   0.04   0.20    -0.07   0.01   0.11    -0.11   0.01   0.00
                     25                     26                     27
                        a                      a                      a 
 Frequencies --  1155.1374              1214.2838              1239.5267
 Red. masses --     7.5137                 4.3026                 3.5955
 Frc consts  --     0.0000                 0.0000                 0.0000
 IR Inten    --     3.4507                15.5837                 8.6410
 Raman Activ --     0.0000                 0.0000                 0.0000
 Depolar     --     0.0000                 0.0000                 0.0000
 Atom AN      X      Y      Z        X      Y      Z        X      Y      Z
   1   7     0.01   0.10  -0.10     0.19  -0.09  -0.17    -0.10   0.08   0.04
   2   6     0.01  -0.28   0.26    -0.24   0.09   0.27     0.08  -0.15   0.02
   3   6    -0.03   0.29  -0.28     0.04  -0.01  -0.11    -0.00   0.03  -0.16
   4   6     0.05  -0.28   0.19    -0.03   0.03  -0.07     0.00   0.03   0.07
   5   6    -0.04   0.31  -0.08     0.03  -0.15   0.11    -0.06  -0.27  -0.01
   6   6     0.03  -0.17   0.04    -0.02   0.12  -0.07     0.10   0.26   0.01
   7  17     0.00   0.00  -0.00    -0.00  -0.00  -0.00     0.00   0.00   0.00
   8   1     0.14   0.03   0.11    -0.07   0.06   0.09     0.09  -0.02  -0.00
   9   1    -0.10  -0.10  -0.04    -0.24  -0.01  -0.10     0.09  -0.03   0.04
  10   1    -0.06  -0.06   0.02     0.12   0.04   0.15    -0.07  -0.03  -0.05
  11   1    -0.05  -0.14   0.01    -0.24  -0.15  -0.23     0.18   0.14   0.10
  12   1     0.01  -0.14   0.07     0.32   0.07   0.15    -0.17  -0.13  -0.03
  13   1     0.06   0.16  -0.02    -0.11  -0.17   0.02     0.14   0.19   0.04
  14   1     0.01   0.15  -0.07     0.15   0.31   0.01    -0.05   0.03  -0.05
  15   1     0.08   0.16   0.05     0.26  -0.06   0.07     0.19   0.00   0.07
  16   1     0.03  -0.14  -0.17    -0.18   0.03  -0.03    -0.38   0.03  -0.12
  17   1    -0.24   0.10  -0.06    -0.04   0.01   0.13    -0.16   0.08   0.34
  18   1     0.05  -0.10   0.02    -0.02   0.05  -0.00     0.17  -0.02  -0.23
  19   1    -0.01   0.07  -0.06     0.02  -0.05   0.02    -0.07  -0.08   0.20
  20   1     0.06   0.07  -0.13    -0.03  -0.04   0.08    -0.06  -0.10   0.03
  21   1    -0.10   0.05   0.19     0.08  -0.02  -0.11     0.07  -0.05  -0.26
                     28                     29                     30
                        a                      a                      a 
 Frequencies --  1263.1491              1281.6970              1311.3941
 Red. masses --     2.5049                 2.0090                 3.3626
 Frc consts  --     0.0000                 0.0000                 0.0000
 IR Inten    --     4.3762                 2.8038                12.7017
 Raman Activ --     0.0000                 0.0000                 0.0000
 Depolar     --     0.0000                 0.0000                 0.0000
 Atom AN      X      Y      Z        X      Y      Z        X      Y      Z
   1   7     0.08  -0.06  -0.05     0.00   0.02  -0.05     0.09  -0.06   0.13
   2   6     0.06   0.03  -0.08     0.05  -0.15  -0.05     0.16   0.29  -0.04
   3   6    -0.10   0.11   0.20    -0.08   0.04  -0.02     0.12   0.19  -0.05
   4   6     0.01  -0.11  -0.00    -0.02   0.15   0.07    -0.01  -0.05   0.09
   5   6    -0.05  -0.01  -0.08     0.04  -0.08   0.06     0.07  -0.04  -0.01
   6   6     0.11   0.11   0.06    -0.07  -0.07  -0.06    -0.03   0.01  -0.03
   7  17    -0.00  -0.00  -0.00     0.00  -0.00   0.00    -0.00   0.00   0.00
   8   1    -0.05   0.01   0.00     0.05   0.00   0.02    -0.15  -0.01  -0.10
   9   1    -0.06   0.02  -0.03    -0.01  -0.03  -0.02    -0.04   0.04   0.01
  10   1     0.05   0.01   0.03     0.01   0.00   0.02    -0.01  -0.03  -0.07
  11   1    -0.28  -0.36  -0.03    -0.09  -0.18   0.05    -0.30  -0.34  -0.07
  12   1     0.21   0.29   0.02     0.20   0.27   0.02    -0.33  -0.38  -0.09
  13   1     0.07   0.16  -0.08     0.28   0.40   0.01    -0.16  -0.20  -0.03
  14   1    -0.06  -0.29   0.05    -0.20  -0.29  -0.05    -0.23  -0.26  -0.08
  15   1    -0.29   0.02  -0.09     0.25   0.02   0.10     0.14   0.03   0.06
  16   1     0.12  -0.04   0.02    -0.30   0.07  -0.04    -0.17  -0.03  -0.11
  17   1    -0.23   0.10   0.17     0.24  -0.11  -0.14    -0.04   0.01   0.02
  18   1     0.26  -0.07  -0.27    -0.23   0.11   0.19    -0.10   0.06   0.07
  19   1    -0.08  -0.01   0.15     0.05   0.01  -0.10     0.01  -0.01  -0.01
  20   1    -0.01  -0.04  -0.04     0.01   0.02   0.05    -0.00   0.00   0.04
  21   1    -0.01  -0.01  -0.10     0.01   0.01   0.06     0.02   0.00   0.01
                     31                     32                     33
                        a                      a                      a 
 Frequencies --  1353.0201              1364.5816              1370.5562
 Red. masses --     4.1546                 4.7927                 4.5700
 Frc consts  --     0.0000                 0.0000                 0.0000
 IR Inten    --    10.2946                 3.4233                 2.7737
 Raman Activ --     0.0000                 0.0000                 0.0000
 Depolar     --     0.0000                 0.0000                 0.0000
 Atom AN      X      Y      Z        X      Y      Z        X      Y      Z
   1   7    -0.03   0.02  -0.04    -0.01  -0.00   0.01     0.03  -0.04   0.05
   2   6    -0.07  -0.09   0.00     0.00  -0.01  -0.02     0.19   0.19   0.05
   3   6     0.03   0.07   0.03     0.11  -0.05   0.00    -0.30  -0.33  -0.08
   4   6     0.16  -0.03   0.15    -0.50   0.01  -0.06     0.05   0.10   0.02
   5   6     0.31  -0.14  -0.30     0.26  -0.02  -0.08     0.09  -0.05  -0.09
   6   6    -0.08   0.04  -0.06    -0.06   0.05  -0.02    -0.03   0.01  -0.02
   7  17    -0.00  -0.00   0.00     0.00  -0.00  -0.00     0.00  -0.00   0.00
   8   1     0.04   0.00   0.02     0.01  -0.01  -0.01    -0.02   0.00   0.01
   9   1     0.04  -0.02   0.00     0.01  -0.01   0.00    -0.08   0.08  -0.01
  10   1     0.01   0.02   0.06     0.00   0.01  -0.00    -0.01  -0.01  -0.12
  11   1     0.09   0.11   0.01     0.03   0.04  -0.01    -0.18  -0.22  -0.05
  12   1     0.09   0.10   0.02    -0.00   0.04  -0.01    -0.19  -0.20  -0.03
  13   1    -0.09  -0.11  -0.05     0.10   0.08   0.07     0.27   0.37   0.11
  14   1    -0.04  -0.03  -0.01    -0.11  -0.10  -0.03     0.30   0.31   0.08
  15   1    -0.34   0.09  -0.08     0.40   0.02   0.14    -0.15   0.01  -0.04
  16   1    -0.13  -0.00  -0.04     0.52  -0.06   0.13     0.09   0.03   0.06
  17   1    -0.31   0.14   0.23    -0.27   0.11   0.18    -0.06   0.02   0.04
  18   1    -0.40   0.17   0.30    -0.04  -0.02   0.10    -0.13   0.08   0.08
  19   1    -0.03  -0.05   0.05     0.02  -0.03   0.00    -0.00  -0.03   0.02
  20   1    -0.03  -0.02   0.18    -0.01   0.01   0.08    -0.01  -0.01   0.04
  21   1     0.01   0.04   0.09     0.05   0.00   0.00     0.01   0.02   0.04
                     34                     35                     36
                        a                      a                      a 
 Frequencies --  1399.9131              1406.7225              1434.0785
 Red. masses --     2.7963                 1.6587                 3.1405
 Frc consts  --     0.0000                 0.0000                 0.0000
 IR Inten    --   213.3389               106.0381                 9.3714
 Raman Activ --     0.0000                 0.0000                 0.0000
 Depolar     --     0.0000                 0.0000                 0.0000
 Atom AN      X      Y      Z        X      Y      Z        X      Y      Z
   1   7    -0.23  -0.21  -0.18    -0.19   0.05   0.02     0.00   0.03  -0.06
   2   6     0.03   0.06  -0.01    -0.00   0.10   0.02     0.01   0.04  -0.02
   3   6     0.00   0.02  -0.01    -0.02  -0.03  -0.00     0.00  -0.03   0.02
   4   6    -0.01  -0.01   0.00     0.01   0.01  -0.00    -0.02  -0.00  -0.04
   5   6    -0.00   0.00   0.01    -0.00  -0.00   0.01    -0.08   0.04   0.07
   6   6    -0.00   0.00   0.01     0.00  -0.00  -0.00     0.17  -0.02  -0.38
   7  17    -0.00  -0.00  -0.00    -0.00  -0.00  -0.00     0.00   0.00  -0.00
   8   1     0.26   0.07   0.52     0.40  -0.26  -0.38    -0.10   0.04   0.02
   9   1     0.38   0.44   0.04     0.12  -0.47   0.05     0.14  -0.07   0.03
  10   1     0.23   0.27   0.16     0.32   0.39   0.23    -0.05  -0.10   0.20
  11   1    -0.06  -0.07   0.03    -0.10  -0.09  -0.03    -0.01  -0.02   0.04
  12   1    -0.03  -0.10  -0.01    -0.00  -0.06   0.01     0.01  -0.06  -0.00
  13   1    -0.02  -0.02   0.00     0.00   0.00  -0.01     0.01   0.02  -0.05
  14   1    -0.02  -0.03  -0.01     0.02   0.04   0.01    -0.02   0.05  -0.01
  15   1     0.02  -0.01   0.01    -0.01  -0.01  -0.00     0.05   0.01   0.01
  16   1    -0.00  -0.01  -0.01     0.01  -0.00  -0.00     0.01   0.01   0.03
  17   1     0.00  -0.00  -0.01     0.00  -0.00  -0.01     0.09  -0.02  -0.02
  18   1     0.01  -0.00  -0.01     0.01   0.01  -0.01     0.08  -0.07  -0.03
  19   1     0.01  -0.00  -0.01    -0.01   0.00   0.00    -0.32  -0.06   0.34
  20   1    -0.00  -0.00  -0.02     0.00   0.00   0.00    -0.02  -0.09   0.46
  21   1     0.00  -0.00  -0.01     0.00  -0.00  -0.00    -0.20   0.20   0.40
                     37                     38                     39
                        a                      a                      a 
 Frequencies --  1435.2096              1489.5337              1504.1610
 Red. masses --     1.8240                 1.8764                 1.7207
 Frc consts  --     0.0000                 0.0000                 0.0000
 IR Inten    --    66.0983                 5.1586                 1.4577
 Raman Activ --     0.0000                 0.0000                 0.0000
 Depolar     --     0.0000                 0.0000                 0.0000
 Atom AN      X      Y      Z        X      Y      Z        X      Y      Z
   1   7    -0.01  -0.10   0.17    -0.00  -0.01   0.00     0.00  -0.01   0.00
   2   6    -0.04  -0.06   0.01     0.12  -0.15   0.20     0.02  -0.00   0.02
   3   6     0.03   0.05   0.00     0.01   0.02   0.01     0.05  -0.08   0.12
   4   6    -0.00  -0.02  -0.01     0.00  -0.02  -0.01    -0.01   0.10   0.07
   5   6    -0.03   0.01   0.02     0.01  -0.00   0.03    -0.01  -0.02  -0.01
   6   6     0.06  -0.01  -0.12     0.03  -0.01  -0.01    -0.05  -0.14  -0.02
   7  17    -0.00  -0.00   0.00    -0.00  -0.00  -0.00    -0.00   0.00   0.00
   8   1     0.30  -0.12  -0.04     0.02  -0.00   0.02     0.00   0.00   0.01
   9   1    -0.40   0.26  -0.08     0.04   0.01   0.01    -0.01   0.02  -0.00
  10   1     0.15   0.30  -0.62     0.03   0.02   0.03     0.00   0.00  -0.02
  11   1     0.04   0.04   0.02    -0.02   0.08  -0.66    -0.01  -0.01  -0.04
  12   1     0.06   0.04   0.02    -0.50   0.43  -0.10    -0.03   0.02  -0.00
  13   1    -0.04  -0.04  -0.00    -0.00  -0.01   0.01     0.03   0.07  -0.37
  14   1    -0.01  -0.04  -0.00     0.00  -0.02   0.00    -0.25   0.24  -0.07
  15   1     0.02   0.01   0.00    -0.00   0.03  -0.00    -0.04  -0.31   0.01
  16   1    -0.02   0.00   0.00    -0.02   0.01   0.03     0.08  -0.10  -0.28
  17   1     0.03  -0.01   0.00    -0.01  -0.02  -0.06     0.01   0.01   0.04
  18   1     0.03  -0.03  -0.01     0.00   0.04  -0.03     0.00  -0.02   0.00
  19   1    -0.11  -0.02   0.11    -0.03   0.04  -0.01    -0.27   0.24   0.07
  20   1    -0.01  -0.03   0.16    -0.02  -0.04   0.06     0.23   0.43   0.12
  21   1    -0.07   0.06   0.13    -0.09   0.01  -0.00     0.25  -0.09  -0.13
                     40                     41                     42
                        a                      a                      a 
 Frequencies --  1510.5587              1513.1836              1522.8195
 Red. masses --     1.7918                 1.6283                 1.7826
 Frc consts  --     0.0000                 0.0000                 0.0000
 IR Inten    --     1.2520                 0.6688                 1.3210
 Raman Activ --     0.0000                 0.0000                 0.0000
 Depolar     --     0.0000                 0.0000                 0.0000
 Atom AN      X      Y      Z        X      Y      Z        X      Y      Z
   1   7    -0.00  -0.01   0.00     0.00  -0.00  -0.00    -0.00  -0.00   0.01
   2   6     0.00   0.03  -0.01    -0.01   0.00  -0.00     0.01   0.00   0.00
   3   6     0.04  -0.06   0.06    -0.01   0.00  -0.00     0.07  -0.10   0.13
   4   6     0.01  -0.16  -0.11    -0.03   0.13   0.08    -0.00   0.01   0.02
   5   6     0.03  -0.03   0.00     0.02   0.03  -0.06     0.07  -0.05   0.14
   6   6     0.09  -0.08   0.07     0.15   0.01   0.07     0.03   0.10   0.01
   7  17    -0.00  -0.00   0.00     0.00   0.00   0.00    -0.00  -0.00   0.00
   8   1    -0.00   0.00   0.00     0.00  -0.00  -0.00     0.00  -0.00  -0.00
   9   1    -0.01   0.01  -0.00    -0.01  -0.00  -0.00    -0.02   0.01  -0.00
  10   1    -0.00   0.00  -0.01     0.00   0.00  -0.00    -0.00   0.00  -0.03
  11   1    -0.01  -0.02   0.06    -0.01  -0.02   0.03     0.02   0.01   0.03
  12   1     0.02  -0.06   0.01     0.03  -0.01   0.01     0.01  -0.02   0.00
  13   1     0.02   0.03  -0.20     0.00   0.01   0.01     0.03   0.07  -0.41
  14   1    -0.14   0.15  -0.04     0.01   0.01   0.00    -0.31   0.27  -0.09
  15   1     0.05   0.47  -0.02    -0.03  -0.35   0.01    -0.00  -0.06   0.01
  16   1    -0.12   0.15   0.43     0.10  -0.11  -0.32     0.03  -0.02  -0.05
  17   1    -0.03  -0.00   0.00     0.10   0.04   0.14    -0.26  -0.07  -0.31
  18   1    -0.01   0.02  -0.01    -0.02  -0.14   0.13    -0.01   0.33  -0.20
  19   1    -0.13   0.39  -0.17     0.06   0.27  -0.25     0.21  -0.21  -0.04
  20   1     0.03   0.04   0.20    -0.16  -0.32   0.17    -0.15  -0.29  -0.11
  21   1    -0.26  -0.08  -0.29    -0.54  -0.00  -0.21    -0.13   0.07   0.12
                     43                     44                     45
                        a                      a                      a 
 Frequencies --  1528.1171              2896.4444              2907.2794
 Red. masses --     1.9653                 1.9119                 1.9292
 Frc consts  --     0.0000                 0.0000                 0.0000
 IR Inten    --     0.3032                69.1652                61.8212
 Raman Activ --     0.0000                 0.0000                 0.0000
 Depolar     --     0.0000                 0.0000                 0.0000
 Atom AN      X      Y      Z        X      Y      Z        X      Y      Z
   1   7    -0.00   0.01  -0.00     0.00  -0.00   0.00     0.00   0.00   0.00
   2   6    -0.02  -0.01  -0.02     0.00  -0.00   0.00     0.00  -0.00   0.01
   3   6    -0.05   0.07  -0.11     0.00  -0.00  -0.00    -0.01   0.01   0.02
   4   6    -0.01   0.05   0.03    -0.00  -0.03   0.02     0.08   0.15  -0.23
   5   6     0.10  -0.11   0.18     0.16   0.22   0.08     0.03   0.01   0.02
   6   6     0.05  -0.08  -0.01    -0.01  -0.01  -0.00     0.00  -0.01   0.00
   7  17     0.00   0.00  -0.00     0.00  -0.00  -0.00     0.00   0.00  -0.00
   8   1    -0.00   0.00   0.00     0.00   0.00  -0.00     0.00   0.00   0.00
   9   1     0.01  -0.01   0.00    -0.00  -0.00   0.00    -0.00  -0.00   0.00
  10   1    -0.01  -0.01   0.01     0.00  -0.00   0.00     0.00  -0.00   0.00
  11   1     0.04   0.04   0.07    -0.01   0.01   0.00    -0.01   0.00   0.00
  12   1     0.05  -0.02   0.01     0.00  -0.00  -0.01     0.00  -0.00  -0.01
  13   1    -0.02  -0.05   0.32    -0.00   0.00  -0.00     0.02  -0.02   0.00
  14   1     0.23  -0.20   0.06    -0.00   0.00   0.01     0.02  -0.00  -0.10
  15   1     0.00  -0.11   0.01     0.00  -0.01  -0.01    -0.20   0.05   0.68
  16   1     0.02  -0.03  -0.10     0.02   0.13  -0.04    -0.09  -0.58   0.16
  17   1    -0.34  -0.09  -0.36    -0.05  -0.47   0.19     0.01   0.05  -0.01
  18   1    -0.02   0.43  -0.26    -0.53  -0.33  -0.50    -0.10  -0.07  -0.09
  19   1    -0.18   0.24  -0.01     0.03   0.02   0.03     0.00   0.00   0.00
  20   1     0.08   0.13   0.18     0.01  -0.01  -0.00    -0.01   0.00  -0.00
  21   1    -0.07  -0.04  -0.12     0.00   0.03  -0.02     0.00   0.01  -0.00
                     46                     47                     48
                        a                      a                      a 
 Frequencies --  2927.6217              2938.6501              2941.9525
 Red. masses --     1.8970                 1.5515                 1.5391
 Frc consts  --     0.0000                 0.0000                 0.0000
 IR Inten    --    20.2109                76.4434               100.3283
 Raman Activ --     0.0000                 0.0000                 0.0000
 Depolar     --     0.0000                 0.0000                 0.0000
 Atom AN      X      Y      Z        X      Y      Z        X      Y      Z
   1   7     0.00  -0.00  -0.00    -0.00   0.00  -0.00     0.00  -0.00   0.00
   2   6     0.04  -0.03  -0.04    -0.02   0.02   0.01    -0.02   0.01   0.02
   3   6    -0.19   0.11   0.16     0.00  -0.00  -0.01     0.04  -0.03  -0.05
   4   6    -0.01  -0.05  -0.00    -0.00  -0.08  -0.00     0.02  -0.16  -0.11
   5   6    -0.00  -0.00  -0.01     0.05  -0.14   0.14    -0.03   0.02  -0.05
   6   6    -0.00  -0.00  -0.00    -0.02   0.02  -0.00     0.01  -0.00   0.00
   7  17    -0.00   0.00   0.00    -0.00  -0.00   0.00    -0.00   0.00  -0.00
   8   1    -0.00  -0.00   0.00    -0.00  -0.00  -0.00    -0.00  -0.00   0.00
   9   1    -0.00  -0.00  -0.00     0.00  -0.00   0.00     0.00   0.00   0.00
  10   1     0.00  -0.00   0.00    -0.00   0.00   0.00    -0.00   0.00   0.00
  11   1    -0.13   0.11   0.01     0.07  -0.06  -0.01     0.06  -0.05  -0.01
  12   1    -0.03  -0.00   0.15     0.01   0.00  -0.04     0.02  -0.00  -0.08
  13   1     0.56  -0.42  -0.03    -0.00   0.00  -0.00    -0.11   0.08   0.00
  14   1     0.13   0.00  -0.54    -0.01   0.00   0.03    -0.04   0.00   0.16
  15   1    -0.03  -0.00   0.10    -0.03  -0.01   0.11    -0.19  -0.00   0.61
  16   1     0.04   0.21  -0.07     0.05   0.27  -0.09     0.11   0.58  -0.22
  17   1    -0.00  -0.02   0.01     0.13   0.74  -0.24    -0.03  -0.19   0.06
  18   1     0.03   0.02   0.02    -0.31  -0.23  -0.26     0.15   0.10   0.13
  19   1     0.01   0.01   0.01     0.01   0.01   0.01    -0.01  -0.01  -0.01
  20   1    -0.00   0.00  -0.00     0.07  -0.03  -0.00    -0.04   0.02  -0.00
  21   1    -0.00  -0.00   0.00    -0.01  -0.06   0.02     0.00   0.01  -0.00
                     49                     50                     51
                        a                      a                      a 
 Frequencies --  2953.5145              2963.0044              2980.3759
 Red. masses --     1.9905                 1.5073                 1.5216
 Frc consts  --     0.0000                 0.0000                 0.0000
 IR Inten    --    36.8218                33.1892                45.7705
 Raman Activ --     0.0000                 0.0000                 0.0000
 Depolar     --     0.0000                 0.0000                 0.0000
 Atom AN      X      Y      Z        X      Y      Z        X      Y      Z
   1   7    -0.00   0.00   0.00    -0.00  -0.00   0.00     0.00  -0.01   0.00
   2   6     0.17  -0.11  -0.20     0.04  -0.03   0.03    -0.10   0.11  -0.15
   3   6     0.06  -0.04  -0.04    -0.07   0.09  -0.17    -0.02   0.03  -0.05
   4   6     0.00  -0.01  -0.01     0.00   0.02  -0.01     0.00   0.01  -0.01
   5   6     0.00  -0.01   0.01     0.00  -0.00   0.00     0.00   0.01  -0.01
   6   6    -0.00   0.00  -0.00     0.01   0.00   0.01    -0.01   0.01   0.00
   7  17     0.00  -0.00   0.00    -0.00   0.00   0.00    -0.00   0.00   0.00
   8   1    -0.00  -0.00   0.00     0.00   0.01  -0.00    -0.00   0.00  -0.00
   9   1     0.00   0.00  -0.02    -0.00   0.00   0.00     0.00  -0.00  -0.02
  10   1     0.02  -0.02  -0.00     0.01  -0.00  -0.00    -0.03   0.02   0.00
  11   1    -0.48   0.40   0.06    -0.18   0.14   0.03     0.51  -0.41  -0.11
  12   1    -0.13  -0.00   0.65     0.04  -0.01  -0.15    -0.16   0.03   0.64
  13   1    -0.18   0.13   0.01     0.47  -0.35  -0.07     0.15  -0.11  -0.02
  14   1    -0.03  -0.00   0.12    -0.22   0.03   0.69    -0.06   0.01   0.19
  15   1    -0.02   0.00   0.06    -0.00   0.00   0.01    -0.00   0.00   0.01
  16   1     0.01   0.04  -0.02    -0.01  -0.06   0.02    -0.01  -0.03   0.01
  17   1     0.01   0.06  -0.02     0.00   0.01  -0.00    -0.01  -0.04   0.01
  18   1    -0.01  -0.01  -0.01    -0.01  -0.00  -0.01     0.00   0.00   0.00
  19   1     0.00   0.00   0.00    -0.02  -0.02  -0.03    -0.00  -0.00  -0.00
  20   1     0.01  -0.00  -0.00    -0.02   0.01   0.00     0.03  -0.02   0.00
  21   1    -0.00  -0.01   0.00     0.00  -0.00   0.00    -0.00  -0.00   0.00
                     52                     53                     54
                        a                      a                      a 
 Frequencies --  2980.9781              2989.0372              3008.9000
 Red. masses --     1.9096                 1.9144                 1.2987
 Frc consts  --     0.0000                 0.0000                 0.0000
 IR Inten    --    89.0184                79.4592                49.1300
 Raman Activ --     0.0000                 0.0000                 0.0000
 Depolar     --     0.0000                 0.0000                 0.0000
 Atom AN      X      Y      Z        X      Y      Z        X      Y      Z
   1   7    -0.00   0.00  -0.00     0.00  -0.00  -0.00    -0.00  -0.00   0.00
   2   6    -0.00   0.00  -0.01    -0.00   0.00  -0.00    -0.00   0.00  -0.00
   3   6     0.00  -0.00   0.01     0.00  -0.00   0.01     0.00   0.00  -0.01
   4   6    -0.00  -0.00   0.01     0.00   0.00   0.00    -0.00   0.00  -0.00
   5   6     0.01  -0.02   0.02     0.01   0.02   0.00    -0.00   0.00  -0.01
   6   6     0.22  -0.16   0.07     0.15   0.24   0.03    -0.00  -0.02  -0.16
   7  17     0.00   0.00  -0.00    -0.00  -0.00   0.00     0.00  -0.00  -0.00
   8   1    -0.00  -0.00   0.00    -0.00  -0.00  -0.00     0.00   0.00  -0.00
   9   1     0.00  -0.00   0.00    -0.00   0.00   0.00     0.00  -0.00  -0.00
  10   1    -0.00  -0.00   0.00    -0.00   0.00  -0.00     0.00  -0.00  -0.00
  11   1     0.02  -0.02  -0.00     0.00  -0.00  -0.00     0.01  -0.01  -0.00
  12   1    -0.01   0.00   0.03    -0.00   0.00   0.01    -0.00   0.00   0.00
  13   1    -0.01   0.01   0.00    -0.01   0.01   0.00     0.00  -0.00  -0.00
  14   1     0.01  -0.00  -0.02     0.01  -0.00  -0.03    -0.01   0.00   0.02
  15   1     0.01  -0.00  -0.02     0.00   0.00  -0.00     0.00  -0.00  -0.00
  16   1     0.00   0.01  -0.00    -0.00  -0.01   0.00    -0.00  -0.01   0.00
  17   1     0.01   0.07  -0.02    -0.01  -0.04   0.01    -0.00  -0.01   0.00
  18   1    -0.04  -0.03  -0.04    -0.03  -0.02  -0.02     0.01   0.01   0.01
  19   1    -0.11  -0.14  -0.13    -0.37  -0.27  -0.38     0.46   0.36   0.43
  20   1    -0.76   0.39   0.01    -0.10   0.11   0.01    -0.37   0.19  -0.02
  21   1     0.08   0.32  -0.11    -0.07  -0.68   0.27    -0.07  -0.49   0.16
                     55                     56                     57
                        a                      a                      a 
 Frequencies --  3161.1865              3200.3226              3244.1269
 Red. masses --     2.0059                 1.8082                 1.6001
 Frc consts  --     0.0000                 0.0000                 0.0000
 IR Inten    --   518.0963               143.0749                84.8289
 Raman Activ --     0.0000                 0.0000                 0.0000
 Depolar     --     0.0000                 0.0000                 0.0000
 Atom AN      X      Y      Z        X      Y      Z        X      Y      Z
   1   7    -0.17   0.21   0.04     0.12   0.17  -0.13    -0.01   0.02   0.21
   2   6    -0.01   0.01  -0.00     0.00   0.00  -0.00     0.00   0.00   0.01
   3   6    -0.00   0.00  -0.00    -0.00   0.00  -0.00    -0.00  -0.00  -0.00
   4   6    -0.00  -0.00  -0.00    -0.00   0.00  -0.00    -0.00   0.00   0.00
   5   6    -0.00   0.00  -0.00     0.00   0.00   0.00     0.00  -0.00   0.00
   6   6     0.00   0.00   0.00    -0.00  -0.00  -0.00     0.00   0.00   0.00
   7  17     0.00  -0.00  -0.00    -0.00   0.00   0.00    -0.00   0.00  -0.00
   8   1    -0.09  -0.23   0.09    -0.24  -0.84   0.29    -0.05  -0.15   0.08
   9   1     0.01   0.02  -0.12    -0.04   0.03   0.19     0.21  -0.04  -0.92
  10   1     0.71  -0.56  -0.11    -0.18   0.17   0.02    -0.15   0.12   0.04
  11   1     0.03  -0.02  -0.00    -0.01   0.00   0.00    -0.01   0.01   0.00
  12   1    -0.00  -0.00   0.00    -0.00  -0.00   0.00     0.01  -0.00  -0.02
  13   1     0.00  -0.01  -0.00     0.00  -0.00  -0.00    -0.00   0.00   0.00
  14   1    -0.00   0.00   0.00    -0.00   0.00   0.01     0.00   0.00  -0.00
  15   1    -0.00  -0.00   0.00     0.00   0.00  -0.00     0.00  -0.00  -0.00
  16   1     0.00   0.00  -0.00    -0.00  -0.00   0.00    -0.00  -0.00   0.00
  17   1    -0.00  -0.00   0.00     0.00  -0.00   0.00     0.00   0.00  -0.00
  18   1     0.00   0.00   0.00    -0.00  -0.00  -0.00    -0.00  -0.00  -0.00
  19   1    -0.00  -0.00  -0.00     0.00   0.00   0.00    -0.00  -0.00  -0.00
  20   1     0.00  -0.00   0.00    -0.00   0.00  -0.00    -0.00   0.00  -0.00
  21   1    -0.00   0.00  -0.00    -0.00  -0.00   0.00    -0.00  -0.00   0.00
