 Entering Gaussian System
 *********************************************
 Gaussian 98:
 frequency output generated by the xtb code
 *********************************************
                         Standard orientation:
 --------------------------------------------------------------------
  Center     Atomic     Atomic              Coordinates (Angstroms)
  Number     Number      Type              X           Y           Z
 --------------------------------------------------------------------
    1          7             0       -1.209337   -1.834772    0.807687
    2          6             0        0.014110   -1.949940   -0.036807
    3          6             0        0.882716   -0.732565    0.037708
    4          6             0        0.362942    0.522748   -0.242702
    5          6             0        1.160788    1.646994   -0.180297
    6          6             0        2.493419    1.531197    0.163569
    7          6             0        3.024683    0.288815    0.445689
    8          6             0        2.225447   -0.835421    0.383334
    9         17             0       -3.126698    0.744725   -0.594410
   10          1             0       -1.816704   -1.069890    0.471798
   11          1             0       -0.958822   -1.621642    1.789756
   12          1             0       -1.770062   -2.701840    0.804691
   13          1             0       -0.267775   -2.129141   -1.080305
   14          1             0        0.589886   -2.831023    0.270683
   15          1             0       -0.679609    0.615343   -0.502169
   16          1             0        0.742512    2.617456   -0.398957
   17          1             0        3.117264    2.409604    0.212175
   18          1             0        4.066204    0.195920    0.714876
   19          1             0        2.640823   -1.805583    0.602914
 --------------------------------------------------------------------
     1 basis functions        1 primitive gaussians
     1 alpha electrons        1 beta electrons

 Harmonic frequencies (cm**-1), IR intensities (km*mol⁻¹),
 Raman scattering activities (A**4/amu), Raman depolarization ratios,
 reduced masses (AMU), force constants (mDyne/A) and normal coordinates:
                      1                      2                      3
                        a                      a                      a 
 Frequencies --  -131.1561                52.4442                89.5937
 Red. masses --    20.0849                12.6231                23.6325
 Frc consts  --     0.0000                 0.0000                 0.0000
 IR Inten    --   128.4405                 2.4282                32.6139
 Raman Activ --     0.0000                 0.0000                 0.0000
 Depolar     --     0.0000                 0.0000                 0.0000
 Atom AN      X      Y      Z        X      Y      Z        X      Y      Z
   1   7    -0.34   0.43  -0.29    -0.08   0.05  -0.02     0.04   0.09   0.03
   2   6    -0.14   0.13   0.03     0.09  -0.06   0.23    -0.03   0.17  -0.09
   3   6    -0.04   0.06   0.00     0.04  -0.02   0.14     0.06   0.09  -0.01
   4   6     0.03   0.09   0.02    -0.06   0.00   0.44     0.20   0.15  -0.02
   5   6     0.07   0.05   0.03    -0.06   0.01   0.36     0.33   0.06  -0.01
   6   6     0.07  -0.01   0.01     0.04  -0.00  -0.04     0.30  -0.08   0.04
   7   6     0.01  -0.04  -0.03     0.15  -0.03  -0.37     0.16  -0.13   0.09
   8   6    -0.04  -0.01  -0.04     0.15  -0.03  -0.26     0.04  -0.04   0.06
   9  17     0.29  -0.51   0.21    -0.16   0.05  -0.30    -0.70  -0.20  -0.06
  10   1    -0.08   0.11  -0.17    -0.02  -0.02  -0.09    -0.04  -0.02   0.01
  11   1    -0.15   0.17  -0.08    -0.07   0.08  -0.01     0.03   0.05  -0.00
  12   1    -0.10   0.12  -0.06    -0.00   0.00   0.02     0.05  -0.00   0.04
  13   1     0.02  -0.01  -0.00     0.08  -0.08   0.06    -0.03   0.09  -0.03
  14   1    -0.08   0.04   0.09     0.02   0.01   0.14    -0.01   0.03  -0.07
  15   1     0.01   0.04   0.01    -0.03   0.01   0.19     0.06   0.07  -0.02
  16   1     0.03   0.02   0.02    -0.04   0.01   0.17     0.13   0.03  -0.01
  17   1     0.03  -0.01   0.01     0.01   0.00  -0.03     0.11  -0.04   0.01
  18   1     0.00  -0.03  -0.02     0.07  -0.01  -0.20     0.04  -0.07   0.04
  19   1    -0.02  -0.01  -0.02     0.07  -0.01  -0.15    -0.02  -0.02   0.02
                      4                      5                      6
                        a                      a                      a 
 Frequencies --   126.6386               148.3256               264.4334
 Red. masses --    13.7413                10.5263                 9.0671
 Frc consts  --     0.0000                 0.0000                 0.0000
 IR Inten    --    15.4572                11.1810                10.2258
 Raman Activ --     0.0000                 0.0000                 0.0000
 Depolar     --     0.0000                 0.0000                 0.0000
 Atom AN      X      Y      Z        X      Y      Z        X      Y      Z
   1   7    -0.15  -0.00  -0.45    -0.13  -0.42  -0.11     0.19   0.35  -0.03
   2   6     0.23  -0.17   0.15    -0.05   0.11  -0.07    -0.08   0.07  -0.35
   3   6     0.15  -0.10   0.14    -0.15   0.16   0.27     0.15  -0.16   0.10
   4   6     0.08  -0.17  -0.04    -0.06   0.20   0.27    -0.04  -0.20   0.28
   5   6    -0.01  -0.11  -0.18     0.10   0.10  -0.05    -0.18  -0.12   0.10
   6   6    -0.01   0.04  -0.14     0.17  -0.02  -0.36    -0.08  -0.05  -0.26
   7   6     0.06   0.11   0.08     0.02  -0.02  -0.09     0.00   0.05   0.03
   8   6     0.14   0.05   0.22    -0.14   0.08   0.24     0.11  -0.05   0.27
   9  17    -0.29   0.22   0.20     0.16  -0.06  -0.00    -0.04  -0.01  -0.04
  10   1     0.03   0.05  -0.15    -0.03  -0.08   0.05     0.08   0.14   0.05
  11   1    -0.15  -0.04  -0.08    -0.06  -0.23   0.00     0.15   0.06  -0.02
  12   1    -0.08   0.03  -0.21    -0.02  -0.12  -0.16    -0.02   0.14   0.02
  13   1     0.20  -0.14   0.02     0.00   0.12  -0.04    -0.10   0.20  -0.11
  14   1     0.04  -0.02   0.18     0.01   0.02  -0.10    -0.10  -0.08  -0.25
  15   1     0.02  -0.07  -0.02    -0.03   0.08   0.12    -0.02  -0.09   0.09
  16   1    -0.02  -0.05  -0.09     0.05   0.04  -0.04    -0.09  -0.05   0.03
  17   1    -0.02   0.03  -0.07     0.09  -0.03  -0.21    -0.02  -0.01  -0.19
  18   1     0.02   0.06   0.04     0.01  -0.03  -0.05     0.01   0.06  -0.00
  19   1     0.06   0.03   0.10    -0.07   0.02   0.11     0.05   0.00   0.12
                      7                      8                      9
                        a                      a                      a 
 Frequencies --   290.9013               360.2018               365.4156
 Red. masses --     2.8625                 8.5166                 8.7996
 Frc consts  --     0.0000                 0.0000                 0.0000
 IR Inten    --     0.3078                 4.0110                 0.4244
 Raman Activ --     0.0000                 0.0000                 0.0000
 Depolar     --     0.0000                 0.0000                 0.0000
 Atom AN      X      Y      Z        X      Y      Z        X      Y      Z
   1   7     0.10  -0.04  -0.11    -0.30  -0.16   0.06     0.17   0.11  -0.03
   2   6     0.10  -0.06  -0.08    -0.25   0.13  -0.04     0.12  -0.07   0.01
   3   6    -0.05   0.03  -0.05     0.14  -0.11   0.22    -0.07   0.05  -0.09
   4   6    -0.09   0.04   0.07     0.13  -0.14   0.14    -0.19   0.12   0.41
   5   6    -0.02  -0.00  -0.01     0.05  -0.07  -0.29     0.08  -0.03  -0.31
   6   6     0.01  -0.06  -0.13    -0.04   0.15   0.13     0.02  -0.08  -0.07
   7   6    -0.06  -0.03   0.09     0.05   0.18   0.10    -0.14  -0.04   0.39
   8   6    -0.10   0.01   0.12     0.29  -0.01  -0.23    -0.03  -0.05  -0.33
   9  17     0.04   0.09   0.06     0.02   0.03   0.00    -0.01  -0.02  -0.01
  10   1    -0.23  -0.34  -0.32    -0.19  -0.16  -0.04     0.12   0.11   0.03
  11   1     0.02   0.51  -0.14    -0.10   0.07  -0.01     0.06  -0.05   0.01
  12   1     0.30  -0.19   0.40     0.05  -0.13   0.09    -0.04   0.09  -0.07
  13   1     0.05  -0.07  -0.02    -0.12   0.21  -0.03     0.06  -0.10   0.01
  14   1     0.06   0.02   0.02    -0.13  -0.05  -0.16     0.06   0.02   0.07
  15   1    -0.03   0.02   0.06     0.03  -0.07   0.07    -0.08   0.07   0.24
  16   1     0.01   0.01   0.00    -0.00  -0.05  -0.20     0.07  -0.01  -0.19
  17   1     0.02  -0.03  -0.08    -0.05   0.07   0.08     0.02  -0.03  -0.04
  18   1    -0.02  -0.02   0.05     0.01   0.09   0.05    -0.08  -0.01   0.25
  19   1    -0.05  -0.00   0.06     0.16   0.00  -0.18    -0.00  -0.04  -0.21
                     10                     11                     12
                        a                      a                      a 
 Frequencies --   458.4953               540.8083               589.0673
 Red. masses --    10.0485                 9.9078                11.1464
 Frc consts  --     0.0000                 0.0000                 0.0000
 IR Inten    --     5.5996                 5.6732                 2.3874
 Raman Activ --     0.0000                 0.0000                 0.0000
 Depolar     --     0.0000                 0.0000                 0.0000
 Atom AN      X      Y      Z        X      Y      Z        X      Y      Z
   1   7     0.22   0.09  -0.12     0.12   0.05  -0.04     0.04  -0.01  -0.01
   2   6     0.20   0.20   0.00    -0.09  -0.42  -0.15     0.03  -0.02   0.03
   3   6    -0.07   0.22   0.49    -0.29  -0.20   0.23     0.12  -0.09   0.04
   4   6    -0.16   0.04  -0.06     0.12  -0.02   0.12     0.42   0.10   0.09
   5   6    -0.09  -0.04  -0.24     0.23  -0.03  -0.09    -0.06   0.48  -0.07
   6   6    -0.23  -0.21   0.27     0.18   0.31   0.21    -0.15   0.10  -0.06
   7   6     0.04  -0.20  -0.20    -0.10   0.12  -0.20    -0.47  -0.10  -0.10
   8   6    -0.01  -0.12   0.03    -0.24   0.16   0.04     0.03  -0.43   0.06
   9  17    -0.00  -0.00   0.01    -0.01  -0.00   0.00    -0.00   0.00  -0.00
  10   1     0.05   0.01  -0.03     0.12   0.07  -0.04     0.01  -0.00  -0.01
  11   1     0.05   0.04  -0.03     0.13   0.08  -0.05     0.01  -0.00  -0.00
  12   1     0.07   0.02  -0.02    -0.10   0.10   0.12     0.01  -0.00  -0.00
  13   1     0.10   0.15  -0.03    -0.02  -0.09  -0.05     0.03  -0.03   0.01
  14   1     0.06   0.04  -0.06    -0.03  -0.12  -0.05     0.01   0.01   0.03
  15   1    -0.03  -0.04  -0.11     0.06   0.07  -0.05     0.11  -0.03   0.03
  16   1     0.05  -0.01  -0.19     0.04  -0.05  -0.14    -0.07   0.11  -0.03
  17   1    -0.07  -0.06   0.12     0.06   0.08   0.05     0.09  -0.06   0.03
  18   1     0.05  -0.04  -0.19    -0.01  -0.07  -0.16    -0.13   0.03  -0.03
  19   1    -0.03  -0.07  -0.11     0.01   0.06  -0.05     0.06  -0.09   0.03
                     13                     14                     15
                        a                      a                      a 
 Frequencies --   656.5101               750.0058               794.1861
 Red. masses --     9.7897                 3.8311                 9.2170
 Frc consts  --     0.0000                 0.0000                 0.0000
 IR Inten    --     5.0209                19.4653                13.3803
 Raman Activ --     0.0000                 0.0000                 0.0000
 Depolar     --     0.0000                 0.0000                 0.0000
 Atom AN      X      Y      Z        X      Y      Z        X      Y      Z
   1   7     0.05   0.00  -0.03     0.09   0.02  -0.04     0.13   0.09  -0.05
   2   6     0.02  -0.05   0.03     0.04   0.03   0.08     0.09   0.41   0.12
   3   6    -0.14   0.03   0.43    -0.09  -0.01   0.25    -0.01  -0.07  -0.11
   4   6     0.08  -0.04  -0.32     0.04  -0.07  -0.12     0.05  -0.24   0.07
   5   6    -0.06   0.03   0.36     0.07  -0.10  -0.07     0.13  -0.37   0.10
   6   6     0.11  -0.01  -0.29     0.10   0.05  -0.16     0.15   0.24   0.05
   7   6    -0.13   0.05   0.35    -0.08  -0.01  -0.14    -0.37   0.03  -0.07
   8   6     0.02  -0.01  -0.32    -0.04  -0.02  -0.24    -0.22  -0.02  -0.00
   9  17    -0.00   0.00   0.00    -0.00  -0.00  -0.00     0.00   0.00  -0.00
  10   1     0.04   0.01  -0.03     0.05   0.00  -0.06    -0.13  -0.06   0.07
  11   1     0.02   0.03  -0.02    -0.02   0.02  -0.00    -0.06  -0.09   0.04
  12   1    -0.02   0.02   0.03     0.01   0.02  -0.02     0.23  -0.10  -0.18
  13   1     0.03   0.06  -0.01     0.01   0.16  -0.00     0.05   0.07   0.03
  14   1    -0.01  -0.03  -0.04    -0.00  -0.04  -0.10     0.04   0.14   0.08
  15   1     0.06  -0.02  -0.23    -0.05   0.05   0.23     0.03  -0.04  -0.02
  16   1    -0.00  -0.00   0.03    -0.10   0.01   0.35    -0.05  -0.16  -0.07
  17   1     0.07  -0.02  -0.24    -0.09   0.07   0.43     0.06   0.05  -0.09
  18   1    -0.01  -0.02   0.01    -0.13   0.01   0.39    -0.10  -0.11  -0.09
  19   1     0.05  -0.02  -0.26    -0.10   0.05   0.36    -0.00   0.01  -0.08
                     16                     17                     18
                        a                      a                      a 
 Frequencies --   838.7187               881.5568               912.0855
 Red. masses --     2.7733                 3.3182                 3.4518
 Frc consts  --     0.0000                 0.0000                 0.0000
 IR Inten    --    46.3334                 0.7256                 1.4723
 Raman Activ --     0.0000                 0.0000                 0.0000
 Depolar     --     0.0000                 0.0000                 0.0000
 Atom AN      X      Y      Z        X      Y      Z        X      Y      Z
   1   7    -0.07   0.05  -0.10     0.00  -0.01  -0.01     0.01   0.00  -0.02
   2   6    -0.18   0.08  -0.23     0.02  -0.02   0.04    -0.03   0.00  -0.00
   3   6    -0.04   0.02   0.17     0.01   0.00  -0.01    -0.01   0.00   0.04
   4   6     0.03  -0.03   0.01    -0.03   0.02   0.11     0.03  -0.02  -0.16
   5   6    -0.02  -0.00   0.02    -0.04   0.03   0.17     0.05  -0.03  -0.19
   6   6    -0.01  -0.01  -0.04    -0.04   0.02   0.18    -0.04   0.02   0.17
   7   6     0.07   0.01  -0.03     0.01  -0.01  -0.08    -0.07   0.04   0.29
   8   6     0.08  -0.02  -0.06     0.07  -0.03  -0.34     0.06  -0.03  -0.18
   9  17     0.01  -0.00  -0.01    -0.00   0.00   0.01    -0.00  -0.00  -0.01
  10   1    -0.27   0.00   0.40     0.02   0.00  -0.03    -0.01   0.00   0.03
  11   1     0.42  -0.13  -0.11    -0.05   0.03   0.01     0.06  -0.02  -0.02
  12   1     0.10  -0.06   0.13    -0.01   0.00  -0.00    -0.00   0.00   0.01
  13   1     0.25  -0.33  -0.08    -0.03   0.04   0.01     0.03  -0.00  -0.01
  14   1    -0.06   0.16   0.36     0.01  -0.02  -0.05    -0.02   0.00   0.02
  15   1     0.01  -0.05  -0.02     0.05  -0.03  -0.22    -0.10   0.07   0.40
  16   1    -0.01  -0.01  -0.02     0.11  -0.05  -0.42    -0.07   0.03   0.28
  17   1    -0.04   0.02   0.07     0.07  -0.04  -0.29     0.06  -0.03  -0.24
  18   1    -0.01   0.04   0.11    -0.04   0.01   0.14     0.14  -0.06  -0.57
  19   1     0.00   0.01   0.11    -0.16   0.08   0.63    -0.07   0.04   0.32
                     19                     20                     21
                        a                      a                      a 
 Frequencies --   933.9782               947.7985               964.7717
 Red. masses --     3.6277                 3.5207                 9.3064
 Frc consts  --     0.0000                 0.0000                 0.0000
 IR Inten    --     0.6528                 2.6476                28.2356
 Raman Activ --     0.0000                 0.0000                 0.0000
 Depolar     --     0.0000                 0.0000                 0.0000
 Atom AN      X      Y      Z        X      Y      Z        X      Y      Z
   1   7    -0.01  -0.00  -0.01    -0.02   0.00   0.01    -0.33  -0.12   0.18
   2   6     0.00  -0.01   0.01     0.03  -0.01  -0.02     0.29   0.04  -0.23
   3   6    -0.01   0.01   0.08     0.02   0.01  -0.01     0.12   0.18  -0.00
   4   6     0.03  -0.02  -0.19     0.03  -0.02  -0.32    -0.30   0.05  -0.04
   5   6     0.02  -0.01  -0.07    -0.06   0.02   0.31     0.11  -0.20   0.02
   6   6    -0.08   0.05   0.33     0.03   0.02  -0.07     0.16   0.22   0.01
   7   6     0.05  -0.03  -0.25    -0.02   0.00  -0.05    -0.23   0.03  -0.05
   8   6    -0.01  -0.00   0.07     0.01  -0.04   0.10     0.17  -0.28   0.06
   9  17    -0.00  -0.00  -0.00    -0.00  -0.00  -0.00    -0.00  -0.00   0.00
  10   1    -0.00   0.01   0.02    -0.00   0.00   0.01     0.09   0.08  -0.01
  11   1     0.04  -0.00  -0.01     0.02  -0.00  -0.00     0.05   0.09  -0.02
  12   1    -0.02   0.01   0.02    -0.03   0.01   0.01    -0.31   0.11   0.24
  13   1     0.03   0.02  -0.01     0.02   0.01  -0.01     0.13  -0.01  -0.07
  14   1    -0.02  -0.01   0.01    -0.01  -0.01  -0.01     0.13   0.06  -0.03
  15   1    -0.07   0.05   0.26    -0.16   0.11   0.61    -0.07   0.02  -0.10
  16   1    -0.04   0.02   0.19     0.15  -0.07  -0.55     0.03  -0.04   0.07
  17   1     0.15  -0.07  -0.59    -0.03   0.03   0.16     0.04   0.06   0.01
  18   1    -0.12   0.06   0.46    -0.00   0.01  -0.02    -0.05   0.03  -0.02
  19   1     0.05  -0.02  -0.18     0.03  -0.01  -0.04     0.07  -0.06   0.04
                     22                     23                     24
                        a                      a                      a 
 Frequencies --  1001.5125              1013.6139              1040.4496
 Red. masses --    10.2316                 6.4078                 5.0351
 Frc consts  --     0.0000                 0.0000                 0.0000
 IR Inten    --    15.9071                15.7360                 9.3811
 Raman Activ --     0.0000                 0.0000                 0.0000
 Depolar     --     0.0000                 0.0000                 0.0000
 Atom AN      X      Y      Z        X      Y      Z        X      Y      Z
   1   7    -0.28  -0.01   0.22    -0.20   0.29   0.10    -0.07  -0.14  -0.24
   2   6     0.37   0.11  -0.26     0.40  -0.32  -0.06     0.02   0.03   0.41
   3   6    -0.05  -0.04   0.02     0.05  -0.06   0.02     0.14   0.01  -0.19
   4   6     0.42  -0.14   0.10    -0.17   0.08  -0.03     0.05  -0.01   0.04
   5   6    -0.05   0.01  -0.01    -0.01   0.11  -0.03    -0.01   0.00   0.01
   6   6    -0.16  -0.22  -0.01     0.07   0.01   0.01    -0.01  -0.06  -0.00
   7   6     0.03  -0.05   0.01    -0.05  -0.01  -0.01    -0.06  -0.01   0.01
   8   6    -0.24   0.34  -0.11    -0.03   0.02  -0.02    -0.12   0.13  -0.01
   9  17    -0.00  -0.00  -0.00     0.01   0.00  -0.00    -0.00  -0.00  -0.00
  10   1    -0.00   0.03   0.01    -0.37  -0.08   0.25     0.02   0.08   0.14
  11   1    -0.07   0.04   0.04    -0.06  -0.15   0.08     0.41   0.02  -0.18
  12   1    -0.15   0.05   0.09     0.25  -0.12  -0.14    -0.17   0.06   0.28
  13   1     0.12  -0.00  -0.07     0.07   0.17  -0.05     0.22   0.41  -0.02
  14   1     0.19   0.11  -0.03    -0.17  -0.30  -0.11    -0.18  -0.17  -0.09
  15   1     0.11  -0.08   0.09    -0.05  -0.01  -0.03     0.02  -0.04  -0.03
  16   1    -0.11  -0.05  -0.03     0.07   0.07   0.03    -0.01  -0.01  -0.02
  17   1    -0.05  -0.06  -0.01     0.08  -0.04   0.03     0.02  -0.03   0.01
  18   1    -0.01  -0.10   0.01    -0.02  -0.05  -0.01    -0.02  -0.08  -0.02
  19   1    -0.10   0.08  -0.03    -0.01   0.01  -0.01    -0.07   0.01  -0.06
                     25                     26                     27
                        a                      a                      a 
 Frequencies --  1094.0892              1134.2237              1182.6016
 Red. masses --     6.5701                 3.8942                 1.2822
 Frc consts  --     0.0000                 0.0000                 0.0000
 IR Inten    --     1.7015                 0.6007                 0.1694
 Raman Activ --     0.0000                 0.0000                 0.0000
 Depolar     --     0.0000                 0.0000                 0.0000
 Atom AN      X      Y      Z        X      Y      Z        X      Y      Z
   1   7    -0.00  -0.01   0.01    -0.04   0.04   0.00     0.00  -0.00  -0.00
   2   6     0.03   0.04  -0.01     0.09  -0.08   0.03     0.00   0.01   0.00
   3   6    -0.02   0.00  -0.01    -0.11   0.08  -0.05     0.05  -0.05   0.02
   4   6    -0.08  -0.11  -0.01     0.22   0.13   0.05     0.04   0.05   0.00
   5   6    -0.25   0.23  -0.09     0.10  -0.18   0.05     0.01   0.03  -0.00
   6   6     0.24   0.36   0.02    -0.16   0.07  -0.05    -0.05   0.06  -0.02
   7   6     0.33  -0.16   0.10     0.14   0.02   0.03     0.01  -0.04   0.01
   8   6    -0.08  -0.16   0.00    -0.04  -0.24   0.02    -0.04  -0.06  -0.00
   9  17     0.00   0.00   0.00     0.00  -0.00  -0.00     0.00   0.00  -0.00
  10   1     0.02   0.00  -0.01    -0.05  -0.00   0.04     0.00   0.00  -0.00
  11   1    -0.01   0.01   0.00     0.02  -0.03   0.00    -0.00   0.00  -0.00
  12   1    -0.02   0.01   0.01     0.05  -0.03  -0.00    -0.01   0.00   0.00
  13   1     0.02   0.00  -0.00     0.03   0.06  -0.01     0.00   0.00  -0.00
  14   1     0.01   0.01   0.00    -0.04  -0.07  -0.03     0.01   0.01  -0.00
  15   1    -0.06  -0.24   0.04     0.12   0.39  -0.05    -0.01  -0.14   0.02
  16   1    -0.40  -0.09  -0.09    -0.14  -0.13  -0.02     0.40   0.20   0.08
  17   1     0.05   0.13  -0.00    -0.39   0.27  -0.13    -0.54   0.39  -0.18
  18   1     0.07  -0.32   0.05     0.08   0.31  -0.02    -0.05  -0.49   0.05
  19   1    -0.30  -0.18  -0.05    -0.34  -0.23  -0.06     0.15   0.06   0.03
                     28                     29                     30
                        a                      a                      a 
 Frequencies --  1203.7982              1214.4017              1236.3398
 Red. masses --     2.1674                 2.8480                 7.7062
 Frc consts  --     0.0000                 0.0000                 0.0000
 IR Inten    --     1.9335                10.8446                 3.2065
 Raman Activ --     0.0000                 0.0000                 0.0000
 Depolar     --     0.0000                 0.0000                 0.0000
 Atom AN      X      Y      Z        X      Y      Z        X      Y      Z
   1   7    -0.08   0.04  -0.10    -0.12   0.06  -0.21     0.02   0.00  -0.07
   2   6     0.09  -0.00   0.09     0.16  -0.01   0.15    -0.08  -0.22  -0.03
   3   6    -0.13  -0.06  -0.02    -0.13  -0.02   0.01     0.35   0.50   0.09
   4   6    -0.01   0.11  -0.01     0.01  -0.10   0.00     0.12   0.13   0.01
   5   6    -0.07  -0.00  -0.02     0.05   0.04   0.01     0.07  -0.20   0.04
   6   6    -0.02  -0.03  -0.00     0.02   0.05  -0.00    -0.06  -0.07  -0.01
   7   6     0.06  -0.11   0.03     0.04   0.01   0.01    -0.22  -0.01  -0.06
   8   6     0.11  -0.03   0.03    -0.03  -0.06  -0.00     0.08   0.17   0.00
   9  17     0.00  -0.00  -0.00     0.00   0.00  -0.00    -0.00   0.00  -0.00
  10   1    -0.06   0.03   0.09    -0.13   0.05   0.17    -0.05  -0.02   0.03
  11   1     0.11  -0.03  -0.05     0.17  -0.04  -0.09     0.01  -0.03  -0.01
  12   1     0.04  -0.03   0.05    -0.00  -0.00   0.11    -0.01   0.00   0.01
  13   1    -0.20   0.01   0.08    -0.50  -0.09   0.20    -0.32  -0.21   0.10
  14   1     0.21   0.07  -0.12     0.40   0.14  -0.24    -0.11  -0.12  -0.02
  15   1     0.05   0.44  -0.06    -0.04  -0.29   0.05     0.02  -0.14   0.04
  16   1    -0.38  -0.17  -0.07     0.17   0.09   0.04    -0.19  -0.16  -0.03
  17   1    -0.03   0.01  -0.01     0.00   0.02   0.00    -0.04  -0.01  -0.00
  18   1    -0.01  -0.30   0.03     0.04   0.25  -0.02    -0.09  -0.26   0.01
  19   1     0.48   0.20   0.09    -0.10  -0.06  -0.02    -0.17  -0.04  -0.04
                     31                     32                     33
                        a                      a                      a 
 Frequencies --  1286.4601              1320.4518              1344.0217
 Red. masses --     3.5019                 5.6073                10.4037
 Frc consts  --     0.0000                 0.0000                 0.0000
 IR Inten    --     5.5904                13.4766                 8.2299
 Raman Activ --     0.0000                 0.0000                 0.0000
 Depolar     --     0.0000                 0.0000                 0.0000
 Atom AN      X      Y      Z        X      Y      Z        X      Y      Z
   1   7    -0.02  -0.06  -0.05     0.07  -0.16  -0.08     0.08  -0.06  -0.03
   2   6     0.12   0.16  -0.03     0.29   0.27  -0.08     0.13   0.08  -0.02
   3   6     0.13  -0.20   0.08     0.03  -0.18   0.06    -0.34   0.18  -0.10
   4   6    -0.05  -0.18   0.01    -0.01   0.19  -0.02    -0.06  -0.35   0.03
   5   6    -0.13   0.01  -0.04    -0.09   0.00  -0.03     0.34   0.19   0.06
   6   6    -0.13   0.11  -0.04     0.19  -0.13   0.06    -0.25   0.19  -0.09
   7   6     0.00   0.09  -0.01     0.04   0.08  -0.00    -0.04  -0.39   0.04
   8   6     0.12   0.08   0.02    -0.24  -0.08  -0.05     0.30   0.16   0.05
   9  17    -0.00  -0.00   0.00     0.00  -0.00   0.00     0.00  -0.00  -0.00
  10   1     0.03   0.02   0.03     0.03   0.02   0.11    -0.04  -0.02   0.09
  11   1     0.04   0.01  -0.03    -0.08   0.12  -0.03    -0.09   0.08   0.00
  12   1    -0.03   0.00   0.05    -0.13   0.06   0.07    -0.10   0.06   0.01
  13   1    -0.22  -0.12   0.09    -0.33  -0.15   0.13    -0.07   0.00   0.02
  14   1    -0.09  -0.02   0.06    -0.45  -0.20   0.21    -0.26  -0.13   0.09
  15   1     0.05   0.51  -0.06    -0.02  -0.07   0.01    -0.01  -0.04   0.00
  16   1     0.28   0.16   0.06    -0.09  -0.03  -0.01    -0.03  -0.01  -0.00
  17   1     0.19  -0.13   0.07    -0.09   0.07  -0.03    -0.04   0.03  -0.01
  18   1    -0.04  -0.30   0.03     0.03   0.18  -0.01     0.00   0.04  -0.00
  19   1    -0.35  -0.16  -0.06     0.15   0.08   0.03     0.06   0.04   0.01
                     34                     35                     36
                        a                      a                      a 
 Frequencies --  1373.0718              1406.5851              1443.7181
 Red. masses --     2.7495                 1.6244                 8.1215
 Frc consts  --     0.0000                 0.0000                 0.0000
 IR Inten    --   132.4814                66.0930                 7.7245
 Raman Activ --     0.0000                 0.0000                 0.0000
 Depolar     --     0.0000                 0.0000                 0.0000
 Atom AN      X      Y      Z        X      Y      Z        X      Y      Z
   1   7    -0.31   0.05   0.07     0.02   0.12   0.13     0.01   0.03  -0.06
   2   6     0.07   0.08  -0.02     0.08   0.08   0.02     0.08  -0.02  -0.00
   3   6    -0.01   0.01   0.01    -0.04  -0.00  -0.00    -0.31   0.23  -0.11
   4   6    -0.03  -0.06  -0.00     0.01  -0.01   0.01     0.25   0.12   0.05
   5   6     0.06   0.07   0.01    -0.01   0.00  -0.00    -0.13  -0.30   0.00
   6   6     0.02  -0.00   0.01    -0.00   0.02  -0.00    -0.26   0.19  -0.09
   7   6    -0.03  -0.09   0.00     0.02  -0.01   0.01     0.24   0.21   0.04
   8   6     0.01   0.05  -0.01    -0.02  -0.02  -0.01    -0.05  -0.27   0.02
   9  17    -0.01  -0.00   0.00     0.00   0.01   0.01    -0.00   0.00  -0.00
  10   1     0.46   0.26  -0.31    -0.24  -0.41  -0.53     0.06   0.04  -0.02
  11   1     0.28  -0.18  -0.04     0.39  -0.39  -0.00    -0.10  -0.15   0.06
  12   1     0.46  -0.31   0.06    -0.25   0.18  -0.10     0.06  -0.03   0.20
  13   1    -0.07  -0.09   0.03    -0.07  -0.05   0.04    -0.01   0.05  -0.00
  14   1    -0.15  -0.09   0.01    -0.09  -0.05   0.01    -0.13  -0.08   0.05
  15   1    -0.02  -0.04   0.00     0.01  -0.00  -0.02     0.05  -0.16   0.04
  16   1    -0.02  -0.00  -0.01     0.01   0.00  -0.01     0.18   0.02   0.04
  17   1    -0.05   0.04  -0.01    -0.00   0.01  -0.01     0.26  -0.19   0.09
  18   1    -0.00   0.06  -0.00     0.01   0.03   0.01     0.05  -0.18   0.03
  19   1     0.01   0.02   0.01     0.04   0.02   0.02     0.16   0.01   0.04
                     37                     38                     39
                        a                      a                      a 
 Frequencies --  1451.2566              1473.5964              1479.9935
 Red. masses --     2.5638                 1.9770                 9.0045
 Frc consts  --     0.0000                 0.0000                 0.0000
 IR Inten    --    71.4291                17.6694                 0.9333
 Raman Activ --     0.0000                 0.0000                 0.0000
 Depolar     --     0.0000                 0.0000                 0.0000
 Atom AN      X      Y      Z        X      Y      Z        X      Y      Z
   1   7    -0.11  -0.12   0.19     0.03   0.03  -0.03     0.01   0.01  -0.01
   2   6     0.04   0.02   0.05    -0.04   0.24   0.15     0.06   0.09   0.00
   3   6    -0.11   0.04  -0.03    -0.03  -0.04   0.00    -0.23  -0.36  -0.02
   4   6     0.07   0.07   0.01    -0.01   0.02  -0.01    -0.11   0.29  -0.06
   5   6    -0.01  -0.09   0.01     0.02   0.01   0.01     0.35   0.06   0.08
   6   6    -0.10   0.04  -0.03    -0.01  -0.01  -0.00    -0.15  -0.22  -0.01
   7   6     0.06   0.09   0.01     0.00   0.02  -0.00    -0.06   0.36  -0.06
   8   6     0.02  -0.08   0.01     0.01   0.00   0.00     0.30  -0.00   0.07
   9  17    -0.00  -0.00  -0.00     0.00  -0.00  -0.00    -0.00   0.00   0.00
  10   1     0.01   0.01   0.05    -0.04   0.00   0.04     0.01  -0.00  -0.03
  11   1     0.35   0.51  -0.19    -0.11  -0.07   0.04    -0.00  -0.05   0.01
  12   1    -0.00  -0.01  -0.63    -0.02   0.02   0.12    -0.00   0.00   0.05
  13   1     0.01  -0.09   0.02     0.33  -0.57   0.01    -0.00   0.07  -0.00
  14   1    -0.03  -0.08  -0.12    -0.07  -0.25  -0.62     0.02   0.04   0.05
  15   1     0.01  -0.07   0.01    -0.00  -0.00   0.00    -0.08  -0.24   0.01
  16   1     0.04  -0.01   0.01    -0.02  -0.01   0.00    -0.20  -0.13  -0.04
  17   1     0.07  -0.06   0.03    -0.00  -0.00  -0.00    -0.05  -0.06  -0.00
  18   1     0.01  -0.08   0.01    -0.00  -0.01   0.00    -0.06  -0.25   0.01
  19   1     0.03  -0.01   0.01     0.01   0.00  -0.01    -0.21  -0.15  -0.03
                     40                     41                     42
                        a                      a                      a 
 Frequencies --  1599.5275              1612.0285              2932.7463
 Red. masses --    11.5133                11.5203                 1.9658
 Frc consts  --     0.0000                 0.0000                 0.0000
 IR Inten    --     0.6703                 0.7354              1177.6869
 Raman Activ --     0.0000                 0.0000                 0.0000
 Depolar     --     0.0000                 0.0000                 0.0000
 Atom AN      X      Y      Z        X      Y      Z        X      Y      Z
   1   7    -0.00  -0.00  -0.00    -0.01  -0.00   0.00    -0.13   0.19  -0.10
   2   6    -0.04   0.01  -0.01    -0.01  -0.03  -0.01     0.06  -0.07   0.07
   3   6     0.39  -0.25   0.13     0.12   0.25   0.00     0.00  -0.00   0.00
   4   6    -0.14   0.24  -0.06    -0.14  -0.46   0.02     0.01  -0.00   0.00
   5   6     0.33  -0.05   0.09     0.33   0.29   0.05    -0.00   0.00  -0.00
   6   6    -0.44   0.31  -0.15    -0.09  -0.19   0.00     0.00   0.00   0.00
   7   6     0.18  -0.24   0.07     0.14   0.45  -0.02     0.00   0.00   0.00
   8   6    -0.33   0.01  -0.08    -0.33  -0.28  -0.05    -0.00   0.00  -0.00
   9  17    -0.00   0.00   0.00     0.00  -0.00   0.00     0.00  -0.01   0.00
  10   1     0.00  -0.00  -0.00    -0.00  -0.00   0.01     0.51  -0.66   0.29
  11   1    -0.00  -0.00  -0.00     0.00   0.01  -0.00     0.00   0.02   0.04
  12   1    -0.01   0.00   0.01    -0.00  -0.00  -0.01    -0.03  -0.02  -0.01
  13   1    -0.01  -0.02   0.00    -0.01  -0.01   0.01    -0.03  -0.03  -0.12
  14   1     0.05   0.04   0.00    -0.01  -0.01  -0.01    -0.19   0.29  -0.11
  15   1    -0.05  -0.05  -0.01    -0.01   0.11  -0.02    -0.04   0.00  -0.01
  16   1    -0.03  -0.07   0.00    -0.09  -0.01  -0.02     0.00  -0.01   0.00
  17   1     0.10  -0.08   0.03    -0.04  -0.04  -0.00    -0.00  -0.00  -0.00
  18   1     0.06   0.04   0.01     0.01  -0.10   0.02    -0.00   0.00  -0.00
  19   1     0.06   0.07   0.00     0.09   0.01   0.02     0.00  -0.00   0.00
                     43                     44                     45
                        a                      a                      a 
 Frequencies --  2954.0220              2980.2444              3080.7012
 Red. masses --     1.9799                 1.5201                 1.8707
 Frc consts  --     0.0000                 0.0000                 0.0000
 IR Inten    --   127.1377                10.9693               274.1707
 Raman Activ --     0.0000                 0.0000                 0.0000
 Depolar     --     0.0000                 0.0000                 0.0000
 Atom AN      X      Y      Z        X      Y      Z        X      Y      Z
   1   7     0.06  -0.08   0.04     0.02  -0.03   0.02    -0.01   0.01  -0.01
   2   6     0.14  -0.12   0.20     0.03  -0.15  -0.15    -0.00   0.00  -0.00
   3   6     0.01  -0.00   0.01    -0.00  -0.01  -0.00    -0.00  -0.01  -0.00
   4   6    -0.01   0.00  -0.00    -0.00   0.00  -0.00    -0.26   0.02  -0.07
   5   6     0.00  -0.00   0.00    -0.00   0.00  -0.00     0.02  -0.04   0.01
   6   6    -0.00  -0.00  -0.00     0.00   0.00  -0.00     0.01   0.02   0.00
   7   6    -0.00  -0.00  -0.00     0.00  -0.00   0.00     0.01  -0.00   0.00
   8   6    -0.00   0.00  -0.00     0.00   0.00  -0.00     0.01  -0.01   0.00
   9  17    -0.00   0.00  -0.00    -0.00   0.00  -0.00     0.00   0.00  -0.00
  10   1    -0.21   0.27  -0.12    -0.07   0.09  -0.04     0.03  -0.03   0.01
  11   1     0.00  -0.01  -0.00    -0.01  -0.01  -0.04     0.00   0.00   0.01
  12   1     0.01   0.01   0.00     0.01   0.00  -0.00    -0.00  -0.00  -0.00
  13   1    -0.14  -0.10  -0.54     0.21   0.09   0.73     0.00   0.00   0.01
  14   1    -0.35   0.54  -0.18    -0.32   0.46  -0.20     0.00  -0.00   0.00
  15   1     0.03   0.00   0.01     0.01  -0.00   0.00     0.90  -0.09   0.23
  16   1    -0.00   0.00  -0.00     0.00  -0.00   0.00    -0.07   0.16  -0.04
  17   1     0.00   0.00   0.00    -0.00  -0.00  -0.00    -0.04  -0.06  -0.00
  18   1     0.00   0.00   0.00    -0.00   0.00  -0.00    -0.04   0.00  -0.01
  19   1     0.00  -0.01   0.00     0.00  -0.01   0.00    -0.02   0.05  -0.01
                     46                     47                     48
                        a                      a                      a 
 Frequencies --  3084.4377              3097.2866              3101.9392
 Red. masses --     1.7749                 1.8106                 1.8635
 Frc consts  --     0.0000                 0.0000                 0.0000
 IR Inten    --     9.8325                13.6020                38.9544
 Raman Activ --     0.0000                 0.0000                 0.0000
 Depolar     --     0.0000                 0.0000                 0.0000
 Atom AN      X      Y      Z        X      Y      Z        X      Y      Z
   1   7    -0.00   0.00  -0.00     0.00  -0.00   0.00    -0.00   0.00  -0.00
   2   6     0.00  -0.00  -0.00    -0.00   0.00  -0.00    -0.00   0.00  -0.00
   3   6     0.00  -0.01   0.00     0.00   0.01  -0.00     0.00   0.01   0.00
   4   6     0.00   0.00   0.00     0.04  -0.01   0.01    -0.05   0.00  -0.01
   5   6     0.01  -0.01   0.00     0.07  -0.16   0.04    -0.05   0.12  -0.03
   6   6     0.04   0.06   0.00     0.09   0.12   0.01    -0.00  -0.01   0.00
   7   6    -0.23   0.02  -0.06     0.01   0.00   0.00    -0.10   0.01  -0.03
   8   6     0.03  -0.08   0.02    -0.05   0.11  -0.03    -0.08   0.19  -0.04
   9  17    -0.00  -0.00   0.00    -0.00   0.00   0.00    -0.00  -0.00  -0.00
  10   1     0.00  -0.00   0.00    -0.00   0.00  -0.00     0.01  -0.00   0.00
  11   1     0.00   0.00   0.00    -0.00  -0.00  -0.00     0.00   0.00   0.01
  12   1    -0.00  -0.00  -0.00    -0.00  -0.00  -0.00    -0.00  -0.00  -0.00
  13   1     0.00   0.00   0.00    -0.00  -0.00  -0.00    -0.00   0.00  -0.00
  14   1    -0.00   0.01  -0.00     0.00  -0.00   0.00     0.00  -0.01   0.00
  15   1    -0.01   0.00  -0.00    -0.13   0.01  -0.03     0.14  -0.01   0.04
  16   1    -0.02   0.04  -0.01    -0.25   0.57  -0.13     0.19  -0.43   0.10
  17   1    -0.15  -0.22  -0.01    -0.32  -0.45  -0.02     0.01   0.02   0.00
  18   1     0.83  -0.07   0.21    -0.02   0.00  -0.00     0.33  -0.03   0.08
  19   1    -0.14   0.32  -0.07     0.18  -0.41   0.09     0.29  -0.67   0.15
                     49                     50                     51
                        a                      a                      a 
 Frequencies --  3109.0963              3162.5454              3196.4288
 Red. masses --     1.9129                 1.8099                 1.7040
 Frc consts  --     0.0000                 0.0000                 0.0000
 IR Inten    --    29.0321                35.7225                28.5397
 Raman Activ --     0.0000                 0.0000                 0.0000
 Depolar     --     0.0000                 0.0000                 0.0000
 Atom AN      X      Y      Z        X      Y      Z        X      Y      Z
   1   7     0.00  -0.00   0.00     0.07   0.08   0.22    -0.13  -0.19   0.01
   2   6     0.00  -0.00   0.00    -0.00   0.00   0.01    -0.00  -0.00   0.00
   3   6    -0.00  -0.00   0.00    -0.00  -0.00  -0.00    -0.00   0.00   0.00
   4   6    -0.01  -0.00  -0.00    -0.00   0.00  -0.00    -0.00   0.00  -0.00
   5   6    -0.06   0.14  -0.03     0.00  -0.00   0.00     0.00  -0.00   0.00
   6   6     0.13   0.18   0.01    -0.00  -0.00  -0.00    -0.00  -0.00  -0.00
   7   6     0.08  -0.01   0.02    -0.00   0.00  -0.00    -0.00  -0.00  -0.00
   8   6     0.02  -0.05   0.01    -0.00   0.00  -0.00     0.00   0.00   0.00
   9  17     0.00  -0.00  -0.00    -0.00  -0.00  -0.00    -0.00   0.00   0.00
  10   1    -0.00   0.00  -0.00     0.04  -0.03   0.04     0.02  -0.06   0.02
  11   1    -0.00  -0.00  -0.01    -0.25  -0.20  -0.91    -0.04  -0.04  -0.09
  12   1     0.00   0.00   0.00    -0.04  -0.08   0.02     0.51   0.82   0.02
  13   1    -0.00  -0.00  -0.00    -0.01  -0.00  -0.03    -0.00   0.00  -0.00
  14   1    -0.00   0.00  -0.00     0.01  -0.01   0.00     0.00  -0.00  -0.00
  15   1     0.02  -0.00   0.00     0.01  -0.00   0.00     0.00  -0.00   0.00
  16   1     0.20  -0.46   0.10    -0.00   0.00  -0.00    -0.00   0.00  -0.00
  17   1    -0.43  -0.60  -0.03     0.00   0.00  -0.00     0.00   0.00   0.00
  18   1    -0.26   0.02  -0.07     0.00  -0.00   0.00     0.00  -0.00   0.00
  19   1    -0.07   0.17  -0.04     0.00  -0.00   0.00     0.00  -0.00   0.00
