 Entering Gaussian System
 *********************************************
 Gaussian 98:
 frequency output generated by the xtb code
 *********************************************
                         Standard orientation:
 --------------------------------------------------------------------
  Center     Atomic     Atomic              Coordinates (Angstroms)
  Number     Number      Type              X           Y           Z
 --------------------------------------------------------------------
    1          7             0       -3.299447    1.732595   -1.668182
    2          6             0       -3.940433    1.659750   -0.325289
    3          6             0       -3.631807    0.348550    0.394092
    4          6             0       -2.178507    0.149633    0.633317
    5          6             0       -1.433330    0.807950    1.556754
    6          6             0       -0.063252    0.435253    1.558870
    7          6             0        0.251930   -0.513280    0.629720
    8          6             0        1.567226   -1.062098    0.403366
    9          6             0        1.883218   -2.003701   -0.533643
   10          6             0        3.257446   -2.363428   -0.543167
   11          6             0        3.990893   -1.702140    0.380859
   12         16             0        3.004592   -0.613764    1.291761
   13         16             0       -1.181706   -0.964324   -0.258454
   14         17             0        0.253355    2.055086   -1.613665
   15          1             0       -2.271927    1.703939   -1.586795
   16          1             0       -3.547924    2.597225   -2.168512
   17          1             0       -3.583453    0.932655   -2.253949
   18          1             0       -5.024843    1.788546   -0.430116
   19          1             0       -3.599796    2.503530    0.285838
   20          1             0       -4.007604   -0.492029   -0.199015
   21          1             0       -4.162994    0.298004    1.351864
   22          1             0       -1.847204    1.549704    2.221944
   23          1             0        0.669062    0.863890    2.224556
   24          1             0        1.151283   -2.428248   -1.202420
   25          1             0        3.671820   -3.092922   -1.222998
   26          1             0        5.045223   -1.823866    0.541636
 --------------------------------------------------------------------
     1 basis functions        1 primitive gaussians
     1 alpha electrons        1 beta electrons

 Harmonic frequencies (cm**-1), IR intensities (km*mol⁻¹),
 Raman scattering activities (A**4/amu), Raman depolarization ratios,
 reduced masses (AMU), force constants (mDyne/A) and normal coordinates:
                      1                      2                      3
                        a                      a                      a 
 Frequencies --   -45.2300               -24.6056                43.1028
 Red. masses --    27.6525                21.8416                21.5126
 Frc consts  --     0.0000                 0.0000                 0.0000
 IR Inten    --    61.8702                 1.1432                11.6340
 Raman Activ --     0.0000                 0.0000                 0.0000
 Depolar     --     0.0000                 0.0000                 0.0000
 Atom AN      X      Y      Z        X      Y      Z        X      Y      Z
   1   7    -0.32  -0.17   0.02     0.03   0.12   0.06    -0.20  -0.03   0.02
   2   6    -0.18  -0.10   0.07    -0.02   0.00   0.03    -0.14  -0.10   0.04
   3   6    -0.08  -0.06   0.11    -0.03  -0.06  -0.07     0.01  -0.09  -0.00
   4   6    -0.06   0.00   0.04    -0.03  -0.06  -0.05     0.04   0.02  -0.08
   5   6    -0.05   0.00   0.04    -0.05  -0.08  -0.02     0.10   0.24  -0.29
   6   6    -0.05   0.03   0.01    -0.05  -0.07  -0.01     0.10   0.24  -0.28
   7   6    -0.05   0.04  -0.01    -0.03  -0.05  -0.03     0.04   0.01  -0.06
   8   6    -0.04   0.06  -0.03    -0.03  -0.06   0.01     0.03  -0.05  -0.00
   9   6    -0.04   0.09  -0.07    -0.07  -0.33   0.26     0.02  -0.07   0.01
  10   6    -0.04   0.09  -0.08    -0.06  -0.27   0.24     0.01  -0.12   0.05
  11   6    -0.05   0.05  -0.04    -0.00   0.05  -0.03     0.01  -0.15   0.08
  12  16    -0.08   0.03  -0.01     0.06   0.46  -0.44     0.03  -0.18   0.07
  13  16    -0.08   0.07  -0.00    -0.02  -0.06  -0.09    -0.01  -0.31   0.20
  14  17     0.81  -0.07  -0.04     0.17   0.14   0.23     0.00   0.54   0.07
  15   1    -0.09  -0.06  -0.01     0.01   0.03   0.03    -0.05   0.01  -0.00
  16   1    -0.09  -0.04   0.00     0.01   0.04   0.03    -0.07  -0.01   0.01
  17   1    -0.11  -0.05   0.02     0.01   0.04  -0.00    -0.04  -0.01   0.00
  18   1    -0.06  -0.04   0.04    -0.00   0.00   0.00    -0.04  -0.06   0.02
  19   1    -0.05  -0.02   0.00    -0.01  -0.01   0.03    -0.05  -0.02   0.01
  20   1    -0.02  -0.03   0.05    -0.00  -0.00  -0.04     0.01  -0.03   0.00
  21   1    -0.01  -0.01   0.04    -0.02  -0.04  -0.03     0.02  -0.04   0.01
  22   1    -0.02  -0.00   0.02    -0.02  -0.03   0.00     0.04   0.12  -0.13
  23   1    -0.01   0.01   0.00    -0.02  -0.03   0.00     0.04   0.11  -0.12
  24   1    -0.01   0.03  -0.02    -0.03  -0.16   0.13     0.01  -0.01  -0.00
  25   1    -0.01   0.03  -0.03    -0.03  -0.13   0.12     0.00  -0.04   0.02
  26   1    -0.01   0.01  -0.01     0.01   0.05  -0.04    -0.00  -0.05   0.03
                      4                      5                      6
                        a                      a                      a 
 Frequencies --    56.5685                58.5237                81.7637
 Red. masses --    18.2789                25.0771                22.6496
 Frc consts  --     0.0000                 0.0000                 0.0000
 IR Inten    --    36.2999                25.8823                10.4671
 Raman Activ --     0.0000                 0.0000                 0.0000
 Depolar     --     0.0000                 0.0000                 0.0000
 Atom AN      X      Y      Z        X      Y      Z        X      Y      Z
   1   7    -0.03  -0.46  -0.25    -0.16   0.21   0.20    -0.37   0.03   0.01
   2   6     0.03  -0.10  -0.18    -0.06   0.01   0.22    -0.18  -0.02   0.08
   3   6     0.03   0.06   0.12     0.00  -0.08   0.02     0.04  -0.00   0.02
   4   6     0.03   0.05   0.11     0.01  -0.07  -0.01     0.08   0.11  -0.11
   5   6     0.02  -0.09   0.21    -0.03  -0.17   0.10     0.08   0.06  -0.07
   6   6     0.02  -0.09   0.17    -0.02  -0.15   0.09     0.08   0.07  -0.09
   7   6     0.03   0.04   0.04     0.02  -0.04  -0.00     0.09   0.13  -0.14
   8   6     0.01   0.01   0.01     0.03  -0.04   0.04     0.08   0.06  -0.07
   9   6    -0.08  -0.05   0.04     0.07  -0.07   0.08     0.07  -0.02   0.01
  10   6    -0.10  -0.15   0.02     0.06  -0.08   0.15     0.04  -0.14   0.14
  11   6    -0.04  -0.15  -0.02     0.03  -0.05   0.16     0.03  -0.16   0.17
  12  16     0.09  -0.08  -0.07    -0.01  -0.04   0.15     0.08  -0.04   0.04
  13  16     0.07   0.31  -0.08     0.09   0.09  -0.19     0.17   0.35  -0.35
  14  17    -0.09   0.44   0.01    -0.01   0.27  -0.67    -0.18  -0.34   0.29
  15   1    -0.01  -0.10  -0.07    -0.04   0.05   0.03    -0.10   0.00  -0.02
  16   1    -0.02  -0.16  -0.12    -0.05   0.07   0.09    -0.11   0.01   0.02
  17   1    -0.01  -0.17  -0.01    -0.05   0.08   0.03    -0.12   0.01   0.00
  18   1     0.01  -0.03  -0.04    -0.02   0.00   0.08    -0.06  -0.03   0.06
  19   1     0.02   0.01  -0.11    -0.01  -0.02   0.09    -0.05   0.00   0.01
  20   1    -0.01  -0.02   0.09     0.01  -0.00  -0.03     0.02  -0.01   0.01
  21   1     0.02   0.09   0.04     0.00  -0.07   0.01     0.04  -0.02   0.02
  22   1     0.00  -0.05   0.09    -0.02  -0.08   0.05     0.02   0.00  -0.00
  23   1     0.00  -0.05   0.07    -0.01  -0.07   0.05     0.02   0.01  -0.01
  24   1    -0.03  -0.01   0.02     0.03  -0.03   0.02     0.03   0.00  -0.01
  25   1    -0.05  -0.06   0.02     0.03  -0.03   0.05     0.01  -0.06   0.06
  26   1    -0.01  -0.06  -0.01     0.01  -0.01   0.06     0.00  -0.07   0.07
                      7                      8                      9
                        a                      a                      a 
 Frequencies --   107.4297               124.2164               185.5775
 Red. masses --    14.7177                11.8808                10.9754
 Frc consts  --     0.0000                 0.0000                 0.0000
 IR Inten    --     2.2129                31.2500                 4.4044
 Raman Activ --     0.0000                 0.0000                 0.0000
 Depolar     --     0.0000                 0.0000                 0.0000
 Atom AN      X      Y      Z        X      Y      Z        X      Y      Z
   1   7     0.00   0.17   0.00    -0.47   0.15  -0.31     0.17   0.04   0.13
   2   6    -0.13  -0.16  -0.07    -0.02   0.19  -0.08    -0.34  -0.21  -0.13
   3   6    -0.00  -0.22  -0.24     0.07   0.18  -0.13     0.03  -0.02   0.06
   4   6    -0.01  -0.03  -0.05     0.06   0.09  -0.08     0.08   0.24  -0.04
   5   6    -0.15   0.04   0.02     0.04  -0.03   0.02     0.14   0.17  -0.04
   6   6    -0.12   0.15   0.16     0.00  -0.18   0.16     0.09  -0.05   0.02
   7   6     0.04   0.16   0.21     0.00  -0.21   0.19    -0.03  -0.15   0.08
   8   6     0.02   0.13   0.17     0.02  -0.18   0.16    -0.06  -0.25   0.12
   9   6    -0.21   0.12   0.10     0.04  -0.10   0.10     0.01  -0.21   0.10
  10   6    -0.26  -0.04  -0.11     0.09   0.09  -0.09     0.08   0.07  -0.06
  11   6    -0.05  -0.15  -0.19     0.12   0.16  -0.16     0.06   0.22  -0.16
  12  16     0.33  -0.11  -0.02     0.12  -0.05   0.03    -0.11  -0.11   0.05
  13  16     0.28   0.07   0.12     0.03  -0.13   0.13    -0.05   0.25  -0.07
  14  17    -0.00  -0.05  -0.05    -0.04   0.01   0.05     0.01  -0.01  -0.04
  15   1    -0.00   0.06   0.02    -0.12   0.01  -0.16     0.04   0.09   0.14
  16   1    -0.00   0.07   0.04    -0.15   0.05  -0.06     0.02  -0.01   0.02
  17   1     0.03   0.07  -0.05    -0.20   0.05  -0.06     0.18  -0.01  -0.01
  18   1    -0.04  -0.09  -0.05    -0.01   0.07   0.07    -0.10  -0.21  -0.16
  19   1    -0.09  -0.06   0.03     0.06   0.05  -0.06    -0.28  -0.00  -0.01
  20   1     0.07  -0.06  -0.13     0.02   0.06  -0.04     0.05  -0.06   0.06
  21   1    -0.04  -0.13  -0.10     0.02   0.04  -0.04     0.03   0.00   0.03
  22   1    -0.08   0.00  -0.01     0.02   0.01  -0.01     0.06   0.06  -0.01
  23   1    -0.06   0.06   0.07    -0.00  -0.07   0.06     0.03  -0.05   0.02
  24   1    -0.10   0.07   0.05     0.01  -0.05   0.05     0.01  -0.09   0.05
  25   1    -0.13  -0.02  -0.06     0.03   0.05  -0.05     0.04   0.05  -0.04
  26   1    -0.01  -0.08  -0.10     0.04   0.09  -0.08     0.03   0.12  -0.08
                     10                     11                     12
                        a                      a                      a 
 Frequencies --   220.0741               247.0945               296.1255
 Red. masses --    13.6585                18.2268                13.9955
 Frc consts  --     0.0000                 0.0000                 0.0000
 IR Inten    --     4.1392                 1.4650                 1.7903
 Raman Activ --     0.0000                 0.0000                 0.0000
 Depolar     --     0.0000                 0.0000                 0.0000
 Atom AN      X      Y      Z        X      Y      Z        X      Y      Z
   1   7    -0.03   0.26  -0.14    -0.07   0.03  -0.08    -0.01   0.03  -0.10
   2   6    -0.23  -0.10  -0.24     0.20  -0.13   0.05     0.12  -0.07  -0.03
   3   6     0.03   0.02  -0.07     0.27  -0.20  -0.14    -0.10  -0.19  -0.15
   4   6     0.00   0.09   0.16     0.23   0.01   0.08    -0.16  -0.06   0.31
   5   6     0.07  -0.08   0.23     0.19   0.06   0.09    -0.05   0.02   0.16
   6   6     0.07  -0.14   0.11     0.18   0.05   0.07     0.02   0.16  -0.17
   7   6     0.03  -0.01  -0.05     0.03   0.03   0.04     0.01   0.13  -0.16
   8   6     0.06   0.11  -0.23    -0.12  -0.07  -0.10     0.02  -0.05  -0.04
   9   6     0.15   0.12  -0.22    -0.14  -0.07  -0.09     0.11  -0.18   0.10
  10   6     0.10  -0.08   0.06    -0.12   0.02  -0.01     0.16  -0.04   0.02
  11   6     0.01  -0.20   0.22    -0.23   0.10   0.03     0.18   0.12  -0.11
  12  16     0.01   0.10  -0.17    -0.54   0.08  -0.05     0.09  -0.21   0.05
  13  16    -0.18  -0.08   0.32     0.26   0.06   0.10    -0.30   0.29   0.10
  14  17     0.01  -0.01  -0.01    -0.01   0.00   0.01    -0.01   0.00   0.01
  15   1    -0.01   0.13   0.00    -0.02  -0.02  -0.08    -0.01  -0.17  -0.07
  16   1    -0.05   0.08  -0.00    -0.03   0.04   0.04     0.13   0.11   0.08
  17   1     0.07   0.08  -0.09    -0.07   0.04  -0.04    -0.16   0.12  -0.11
  18   1    -0.07  -0.15  -0.13     0.05  -0.02   0.07     0.04   0.05   0.02
  19   1    -0.20   0.01  -0.05     0.10  -0.06   0.02     0.10  -0.07   0.02
  20   1     0.07  -0.03  -0.01     0.16  -0.05  -0.11     0.07  -0.04  -0.14
  21   1    -0.04   0.01  -0.04     0.02  -0.14  -0.08    -0.14  -0.12  -0.11
  22   1     0.05  -0.03   0.09     0.05   0.01   0.02     0.01  -0.01   0.08
  23   1     0.04  -0.05   0.02     0.07   0.00   0.01     0.02   0.07  -0.08
  24   1     0.06   0.05  -0.10    -0.03  -0.03  -0.03     0.04  -0.08   0.03
  25   1     0.04  -0.05   0.05    -0.00   0.01   0.01     0.05   0.00  -0.00
  26   1    -0.01  -0.10   0.12    -0.07   0.05   0.02     0.06   0.08  -0.05
                     13                     14                     15
                        a                      a                      a 
 Frequencies --   322.5453               336.7457               375.6670
 Red. masses --     4.9510                 9.4019                18.9544
 Frc consts  --     0.0000                 0.0000                 0.0000
 IR Inten    --     4.3876                 6.5395                 1.5486
 Raman Activ --     0.0000                 0.0000                 0.0000
 Depolar     --     0.0000                 0.0000                 0.0000
 Atom AN      X      Y      Z        X      Y      Z        X      Y      Z
   1   7    -0.06   0.16  -0.10    -0.00  -0.19   0.15    -0.01   0.08  -0.08
   2   6     0.07   0.02  -0.02     0.08   0.08   0.17     0.14  -0.16   0.00
   3   6     0.01   0.01   0.03    -0.01  -0.13  -0.30     0.17  -0.12   0.04
   4   6    -0.04  -0.18   0.14    -0.03   0.19  -0.05     0.13   0.02   0.11
   5   6    -0.04  -0.14   0.12    -0.02   0.20  -0.07     0.23   0.04   0.01
   6   6     0.04   0.13  -0.12    -0.08  -0.09   0.09     0.14  -0.15  -0.13
   7   6     0.05   0.16  -0.15    -0.08  -0.16   0.14    -0.12  -0.20  -0.12
   8   6     0.01   0.05  -0.04    -0.02  -0.09   0.02     0.01   0.09   0.19
   9   6    -0.04  -0.10   0.09     0.11   0.06  -0.10    -0.16   0.18   0.11
  10   6    -0.02  -0.02   0.02     0.11   0.01  -0.02    -0.22   0.08  -0.02
  11   6     0.02   0.13  -0.12     0.06  -0.13   0.12    -0.11  -0.06  -0.00
  12  16    -0.04  -0.11   0.11     0.07   0.04  -0.14     0.27   0.19   0.21
  13  16     0.03  -0.03  -0.00    -0.20   0.19   0.07    -0.42  -0.06  -0.26
  14  17     0.02  -0.03   0.01     0.01  -0.01  -0.01     0.00  -0.00   0.00
  15   1    -0.00   0.50  -0.05     0.01   0.15   0.03     0.00   0.06  -0.07
  16   1    -0.43  -0.17  -0.19    -0.18  -0.20  -0.12    -0.06   0.04   0.03
  17   1     0.34  -0.20   0.14     0.16  -0.22   0.19     0.00   0.04  -0.05
  18   1     0.02  -0.02   0.01     0.03   0.11   0.09     0.04  -0.06   0.03
  19   1     0.01   0.01  -0.01     0.11  -0.02   0.06     0.04  -0.05   0.01
  20   1    -0.02   0.01   0.01     0.12   0.02  -0.25     0.09  -0.05   0.01
  21   1    -0.01   0.03   0.00    -0.09  -0.23  -0.14     0.02  -0.03  -0.00
  22   1    -0.02  -0.07   0.06     0.02   0.09  -0.04     0.10   0.02   0.01
  23   1     0.02   0.07  -0.06    -0.03  -0.05   0.05     0.09  -0.09  -0.07
  24   1    -0.02  -0.05   0.04     0.05   0.02  -0.05    -0.08   0.09   0.05
  25   1    -0.00  -0.00   0.00     0.03   0.00  -0.00    -0.09   0.02  -0.02
  26   1     0.01   0.07  -0.06     0.01  -0.06   0.06    -0.03  -0.06  -0.03
                     16                     17                     18
                        a                      a                      a 
 Frequencies --   403.4508               462.8374               507.9388
 Red. masses --    12.4138                10.6291                11.7571
 Frc consts  --     0.0000                 0.0000                 0.0000
 IR Inten    --     8.0073                 1.8019                 0.2611
 Raman Activ --     0.0000                 0.0000                 0.0000
 Depolar     --     0.0000                 0.0000                 0.0000
 Atom AN      X      Y      Z        X      Y      Z        X      Y      Z
   1   7     0.01  -0.19   0.16    -0.01  -0.09   0.09     0.01   0.02  -0.02
   2   6    -0.17   0.17   0.05    -0.20   0.21  -0.03     0.12  -0.13   0.04
   3   6     0.10   0.11  -0.23    -0.02   0.15  -0.17     0.14  -0.06   0.06
   4   6     0.12   0.24  -0.18    -0.04  -0.08   0.13     0.16   0.26  -0.29
   5   6     0.07  -0.13   0.12     0.05  -0.25   0.19    -0.13  -0.02   0.12
   6   6     0.06  -0.15   0.04     0.18   0.17  -0.26    -0.13   0.04   0.10
   7   6     0.06   0.18  -0.27     0.06  -0.04  -0.05    -0.03   0.34  -0.21
   8   6     0.08   0.27  -0.18    -0.02  -0.26   0.24    -0.09  -0.01   0.04
   9   6    -0.08  -0.02   0.08    -0.07  -0.07   0.05    -0.01  -0.19   0.24
  10   6    -0.12  -0.11   0.11    -0.01   0.21  -0.22     0.13   0.29  -0.21
  11   6    -0.01   0.20  -0.19    -0.13  -0.20   0.18     0.05  -0.21   0.21
  12  16     0.01  -0.08   0.22     0.03   0.18  -0.02     0.00  -0.05  -0.15
  13  16    -0.09  -0.20   0.08     0.12  -0.02  -0.03    -0.17  -0.12   0.04
  14  17    -0.00   0.00  -0.00    -0.00   0.00  -0.00     0.00  -0.00   0.00
  15   1    -0.01  -0.13   0.10    -0.01  -0.09   0.09     0.01   0.03  -0.04
  16   1     0.11  -0.07  -0.04     0.09  -0.05  -0.06    -0.04   0.02   0.04
  17   1    -0.03  -0.07   0.09    -0.02  -0.05   0.07     0.00   0.02  -0.03
  18   1    -0.05   0.01  -0.01    -0.06   0.00  -0.04     0.03  -0.02   0.04
  19   1    -0.08   0.06   0.01    -0.11   0.09  -0.02     0.06  -0.05   0.02
  20   1     0.11   0.07  -0.17     0.05   0.09  -0.15     0.01  -0.05   0.08
  21   1    -0.00  -0.12  -0.09    -0.07  -0.06  -0.09     0.12   0.03   0.06
  22   1     0.03  -0.06   0.07     0.03  -0.11   0.11    -0.09  -0.07   0.06
  23   1     0.03  -0.08   0.02     0.08   0.12  -0.14    -0.05  -0.03   0.07
  24   1    -0.04  -0.01   0.04    -0.04  -0.02   0.03     0.00  -0.12   0.10
  25   1    -0.04  -0.06   0.05     0.02   0.12  -0.12     0.05   0.16  -0.14
  26   1     0.01   0.07  -0.09    -0.04  -0.07   0.04     0.02  -0.03   0.05
                     19                     20                     21
                        a                      a                      a 
 Frequencies --   533.6107               566.8786               573.1051
 Red. masses --    11.6614                14.1608                12.9631
 Frc consts  --     0.0000                 0.0000                 0.0000
 IR Inten    --     1.6635                 1.7581                 0.2752
 Raman Activ --     0.0000                 0.0000                 0.0000
 Depolar     --     0.0000                 0.0000                 0.0000
 Atom AN      X      Y      Z        X      Y      Z        X      Y      Z
   1   7    -0.00   0.01  -0.02     0.02   0.02  -0.03    -0.02  -0.02   0.02
   2   6    -0.04   0.04  -0.02     0.06  -0.09   0.01    -0.05   0.07  -0.01
   3   6    -0.21  -0.02  -0.00    -0.19  -0.11   0.04     0.12   0.09  -0.02
   4   6    -0.18  -0.18   0.20    -0.07   0.21  -0.25     0.03  -0.21   0.27
   5   6     0.14   0.17  -0.29    -0.01  -0.14  -0.05     0.05   0.21  -0.05
   6   6     0.03  -0.34   0.15     0.02  -0.12  -0.09    -0.04  -0.08   0.22
   7   6     0.16   0.10  -0.22     0.19   0.15  -0.29    -0.01   0.40  -0.26
   8   6     0.14   0.11  -0.17     0.03  -0.42   0.25    -0.17  -0.26   0.35
   9   6    -0.09  -0.24   0.12     0.01   0.06  -0.24     0.05   0.19  -0.03
  10   6    -0.01   0.15  -0.22    -0.07  -0.17   0.01     0.01  -0.02   0.14
  11   6    -0.15  -0.11   0.08    -0.13   0.07  -0.10     0.12   0.06  -0.01
  12  16     0.02   0.11   0.15     0.06   0.20   0.16    -0.03  -0.09  -0.19
  13  16     0.13   0.08   0.11     0.03   0.13   0.28    -0.01  -0.18  -0.17
  14  17    -0.00  -0.00  -0.00     0.00  -0.00  -0.00    -0.00   0.00   0.00
  15   1    -0.00   0.01   0.00     0.01   0.04  -0.03    -0.01  -0.03   0.02
  16   1    -0.00  -0.00  -0.01    -0.04   0.01   0.03     0.03  -0.01  -0.03
  17   1     0.01  -0.00  -0.00     0.02   0.02  -0.03    -0.02  -0.02   0.02
  18   1    -0.01   0.05  -0.01     0.03   0.09   0.02    -0.02  -0.07  -0.02
  19   1     0.01  -0.00   0.00     0.11  -0.08   0.03    -0.09   0.06  -0.02
  20   1    -0.05   0.01  -0.02    -0.09  -0.06   0.07     0.07   0.05  -0.06
  21   1    -0.11  -0.00  -0.02     0.01   0.03   0.05    -0.03  -0.02  -0.04
  22   1     0.11   0.13  -0.13     0.02  -0.09   0.05     0.00   0.10  -0.07
  23   1    -0.02  -0.17   0.12    -0.03  -0.06   0.03    -0.01  -0.12   0.13
  24   1    -0.06  -0.12   0.11    -0.00   0.12  -0.13     0.05   0.11  -0.09
  25   1     0.03   0.10  -0.10     0.01  -0.06   0.03    -0.03  -0.02   0.04
  26   1    -0.04  -0.02  -0.01    -0.04  -0.02  -0.02     0.03  -0.00   0.03
                     22                     23                     24
                        a                      a                      a 
 Frequencies --   655.4367               703.1228               715.7370
 Red. masses --    16.0367                16.8739                14.6749
 Frc consts  --     0.0000                 0.0000                 0.0000
 IR Inten    --     2.5063                15.3728                 0.9026
 Raman Activ --     0.0000                 0.0000                 0.0000
 Depolar     --     0.0000                 0.0000                 0.0000
 Atom AN      X      Y      Z        X      Y      Z        X      Y      Z
   1   7     0.02   0.01  -0.03     0.03   0.02  -0.07     0.00   0.00  -0.01
   2   6    -0.03  -0.01  -0.02    -0.04  -0.02  -0.03    -0.05   0.01  -0.02
   3   6    -0.29  -0.09   0.00    -0.35  -0.08   0.11    -0.16  -0.05  -0.04
   4   6    -0.10   0.11  -0.09    -0.09   0.42   0.18    -0.01  -0.09  -0.13
   5   6     0.22  -0.18  -0.09    -0.01   0.25   0.28     0.21  -0.20  -0.15
   6   6     0.23  -0.11  -0.08     0.04   0.07   0.05     0.40   0.26   0.38
   7   6    -0.01  -0.07  -0.07    -0.03   0.02   0.05     0.19   0.24   0.31
   8   6    -0.03   0.18   0.18     0.01  -0.00  -0.01     0.03  -0.04  -0.03
   9   6    -0.06   0.23   0.24     0.06  -0.03  -0.01     0.00  -0.06  -0.07
  10   6    -0.11   0.23   0.22     0.06  -0.09  -0.08     0.03  -0.04  -0.03
  11   6     0.19   0.05   0.11    -0.04  -0.03  -0.05    -0.04   0.01   0.00
  12  16    -0.15  -0.29  -0.36    -0.02   0.06   0.06    -0.00   0.03   0.03
  13  16     0.11   0.05   0.10     0.22  -0.39  -0.33    -0.37  -0.07  -0.18
  14  17    -0.00   0.00  -0.00    -0.00  -0.00   0.00     0.00  -0.00   0.00
  15   1     0.00   0.02   0.00     0.01   0.04   0.00    -0.00   0.01   0.02
  16   1    -0.01   0.01   0.00    -0.02   0.01   0.01     0.01  -0.00  -0.01
  17   1     0.03   0.01  -0.02     0.05   0.01  -0.05     0.02  -0.00  -0.01
  18   1     0.01   0.13   0.00     0.01   0.18   0.01    -0.01   0.08   0.01
  19   1     0.09  -0.06   0.02     0.13  -0.08   0.01     0.05  -0.03   0.01
  20   1    -0.08  -0.04   0.01     0.03  -0.05  -0.01    -0.07  -0.01  -0.00
  21   1    -0.08  -0.01   0.01    -0.18  -0.06  -0.02    -0.03  -0.00  -0.00
  22   1     0.12  -0.06   0.02     0.07   0.05   0.15    -0.03  -0.07  -0.08
  23   1     0.09  -0.05  -0.04     0.05  -0.03   0.00     0.03   0.13   0.16
  24   1    -0.02   0.07   0.07     0.01  -0.01  -0.00     0.00  -0.02  -0.02
  25   1    -0.10   0.06   0.03     0.02  -0.02  -0.02     0.04  -0.00   0.00
  26   1     0.05   0.02   0.03    -0.01  -0.00  -0.00    -0.01   0.01   0.00
                     25                     26                     27
                        a                      a                      a 
 Frequencies --   722.1700               733.2805               809.3073
 Red. masses --    15.0102                 2.4664                12.8129
 Frc consts  --     0.0000                 0.0000                 0.0000
 IR Inten    --     3.9413                17.0310                45.4448
 Raman Activ --     0.0000                 0.0000                 0.0000
 Depolar     --     0.0000                 0.0000                 0.0000
 Atom AN      X      Y      Z        X      Y      Z        X      Y      Z
   1   7     0.00   0.00  -0.01     0.00   0.01   0.00     0.01  -0.01  -0.01
   2   6    -0.01   0.00  -0.00    -0.00  -0.00   0.00     0.05  -0.00   0.03
   3   6    -0.04  -0.01   0.01     0.00  -0.01  -0.01     0.04   0.03   0.05
   4   6    -0.01   0.04   0.01     0.00   0.00  -0.00    -0.02   0.05   0.04
   5   6    -0.01   0.03   0.03    -0.00  -0.01   0.01    -0.09   0.07  -0.00
   6   6     0.01   0.03   0.02    -0.00  -0.01   0.01    -0.07   0.01  -0.10
   7   6    -0.06   0.01   0.00     0.00   0.01  -0.01     0.26  -0.04   0.07
   8   6    -0.21  -0.19  -0.27    -0.00  -0.02   0.02     0.34   0.06   0.12
   9   6    -0.33  -0.19  -0.30     0.00  -0.01   0.01     0.07  -0.05   0.07
  10   6    -0.19   0.33   0.30     0.03   0.09  -0.09    -0.02  -0.02  -0.01
  11   6     0.01   0.22   0.24     0.06   0.24  -0.22    -0.51   0.32   0.17
  12  16     0.41  -0.11  -0.01    -0.01  -0.02   0.02     0.10  -0.25  -0.25
  13  16     0.07  -0.04  -0.02    -0.00   0.00   0.00    -0.10  -0.04  -0.06
  14  17    -0.00  -0.00   0.00     0.00   0.00   0.00    -0.00  -0.00   0.00
  15   1     0.00   0.00   0.00     0.00  -0.00  -0.00     0.01  -0.00  -0.06
  16   1    -0.00   0.00  -0.00     0.00   0.00  -0.00    -0.03   0.00   0.02
  17   1     0.01   0.00  -0.00    -0.00   0.00   0.00    -0.03   0.00   0.01
  18   1     0.00   0.02   0.00     0.00   0.00  -0.00     0.01  -0.07  -0.03
  19   1     0.01  -0.01   0.00    -0.00  -0.00   0.00    -0.06   0.03  -0.00
  20   1     0.00  -0.00   0.00    -0.00  -0.00   0.00     0.05   0.03  -0.04
  21   1    -0.02  -0.01  -0.00     0.00   0.00  -0.00    -0.03  -0.04  -0.01
  22   1    -0.00   0.00   0.01     0.00   0.01  -0.01    -0.03  -0.05   0.08
  23   1     0.02  -0.01  -0.00     0.01   0.02  -0.02    -0.09  -0.06   0.10
  24   1     0.01  -0.14  -0.14    -0.05  -0.19   0.17    -0.03   0.16  -0.04
  25   1     0.06   0.11   0.13    -0.04  -0.16   0.14     0.15   0.06   0.03
  26   1     0.00  -0.01   0.00    -0.16  -0.63   0.58    -0.16   0.15   0.20
                     28                     29                     30
                        a                      a                      a 
 Frequencies --   810.8681               815.5348               836.7774
 Red. masses --     4.0699                 3.1188                 5.3240
 Frc consts  --     0.0000                 0.0000                 0.0000
 IR Inten    --     5.1122                18.1044                34.4541
 Raman Activ --     0.0000                 0.0000                 0.0000
 Depolar     --     0.0000                 0.0000                 0.0000
 Atom AN      X      Y      Z        X      Y      Z        X      Y      Z
   1   7     0.00  -0.00  -0.01    -0.01  -0.00   0.01    -0.12   0.02   0.09
   2   6     0.00   0.02   0.00    -0.01  -0.02  -0.01    -0.19  -0.02  -0.15
   3   6    -0.00   0.01   0.02    -0.01  -0.01  -0.02     0.09  -0.06  -0.29
   4   6    -0.01  -0.05   0.01     0.01   0.04  -0.02     0.10  -0.14   0.07
   5   6     0.05   0.07  -0.11    -0.03  -0.10   0.12     0.04   0.08   0.07
   6   6     0.06   0.17  -0.14    -0.05  -0.17   0.17     0.02   0.05  -0.02
   7   6    -0.07  -0.06   0.05     0.01   0.03  -0.03    -0.16  -0.02  -0.05
   8   6    -0.06   0.05  -0.10     0.01   0.03  -0.02    -0.10   0.04  -0.00
   9   6    -0.09  -0.22   0.19    -0.05  -0.21   0.19     0.08   0.02   0.06
  10   6    -0.01  -0.03   0.04    -0.01  -0.04   0.03     0.06  -0.07  -0.06
  11   6     0.17  -0.02  -0.12    -0.00   0.06  -0.05    -0.20   0.08   0.03
  12  16    -0.03   0.09   0.05     0.01   0.02  -0.02     0.11  -0.05  -0.03
  13  16     0.02  -0.01   0.04     0.01   0.02  -0.03     0.01   0.03   0.04
  14  17    -0.00   0.00   0.00    -0.00   0.00  -0.00    -0.00   0.00  -0.00
  15   1     0.00  -0.00  -0.01    -0.00   0.00   0.02    -0.06  -0.01   0.35
  16   1    -0.00  -0.00  -0.01     0.00   0.00   0.01     0.16  -0.00  -0.08
  17   1    -0.01  -0.00   0.00     0.02   0.00  -0.01     0.18  -0.02  -0.04
  18   1    -0.00  -0.02  -0.01    -0.00   0.03   0.02    -0.04   0.28   0.21
  19   1    -0.02   0.02  -0.00     0.03  -0.02   0.00     0.28  -0.16  -0.00
  20   1     0.01   0.01  -0.02    -0.01  -0.01   0.02    -0.13  -0.14   0.20
  21   1    -0.02  -0.02  -0.01     0.02   0.02   0.01     0.17   0.28   0.02
  22   1    -0.08  -0.26   0.22     0.09   0.29  -0.26    -0.01  -0.01   0.04
  23   1    -0.08  -0.35   0.32     0.10   0.37  -0.35     0.04  -0.12   0.04
  24   1     0.11   0.38  -0.38     0.10   0.40  -0.37     0.03   0.02  -0.00
  25   1    -0.00   0.14  -0.15     0.04   0.15  -0.14     0.05  -0.01  -0.00
  26   1     0.01  -0.21   0.10    -0.03  -0.11   0.11    -0.06   0.08   0.07
                     31                     32                     33
                        a                      a                      a 
 Frequencies --   853.6566               857.7657               861.4037
 Red. masses --    11.6716                 4.0241                 3.4388
 Frc consts  --     0.0000                 0.0000                 0.0000
 IR Inten    --    21.5352                 2.5511                 1.5717
 Raman Activ --     0.0000                 0.0000                 0.0000
 Depolar     --     0.0000                 0.0000                 0.0000
 Atom AN      X      Y      Z        X      Y      Z        X      Y      Z
   1   7     0.06   0.00  -0.06     0.02  -0.00  -0.01     0.00   0.00  -0.00
   2   6     0.04   0.04   0.06     0.02  -0.00   0.02     0.00   0.00   0.00
   3   6    -0.09  -0.02   0.11    -0.03  -0.01   0.02    -0.01  -0.00   0.00
   4   6    -0.01  -0.03  -0.09    -0.00   0.03  -0.04    -0.00  -0.00  -0.00
   5   6     0.15  -0.07  -0.13    -0.05  -0.29   0.24     0.01   0.01  -0.02
   6   6     0.10   0.01   0.13     0.08   0.22  -0.19     0.00  -0.01   0.01
   7   6    -0.44   0.04  -0.09    -0.09  -0.01  -0.00    -0.02   0.01  -0.01
   8   6    -0.41   0.07  -0.05    -0.08   0.01  -0.01    -0.02  -0.00   0.00
   9   6     0.17   0.07   0.12     0.03   0.01   0.02    -0.03  -0.14   0.13
  10   6     0.16  -0.19  -0.13     0.03  -0.02  -0.04     0.08   0.30  -0.28
  11   6    -0.31   0.08  -0.00    -0.06   0.01   0.00    -0.03  -0.05   0.06
  12  16     0.24  -0.04   0.02     0.04  -0.01   0.01     0.01  -0.02   0.01
  13  16     0.14   0.05   0.10     0.03   0.01   0.01     0.01   0.00   0.00
  14  17    -0.00   0.00   0.00     0.00  -0.00   0.00     0.00   0.00   0.00
  15   1     0.02  -0.00  -0.14     0.01   0.00  -0.05     0.00  -0.00  -0.01
  16   1    -0.05  -0.00   0.00    -0.02  -0.00   0.01    -0.00  -0.00  -0.00
  17   1    -0.07   0.00   0.03    -0.03   0.00   0.01    -0.01  -0.00   0.01
  18   1     0.01  -0.07  -0.09     0.01  -0.02  -0.03     0.00  -0.01  -0.01
  19   1    -0.11   0.06   0.01    -0.03   0.01   0.00    -0.01   0.00   0.00
  20   1     0.01   0.05  -0.08    -0.00   0.01  -0.02    -0.00  -0.00  -0.00
  21   1    -0.07  -0.12   0.00    -0.01  -0.03   0.00    -0.00  -0.00  -0.00
  22   1    -0.04  -0.13   0.04     0.14   0.49  -0.47    -0.01  -0.03   0.03
  23   1     0.13   0.03  -0.10    -0.07  -0.36   0.32     0.01   0.01  -0.02
  24   1     0.09  -0.03   0.01     0.02  -0.00  -0.00     0.06   0.22  -0.20
  25   1     0.08  -0.01  -0.05     0.01  -0.04   0.02    -0.15  -0.59   0.54
  26   1    -0.09   0.13   0.13    -0.01   0.03   0.02     0.02   0.11  -0.09
                     34                     35                     36
                        a                      a                      a 
 Frequencies --   889.1556               904.1654              1020.0811
 Red. masses --     4.7065                 6.6236                 6.0800
 Frc consts  --     0.0000                 0.0000                 0.0000
 IR Inten    --    21.2210                27.9567                34.9332
 Raman Activ --     0.0000                 0.0000                 0.0000
 Depolar     --     0.0000                 0.0000                 0.0000
 Atom AN      X      Y      Z        X      Y      Z        X      Y      Z
   1   7     0.00  -0.07  -0.29     0.10   0.26  -0.31     0.20  -0.19  -0.06
   2   6    -0.20   0.05   0.11    -0.17   0.23   0.14    -0.27   0.19   0.11
   3   6     0.08   0.04   0.36     0.00  -0.37   0.16    -0.10  -0.10  -0.12
   4   6     0.07  -0.06  -0.05     0.12  -0.04  -0.03     0.25  -0.21  -0.05
   5   6    -0.02  -0.07  -0.07    -0.02   0.05   0.06    -0.05   0.20   0.18
   6   6    -0.07  -0.01  -0.03    -0.03  -0.01  -0.01     0.06   0.01   0.03
   7   6     0.00  -0.01  -0.01     0.03  -0.01  -0.01    -0.02  -0.04  -0.05
   8   6     0.01   0.00   0.00     0.05  -0.01   0.01     0.11  -0.00   0.02
   9   6    -0.00  -0.00  -0.00    -0.01  -0.01  -0.01    -0.02  -0.02  -0.03
  10   6     0.00   0.01  -0.01    -0.01   0.01   0.01    -0.01   0.01   0.01
  11   6     0.00   0.00   0.00     0.01  -0.00   0.00     0.01   0.00   0.01
  12  16    -0.00  -0.00  -0.00    -0.02  -0.00  -0.01    -0.02  -0.00  -0.01
  13  16    -0.02   0.04   0.04    -0.04   0.02   0.01    -0.04   0.04   0.03
  14  17     0.00  -0.00  -0.00    -0.00   0.00   0.00     0.00  -0.00   0.00
  15   1    -0.02   0.08   0.27     0.02  -0.15  -0.04     0.08   0.11  -0.29
  16   1     0.13   0.07   0.02     0.24  -0.10  -0.48    -0.24   0.04   0.29
  17   1     0.32   0.08  -0.35    -0.12  -0.13   0.26    -0.04   0.10  -0.16
  18   1    -0.06   0.12   0.21    -0.04   0.07  -0.04    -0.04   0.22  -0.13
  19   1     0.17   0.08  -0.18    -0.10   0.00   0.14    -0.01   0.04   0.01
  20   1     0.19   0.12  -0.18    -0.02  -0.12   0.09    -0.23   0.05  -0.00
  21   1    -0.06  -0.36   0.03     0.10  -0.12   0.10     0.22  -0.09   0.10
  22   1    -0.06  -0.01  -0.07    -0.02   0.02  -0.00    -0.16   0.03  -0.01
  23   1    -0.04   0.02   0.00     0.01  -0.01  -0.01     0.18  -0.13  -0.09
  24   1    -0.00  -0.00   0.00    -0.01   0.01   0.00    -0.05   0.03   0.02
  25   1    -0.00  -0.01   0.01     0.00   0.01  -0.00     0.04   0.01   0.02
  26   1    -0.00  -0.00   0.00     0.00  -0.00  -0.01     0.00  -0.02  -0.02
                     37                     38                     39
                        a                      a                      a 
 Frequencies --  1045.7607              1057.6283              1068.9285
 Red. masses --     7.1020                 5.1672                 4.4926
 Frc consts  --     0.0000                 0.0000                 0.0000
 IR Inten    --    13.4647                 9.3949                 3.2324
 Raman Activ --     0.0000                 0.0000                 0.0000
 Depolar     --     0.0000                 0.0000                 0.0000
 Atom AN      X      Y      Z        X      Y      Z        X      Y      Z
   1   7     0.05  -0.05  -0.32    -0.21   0.06   0.09     0.02  -0.00  -0.01
   2   6     0.06  -0.11   0.53     0.30   0.01  -0.13    -0.03  -0.02   0.02
   3   6    -0.06   0.06  -0.29    -0.17  -0.09   0.06     0.02   0.03  -0.01
   4   6    -0.13   0.06   0.01     0.07  -0.02  -0.11    -0.02   0.01   0.01
   5   6    -0.00   0.05   0.05    -0.13   0.13   0.11     0.02  -0.02  -0.02
   6   6     0.05  -0.00   0.01     0.20   0.02   0.09    -0.02  -0.01  -0.01
   7   6     0.01   0.02   0.02    -0.09  -0.04  -0.07    -0.02   0.02   0.01
   8   6    -0.03   0.00  -0.01     0.16   0.00   0.05    -0.00   0.00   0.01
   9   6     0.01   0.01   0.01    -0.08  -0.03  -0.05    -0.39  -0.01  -0.12
  10   6     0.00  -0.00  -0.00     0.03  -0.01   0.00     0.17  -0.14  -0.10
  11   6    -0.00  -0.00  -0.00     0.04   0.00   0.01     0.27  -0.07   0.00
  12  16     0.00   0.00   0.00    -0.03  -0.00  -0.01     0.02   0.03   0.03
  13  16     0.01  -0.03  -0.03     0.00   0.02   0.03     0.01  -0.01  -0.00
  14  17    -0.00  -0.00  -0.00    -0.00   0.00  -0.00     0.00   0.00  -0.00
  15   1     0.00   0.00   0.07    -0.07  -0.03   0.24     0.01   0.00  -0.03
  16   1     0.11   0.02  -0.06     0.13   0.01  -0.08    -0.01  -0.00  -0.00
  17   1     0.15   0.01  -0.18     0.08  -0.03   0.02    -0.01   0.00   0.00
  18   1    -0.02  -0.34   0.20     0.05  -0.22   0.01    -0.01   0.02   0.01
  19   1    -0.15   0.09   0.06    -0.07   0.14  -0.14     0.01  -0.02   0.02
  20   1    -0.33   0.12  -0.02    -0.15   0.08  -0.07     0.03  -0.01   0.01
  21   1     0.12   0.14   0.01    -0.11  -0.02  -0.02     0.00   0.01  -0.00
  22   1     0.17   0.03   0.10    -0.38  -0.00  -0.13     0.04  -0.00   0.01
  23   1     0.02  -0.01   0.00     0.34  -0.21  -0.14    -0.02   0.01   0.00
  24   1     0.01  -0.01  -0.01    -0.14   0.09   0.06    -0.36   0.19   0.11
  25   1    -0.02  -0.00  -0.01     0.15   0.02   0.06     0.06  -0.04  -0.03
  26   1    -0.00   0.01   0.01     0.01  -0.04  -0.04     0.05   0.47   0.52
                     40                     41                     42
                        a                      a                      a 
 Frequencies --  1080.0117              1089.7170              1163.3602
 Red. masses --     3.9056                 4.6381                 8.3581
 Frc consts  --     0.0000                 0.0000                 0.0000
 IR Inten    --     2.7311                 6.0300                25.7409
 Raman Activ --     0.0000                 0.0000                 0.0000
 Depolar     --     0.0000                 0.0000                 0.0000
 Atom AN      X      Y      Z        X      Y      Z        X      Y      Z
   1   7    -0.12  -0.02   0.09     0.12   0.05  -0.11     0.00  -0.12  -0.02
   2   6     0.15   0.16  -0.15    -0.15  -0.26   0.18     0.01   0.34   0.04
   3   6    -0.08  -0.20   0.03     0.03   0.30  -0.02     0.25  -0.28  -0.07
   4   6     0.08  -0.03  -0.04    -0.04   0.02   0.03    -0.40   0.28   0.20
   5   6    -0.01   0.08   0.08    -0.15   0.01  -0.03    -0.13  -0.11  -0.15
   6   6    -0.01  -0.03  -0.03     0.15  -0.01   0.03     0.18  -0.03   0.02
   7   6     0.18  -0.01   0.03     0.04  -0.04  -0.03    -0.02  -0.01  -0.01
   8   6    -0.06  -0.05  -0.07     0.07  -0.04  -0.02    -0.02  -0.02  -0.03
   9   6     0.11   0.01   0.04     0.08  -0.01   0.01     0.02   0.01   0.01
  10   6    -0.14   0.03  -0.00    -0.10   0.04   0.01     0.01   0.00   0.00
  11   6     0.01  -0.01  -0.01     0.00  -0.00   0.00    -0.00   0.01   0.02
  12  16     0.04   0.02   0.03     0.01   0.01   0.01     0.01  -0.00   0.00
  13  16    -0.04   0.00  -0.01     0.01   0.01   0.01     0.05  -0.04  -0.03
  14  17    -0.00  -0.00  -0.00    -0.00   0.00   0.00    -0.00  -0.00   0.00
  15   1    -0.04   0.01   0.11     0.04  -0.03  -0.11     0.00   0.06   0.01
  16   1     0.01   0.02   0.04     0.01  -0.03  -0.08    -0.05   0.03   0.13
  17   1     0.05   0.01  -0.04    -0.06  -0.02   0.06     0.06   0.04  -0.13
  18   1     0.03  -0.07  -0.06    -0.03   0.06   0.09    -0.01  -0.04   0.01
  19   1    -0.06   0.15  -0.13     0.07  -0.19   0.16    -0.08   0.16  -0.04
  20   1    -0.16   0.04  -0.03     0.19  -0.02   0.02     0.17  -0.27   0.20
  21   1     0.07  -0.08   0.05    -0.15   0.12  -0.09     0.17   0.07   0.05
  22   1     0.06   0.03   0.05    -0.43  -0.05  -0.19    -0.23  -0.05  -0.13
  23   1    -0.01   0.00  -0.00     0.21  -0.14  -0.09     0.04  -0.00   0.01
  24   1     0.27  -0.18  -0.13     0.15  -0.10  -0.07    -0.04   0.04   0.03
  25   1    -0.54  -0.06  -0.22    -0.32  -0.03  -0.13    -0.04  -0.01  -0.02
  26   1    -0.02   0.28   0.30    -0.01   0.13   0.14     0.00  -0.01  -0.01
                     43                     44                     45
                        a                      a                      a 
 Frequencies --  1186.1055              1191.8699              1205.9403
 Red. masses --     4.8538                 5.2351                 6.7417
 Frc consts  --     0.0000                 0.0000                 0.0000
 IR Inten    --     0.5942                 0.1382                 3.0714
 Raman Activ --     0.0000                 0.0000                 0.0000
 Depolar     --     0.0000                 0.0000                 0.0000
 Atom AN      X      Y      Z        X      Y      Z        X      Y      Z
   1   7    -0.04  -0.06  -0.04    -0.02  -0.05  -0.03    -0.06  -0.11  -0.07
   2   6     0.04   0.07   0.10     0.02   0.09   0.05     0.04   0.18   0.14
   3   6    -0.14  -0.06  -0.04    -0.01  -0.06  -0.01    -0.07  -0.09   0.02
   4   6     0.26   0.02   0.04     0.02   0.01  -0.00     0.23  -0.09  -0.10
   5   6     0.21   0.02   0.09     0.10  -0.05  -0.02    -0.00   0.02   0.03
   6   6     0.00   0.04   0.05    -0.05   0.04   0.03    -0.12  -0.10  -0.14
   7   6    -0.21  -0.17  -0.24    -0.19   0.00  -0.05     0.36   0.06   0.16
   8   6     0.13  -0.05  -0.02     0.27   0.19   0.28    -0.32  -0.00  -0.09
   9   6     0.07  -0.05  -0.03    -0.16  -0.04  -0.09    -0.04   0.11   0.11
  10   6    -0.03   0.02   0.01    -0.14   0.01  -0.02     0.07  -0.02  -0.01
  11   6     0.01   0.06   0.06     0.04  -0.16  -0.17    -0.02  -0.03  -0.04
  12  16     0.01  -0.01  -0.01    -0.06   0.02   0.00     0.02   0.00   0.01
  13  16     0.03   0.01   0.02     0.01   0.01   0.01    -0.06   0.02  -0.00
  14  17     0.00  -0.00  -0.00    -0.00  -0.00  -0.00    -0.00  -0.00  -0.00
  15   1    -0.01   0.02   0.04    -0.01   0.02   0.02    -0.02   0.05   0.06
  16   1     0.01   0.02   0.03    -0.00   0.01   0.03     0.01   0.03   0.07
  17   1     0.05   0.01  -0.07     0.03   0.01  -0.05     0.09   0.02  -0.13
  18   1     0.01  -0.02  -0.06     0.00  -0.01  -0.03     0.02   0.01  -0.12
  19   1    -0.08   0.03   0.06    -0.05   0.02   0.04    -0.13   0.02   0.16
  20   1    -0.03  -0.04   0.03     0.06  -0.08   0.05     0.18  -0.18   0.10
  21   1    -0.22   0.18  -0.10    -0.09   0.10  -0.05    -0.38   0.31  -0.18
  22   1    -0.29  -0.04  -0.14    -0.00  -0.02  -0.02    -0.01   0.01  -0.00
  23   1    -0.42   0.35   0.26    -0.02   0.02   0.01     0.09  -0.12  -0.11
  24   1    -0.13   0.10   0.08     0.41  -0.37  -0.29     0.01   0.02   0.02
  25   1    -0.16  -0.02  -0.06     0.33   0.06   0.16     0.12   0.01   0.04
  26   1     0.01  -0.02  -0.02    -0.00   0.15   0.16    -0.01  -0.01  -0.02
                     46                     47                     48
                        a                      a                      a 
 Frequencies --  1217.9211              1239.2284              1305.2925
 Red. masses --     6.3488                 2.7919                 9.0736
 Frc consts  --     0.0000                 0.0000                 0.0000
 IR Inten    --     6.4488                31.7817                16.3751
 Raman Activ --     0.0000                 0.0000                 0.0000
 Depolar     --     0.0000                 0.0000                 0.0000
 Atom AN      X      Y      Z        X      Y      Z        X      Y      Z
   1   7     0.03   0.07   0.04    -0.24  -0.06  -0.08     0.01  -0.02  -0.01
   2   6    -0.02  -0.11  -0.04     0.19  -0.04   0.04    -0.02   0.05  -0.04
   3   6    -0.05   0.04  -0.05    -0.00   0.17  -0.01     0.08  -0.00   0.08
   4   6     0.03   0.11   0.15    -0.06   0.01   0.06    -0.05  -0.14  -0.18
   5   6     0.00   0.07   0.07    -0.04  -0.00  -0.02    -0.39   0.14   0.04
   6   6     0.14  -0.17  -0.14     0.05  -0.01  -0.00     0.36   0.02   0.13
   7   6     0.33  -0.11  -0.02     0.00  -0.01  -0.01    -0.04  -0.14  -0.16
   8   6    -0.34   0.04  -0.05    -0.01  -0.00  -0.00    -0.01  -0.13  -0.15
   9   6    -0.09   0.18   0.17    -0.00   0.01   0.01     0.25   0.04   0.11
  10   6     0.01  -0.01  -0.00    -0.00   0.00   0.00    -0.29   0.14   0.08
  11   6    -0.01  -0.12  -0.13     0.00  -0.01  -0.01     0.01  -0.17  -0.18
  12  16     0.02   0.01   0.01     0.00   0.00   0.00     0.00   0.02   0.02
  13  16    -0.01  -0.01  -0.01     0.01  -0.00  -0.00     0.00   0.01   0.02
  14  17    -0.00  -0.00  -0.00    -0.00  -0.00  -0.00     0.00   0.00   0.00
  15   1     0.01  -0.03  -0.04    -0.08   0.02   0.17     0.00   0.02   0.01
  16   1    -0.01  -0.02  -0.04     0.11   0.04  -0.00    -0.01   0.00   0.01
  17   1    -0.04  -0.01   0.07     0.17  -0.03  -0.11    -0.01   0.01  -0.01
  18   1    -0.01  -0.01   0.07     0.13   0.19  -0.54    -0.01  -0.01   0.03
  19   1     0.06   0.02  -0.12    -0.15  -0.25   0.45    -0.01  -0.05   0.07
  20   1    -0.18   0.12  -0.06     0.02   0.05  -0.03     0.09  -0.01  -0.00
  21   1     0.16  -0.13   0.08     0.26  -0.20   0.13    -0.09   0.05  -0.04
  22   1    -0.37  -0.04  -0.14    -0.04  -0.00  -0.02     0.22   0.09   0.16
  23   1    -0.23   0.17   0.12    -0.01   0.02   0.02    -0.04   0.13   0.13
  24   1     0.13  -0.07  -0.04     0.01  -0.00  -0.00    -0.04   0.10   0.10
  25   1     0.30   0.04   0.13     0.01   0.00   0.01     0.18   0.08   0.14
  26   1    -0.01   0.06   0.06    -0.00   0.00   0.01    -0.02   0.13   0.14
                     49                     50                     51
                        a                      a                      a 
 Frequencies --  1323.3517              1328.2896              1339.8825
 Red. masses --     4.5983                 8.8914                 4.7991
 Frc consts  --     0.0000                 0.0000                 0.0000
 IR Inten    --    10.3062                 4.9178                 9.1269
 Raman Activ --     0.0000                 0.0000                 0.0000
 Depolar     --     0.0000                 0.0000                 0.0000
 Atom AN      X      Y      Z        X      Y      Z        X      Y      Z
   1   7    -0.07   0.06   0.08     0.04  -0.05  -0.03    -0.05   0.08   0.04
   2   6    -0.10  -0.19   0.20    -0.01   0.11  -0.12     0.07  -0.16   0.25
   3   6     0.34  -0.19   0.08     0.04  -0.01   0.08    -0.28   0.19  -0.17
   4   6    -0.09   0.08   0.01     0.00  -0.08  -0.10     0.08  -0.14  -0.07
   5   6    -0.13  -0.01  -0.05    -0.30   0.12   0.04    -0.13   0.07   0.04
   6   6     0.12  -0.03   0.00     0.34  -0.10  -0.01     0.12  -0.02   0.01
   7   6    -0.02  -0.00  -0.00     0.01  -0.08  -0.09    -0.00  -0.05  -0.05
   8   6     0.01   0.02   0.02    -0.01   0.12   0.13     0.00   0.02   0.02
   9   6    -0.07   0.01  -0.00    -0.39   0.09  -0.01    -0.09   0.03   0.01
  10   6     0.07  -0.03  -0.01     0.37  -0.16  -0.07     0.08  -0.03  -0.01
  11   6    -0.00   0.03   0.03    -0.03   0.15   0.16    -0.01   0.03   0.03
  12  16    -0.00  -0.00  -0.00    -0.00  -0.02  -0.02     0.00  -0.00  -0.01
  13  16     0.01  -0.00   0.00    -0.00   0.01   0.01    -0.01   0.01   0.01
  14  17     0.00  -0.00   0.00    -0.00  -0.00  -0.00    -0.00   0.00   0.00
  15   1    -0.01  -0.03  -0.09     0.01   0.03   0.04    -0.01  -0.03  -0.04
  16   1     0.06  -0.03  -0.11    -0.03   0.01   0.05     0.06  -0.01  -0.07
  17   1     0.06   0.02  -0.03    -0.04  -0.00   0.00     0.05  -0.00   0.01
  18   1     0.06   0.32  -0.41    -0.03  -0.09   0.15     0.05   0.07  -0.20
  19   1     0.06   0.15  -0.27    -0.03  -0.13   0.19     0.04   0.28  -0.40
  20   1    -0.24   0.23  -0.15     0.01   0.03  -0.02     0.37  -0.33   0.21
  21   1    -0.21   0.25  -0.13    -0.06   0.01  -0.02     0.15  -0.11   0.07
  22   1     0.04   0.01   0.02     0.09   0.06   0.09     0.08   0.03   0.07
  23   1    -0.00   0.02   0.02    -0.09   0.13   0.11    -0.04   0.05   0.05
  24   1     0.02  -0.03  -0.03     0.11  -0.15  -0.14     0.03  -0.03  -0.03
  25   1    -0.02  -0.01  -0.03    -0.14  -0.09  -0.13    -0.03  -0.02  -0.03
  26   1     0.00  -0.02  -0.03     0.01  -0.13  -0.14     0.00  -0.03  -0.03
                     52                     53                     54
                        a                      a                      a 
 Frequencies --  1396.1106              1406.5322              1432.7880
 Red. masses --     2.7402                 1.6706                 1.6929
 Frc consts  --     0.0000                 0.0000                 0.0000
 IR Inten    --   232.0773               120.2498                83.9942
 Raman Activ --     0.0000                 0.0000                 0.0000
 Depolar     --     0.0000                 0.0000                 0.0000
 Atom AN      X      Y      Z        X      Y      Z        X      Y      Z
   1   7     0.05   0.07  -0.34     0.19   0.08  -0.05    -0.07   0.18   0.09
   2   6    -0.01  -0.06   0.05     0.05  -0.02   0.05    -0.02   0.08  -0.04
   3   6     0.05  -0.01  -0.01    -0.00  -0.00  -0.00     0.01  -0.00   0.01
   4   6    -0.00   0.01   0.00    -0.00   0.00   0.00     0.01  -0.01  -0.01
   5   6    -0.01  -0.01  -0.01    -0.00  -0.00  -0.00    -0.01   0.00  -0.00
   6   6     0.01  -0.00  -0.00     0.00  -0.00  -0.00     0.01  -0.00   0.00
   7   6    -0.00   0.01   0.01     0.00   0.00   0.00    -0.01  -0.00  -0.00
   8   6     0.00  -0.01  -0.00    -0.00  -0.00  -0.00     0.00  -0.00   0.00
   9   6     0.00   0.00   0.00     0.00   0.00   0.00     0.00  -0.00   0.00
  10   6    -0.00   0.00   0.00    -0.00   0.00   0.00     0.00  -0.00  -0.00
  11   6     0.00  -0.00  -0.00     0.00  -0.00  -0.00     0.00   0.00   0.00
  12  16    -0.00   0.00   0.00     0.00   0.00   0.00    -0.00  -0.00  -0.00
  13  16    -0.00   0.00   0.00    -0.00   0.00   0.00    -0.00   0.00   0.00
  14  17    -0.00   0.00  -0.00    -0.00   0.00  -0.00    -0.00   0.00   0.00
  15   1    -0.03  -0.15   0.33    -0.03  -0.29   0.50    -0.00  -0.67  -0.30
  16   1    -0.14   0.28   0.50    -0.58  -0.26  -0.18    -0.22  -0.02   0.04
  17   1    -0.01  -0.36   0.47    -0.26   0.24  -0.19     0.57  -0.11  -0.09
  18   1     0.01   0.10  -0.06     0.03   0.05  -0.08    -0.02  -0.07   0.05
  19   1    -0.02   0.07  -0.09    -0.03   0.03   0.00     0.02  -0.04   0.06
  20   1    -0.05  -0.00   0.03     0.02   0.00  -0.02    -0.01  -0.01   0.02
  21   1    -0.05  -0.01  -0.03     0.01   0.02   0.01    -0.02  -0.02  -0.01
  22   1     0.01  -0.00   0.00    -0.00  -0.00   0.00     0.01   0.00   0.00
  23   1     0.00  -0.00   0.00     0.00  -0.00   0.00    -0.00   0.00   0.00
  24   1    -0.00   0.00   0.00    -0.00   0.00   0.00    -0.00   0.00   0.00
  25   1     0.00   0.00   0.00     0.00   0.00   0.00    -0.00  -0.00  -0.00
  26   1    -0.00   0.00   0.00    -0.00   0.00   0.00     0.00  -0.00  -0.00
                     55                     56                     57
                        a                      a                      a 
 Frequencies --  1462.4152              1463.4862              1476.0437
 Red. masses --    11.2465                 2.4934                 2.1799
 Frc consts  --     0.0000                 0.0000                 0.0000
 IR Inten    --    23.6785                16.9286                 8.4227
 Raman Activ --     0.0000                 0.0000                 0.0000
 Depolar     --     0.0000                 0.0000                 0.0000
 Atom AN      X      Y      Z        X      Y      Z        X      Y      Z
   1   7    -0.00   0.00  -0.00     0.00  -0.01   0.02     0.00   0.01  -0.01
   2   6    -0.00  -0.01  -0.00    -0.00   0.03   0.01    -0.16   0.20   0.10
   3   6    -0.04  -0.05   0.02     0.20   0.17  -0.08    -0.00  -0.02   0.02
   4   6    -0.05  -0.00  -0.01     0.01   0.03   0.01    -0.06  -0.03  -0.05
   5   6     0.10  -0.02   0.01    -0.01  -0.02  -0.02     0.05   0.02   0.04
   6   6    -0.13   0.14   0.11    -0.01   0.01   0.01    -0.04   0.05   0.05
   7   6    -0.04  -0.05  -0.07    -0.03   0.02   0.01     0.05  -0.06  -0.05
   8   6     0.25  -0.31  -0.26     0.07  -0.08  -0.07    -0.03   0.02   0.01
   9   6    -0.26   0.29   0.24    -0.06   0.07   0.06    -0.00   0.00  -0.00
  10   6     0.38   0.16   0.28     0.09   0.04   0.07    -0.01  -0.02  -0.02
  11   6    -0.25  -0.19  -0.27    -0.06  -0.05  -0.07     0.02   0.02   0.02
  12  16    -0.01  -0.00  -0.01    -0.00  -0.00  -0.00     0.00  -0.00  -0.00
  13  16     0.00  -0.01  -0.01     0.00   0.00   0.00     0.00  -0.00  -0.00
  14  17     0.00   0.00   0.00    -0.00  -0.00   0.00     0.00  -0.00  -0.00
  15   1     0.00  -0.01  -0.01    -0.00   0.03   0.01    -0.01   0.01   0.06
  16   1     0.00   0.01   0.01    -0.00  -0.03  -0.04    -0.01   0.02   0.03
  17   1     0.01  -0.01   0.01    -0.03   0.04  -0.04    -0.04  -0.01   0.05
  18   1    -0.00   0.01   0.01     0.00  -0.06  -0.06    -0.03  -0.52  -0.39
  19   1    -0.01   0.00  -0.00     0.07  -0.02  -0.01     0.63  -0.21  -0.06
  20   1     0.09   0.04  -0.12    -0.39  -0.17   0.51     0.05   0.02  -0.05
  21   1     0.08   0.12   0.05    -0.33  -0.50  -0.22     0.02   0.06   0.02
  22   1     0.00  -0.01  -0.01     0.02  -0.00   0.00    -0.02   0.01  -0.00
  23   1     0.04  -0.02  -0.01     0.01  -0.01  -0.01     0.01  -0.00   0.00
  24   1     0.06  -0.01   0.00     0.01  -0.00   0.00     0.00  -0.00  -0.00
  25   1    -0.07   0.02   0.01    -0.02   0.01   0.00     0.01  -0.00  -0.00
  26   1    -0.08   0.02  -0.00    -0.02   0.01   0.00     0.01  -0.00  -0.00
                     58                     59                     60
                        a                      a                      a 
 Frequencies --  1486.8056              1557.2259              1587.7924
 Red. masses --    11.4727                11.3618                11.5287
 Frc consts  --     0.0000                 0.0000                 0.0000
 IR Inten    --    72.6087                 6.0221                 1.8127
 Raman Activ --     0.0000                 0.0000                 0.0000
 Depolar     --     0.0000                 0.0000                 0.0000
 Atom AN      X      Y      Z        X      Y      Z        X      Y      Z
   1   7    -0.00   0.00   0.00     0.00  -0.00   0.00    -0.00   0.00  -0.00
   2   6     0.02  -0.04  -0.01    -0.00   0.01  -0.00     0.00  -0.01   0.01
   3   6     0.13   0.01   0.02    -0.05  -0.01  -0.02     0.11   0.01   0.03
   4   6    -0.34  -0.10  -0.21     0.17   0.08   0.14    -0.39  -0.21  -0.34
   5   6     0.24   0.09   0.17    -0.10  -0.10  -0.13     0.31   0.23   0.34
   6   6    -0.21   0.34   0.30    -0.05   0.07   0.06     0.09  -0.25  -0.24
   7   6     0.30  -0.38  -0.33    -0.06   0.00  -0.02    -0.17   0.26   0.23
   8   6    -0.14   0.07   0.04     0.18  -0.31  -0.29     0.13  -0.14  -0.12
   9   6    -0.05   0.04   0.02    -0.12   0.31   0.30    -0.02   0.09   0.10
  10   6    -0.05  -0.09  -0.11    -0.28  -0.23  -0.33    -0.09  -0.05  -0.08
  11   6     0.07   0.08   0.11     0.21   0.22   0.29     0.05   0.05   0.07
  12  16     0.00  -0.01  -0.01    -0.01   0.00   0.00    -0.00   0.00   0.00
  13  16    -0.00  -0.01  -0.01    -0.00   0.00  -0.00     0.01  -0.01  -0.00
  14  17     0.00   0.00   0.00    -0.00  -0.00   0.00    -0.00   0.00   0.00
  15   1     0.00  -0.01  -0.01     0.00   0.00  -0.00     0.00  -0.00  -0.00
  16   1     0.00  -0.00  -0.00     0.00  -0.00  -0.00     0.00   0.00  -0.00
  17   1     0.01  -0.00  -0.01    -0.00   0.00  -0.00     0.00  -0.00  -0.00
  18   1     0.01   0.11   0.05    -0.00  -0.01   0.00     0.00   0.02  -0.01
  19   1    -0.10   0.04   0.01     0.01  -0.00  -0.00    -0.01   0.00   0.00
  20   1     0.01  -0.03   0.05    -0.03   0.01  -0.01     0.07  -0.02   0.01
  21   1    -0.03  -0.04  -0.03     0.01   0.00   0.01    -0.01  -0.00  -0.01
  22   1    -0.02   0.02   0.01     0.05  -0.02  -0.01    -0.14   0.04   0.00
  23   1     0.10  -0.02   0.00     0.04  -0.02  -0.01    -0.11   0.04   0.01
  24   1     0.03  -0.02  -0.02     0.14  -0.05  -0.01     0.04  -0.01   0.00
  25   1     0.04  -0.02  -0.01     0.14  -0.04   0.00     0.04  -0.01   0.00
  26   1     0.03  -0.02  -0.02     0.08  -0.03  -0.01     0.02  -0.00   0.00
                     61                     62                     63
                        a                      a                      a 
 Frequencies --  2941.0183              2950.2658              2969.9860
 Red. masses --     1.9060                 1.9277                 1.5612
 Frc consts  --     0.0000                 0.0000                 0.0000
 IR Inten    --     3.9522                 3.1685                14.8048
 Raman Activ --     0.0000                 0.0000                 0.0000
 Depolar     --     0.0000                 0.0000                 0.0000
 Atom AN      X      Y      Z        X      Y      Z        X      Y      Z
   1   7    -0.00   0.00   0.00    -0.00   0.00  -0.00    -0.00  -0.00   0.00
   2   6     0.00   0.02   0.01     0.26   0.07   0.09     0.06  -0.03  -0.01
   3   6     0.07  -0.07  -0.27    -0.02  -0.03   0.00     0.13   0.17   0.03
   4   6     0.01  -0.00  -0.01    -0.00  -0.00  -0.00     0.01   0.00   0.00
   5   6    -0.00   0.00   0.00     0.00  -0.00  -0.00    -0.00  -0.00  -0.00
   6   6     0.00  -0.00  -0.00     0.00   0.00   0.00    -0.00  -0.00  -0.00
   7   6    -0.00   0.00   0.00     0.00  -0.00  -0.00    -0.00   0.00  -0.00
   8   6    -0.00  -0.00   0.00    -0.00  -0.00   0.00    -0.00  -0.00  -0.00
   9   6    -0.00   0.00   0.00    -0.00  -0.00  -0.00    -0.00  -0.00  -0.00
  10   6     0.00   0.00   0.00     0.00  -0.00  -0.00     0.00   0.00   0.00
  11   6     0.00  -0.00   0.00    -0.00  -0.00  -0.00    -0.00  -0.00  -0.00
  12  16     0.00  -0.00  -0.00    -0.00  -0.00  -0.00    -0.00   0.00   0.00
  13  16    -0.00   0.00   0.00    -0.00   0.00   0.00     0.00   0.00  -0.00
  14  17     0.00   0.00   0.00     0.00   0.00  -0.00     0.00  -0.00  -0.00
  15   1     0.00  -0.00   0.00     0.03  -0.00   0.00     0.01   0.00   0.00
  16   1     0.00   0.00   0.00    -0.00  -0.00   0.00    -0.00   0.00  -0.00
  17   1    -0.00  -0.00   0.00     0.00   0.01   0.01    -0.00  -0.00  -0.00
  18   1     0.03   0.00   0.00    -0.82   0.09  -0.08    -0.26   0.02  -0.03
  19   1    -0.03  -0.07  -0.05    -0.12  -0.35  -0.25     0.05   0.10   0.08
  20   1     0.15   0.30   0.19     0.05   0.12   0.09    -0.27  -0.63  -0.47
  21   1    -0.42  -0.04   0.76     0.04  -0.00  -0.09    -0.18   0.01   0.37
  22   1     0.00  -0.00  -0.00    -0.00   0.00   0.00    -0.00   0.00   0.00
  23   1     0.00   0.00   0.00    -0.00  -0.00  -0.00     0.00   0.00   0.00
  24   1    -0.00   0.00  -0.00     0.00   0.00   0.00     0.00   0.00   0.00
  25   1     0.00   0.00  -0.00    -0.00   0.00   0.00     0.00  -0.00  -0.00
  26   1    -0.00   0.00  -0.00     0.00  -0.00  -0.00     0.00  -0.00   0.00
                     64                     65                     66
                        a                      a                      a 
 Frequencies --  2981.8797              3077.8856              3085.9416
 Red. masses --     1.5851                 1.8230                 1.8045
 Frc consts  --     0.0000                 0.0000                 0.0000
 IR Inten    --    16.0962                50.5868                37.5369
 Raman Activ --     0.0000                 0.0000                 0.0000
 Depolar     --     0.0000                 0.0000                 0.0000
 Atom AN      X      Y      Z        X      Y      Z        X      Y      Z
   1   7     0.00  -0.00   0.00    -0.00   0.00   0.00     0.00   0.00   0.00
   2   6    -0.03   0.18   0.11     0.00   0.00   0.00    -0.00  -0.00  -0.00
   3   6     0.02   0.06   0.03    -0.00  -0.00   0.00    -0.00  -0.00  -0.00
   4   6     0.00   0.00   0.00    -0.00   0.00   0.00     0.01  -0.00   0.00
   5   6     0.00  -0.00  -0.00    -0.00   0.00   0.00     0.08  -0.15  -0.13
   6   6    -0.00   0.00  -0.00    -0.00  -0.00  -0.00     0.11   0.07   0.10
   7   6     0.00  -0.00  -0.00    -0.00   0.00   0.00     0.01  -0.00  -0.00
   8   6    -0.00  -0.00  -0.00    -0.00  -0.00  -0.00     0.00  -0.00  -0.00
   9   6    -0.00  -0.00  -0.00    -0.04  -0.03  -0.04    -0.00  -0.00  -0.00
  10   6     0.00  -0.00  -0.00    -0.10   0.18   0.17    -0.00   0.00   0.00
  11   6    -0.00   0.00  -0.00     0.02  -0.00   0.00    -0.00  -0.00  -0.00
  12  16    -0.00   0.00   0.00     0.00  -0.00  -0.00    -0.00   0.00   0.00
  13  16     0.00   0.00   0.00     0.00  -0.00   0.00    -0.00   0.00   0.00
  14  17    -0.00  -0.00  -0.00    -0.00   0.00  -0.00    -0.00  -0.00   0.00
  15   1    -0.02  -0.00  -0.00     0.00  -0.00   0.00    -0.00  -0.00  -0.00
  16   1    -0.00   0.00   0.00    -0.00   0.00  -0.00    -0.00   0.00  -0.00
  17   1     0.01   0.02   0.02    -0.00  -0.00  -0.00    -0.00  -0.00  -0.00
  18   1     0.42  -0.02   0.06    -0.00   0.00  -0.00     0.00  -0.00   0.00
  19   1    -0.29  -0.63  -0.47    -0.00  -0.00  -0.00     0.00   0.00   0.00
  20   1    -0.09  -0.20  -0.14     0.00   0.00   0.00     0.00   0.00   0.00
  21   1    -0.01   0.01   0.02     0.00   0.00  -0.00    -0.00  -0.00   0.00
  22   1    -0.00   0.00   0.00     0.00  -0.01  -0.01    -0.28   0.51   0.46
  23   1    -0.00  -0.00  -0.00     0.00   0.00   0.00    -0.41  -0.24  -0.38
  24   1     0.00   0.00   0.00     0.16   0.10   0.15     0.01   0.00   0.01
  25   1    -0.00   0.00   0.00     0.35  -0.63  -0.58     0.00  -0.00  -0.00
  26   1     0.00  -0.00   0.00    -0.09   0.01  -0.01     0.00  -0.00  -0.00
                     67                     68                     69
                        a                      a                      a 
 Frequencies --  3096.8155              3098.6119              3142.2873
 Red. masses --     1.8976                 1.8695                 1.8855
 Frc consts  --     0.0000                 0.0000                 0.0000
 IR Inten    --    66.7601                61.0268                10.8412
 Raman Activ --     0.0000                 0.0000                 0.0000
 Depolar     --     0.0000                 0.0000                 0.0000
 Atom AN      X      Y      Z        X      Y      Z        X      Y      Z
   1   7     0.00   0.00   0.00    -0.00   0.00   0.00     0.00  -0.00  -0.00
   2   6    -0.00  -0.00  -0.00    -0.00  -0.00  -0.00     0.00   0.00   0.00
   3   6    -0.00  -0.00  -0.00    -0.00  -0.00  -0.00     0.00   0.00   0.00
   4   6     0.01   0.00   0.00     0.00   0.00   0.00     0.00   0.00   0.00
   5   6     0.07  -0.12  -0.11     0.01  -0.01  -0.01     0.00  -0.00  -0.00
   6   6    -0.15  -0.09  -0.13    -0.01  -0.01  -0.01    -0.00  -0.00  -0.00
   7   6    -0.01   0.00   0.00    -0.00   0.00  -0.00    -0.00   0.00   0.00
   8   6     0.00  -0.00  -0.00    -0.01   0.01   0.00    -0.00  -0.00  -0.00
   9   6     0.02   0.01   0.01    -0.18  -0.11  -0.17    -0.01  -0.00  -0.01
  10   6    -0.00   0.01   0.00     0.03  -0.05  -0.05     0.01  -0.03  -0.03
  11   6     0.00  -0.00   0.00    -0.02   0.00  -0.00     0.27  -0.02   0.05
  12  16     0.00  -0.00  -0.00     0.00   0.00   0.00     0.00   0.00   0.00
  13  16    -0.00   0.00   0.00     0.00  -0.00  -0.00     0.00  -0.00  -0.00
  14  17     0.00   0.00  -0.00    -0.00  -0.00  -0.00     0.00   0.00   0.00
  15   1    -0.00  -0.00  -0.00     0.00  -0.00   0.00    -0.00   0.00  -0.00
  16   1    -0.00   0.00  -0.00     0.00  -0.00   0.00     0.00  -0.00  -0.00
  17   1    -0.00  -0.00  -0.00    -0.00  -0.00  -0.00     0.00   0.00   0.00
  18   1     0.00  -0.00   0.00     0.00  -0.00   0.00    -0.00  -0.00  -0.00
  19   1     0.00   0.00   0.00     0.00   0.00   0.00    -0.00  -0.00  -0.00
  20   1     0.00   0.00   0.00     0.00   0.00   0.00    -0.00  -0.00  -0.00
  21   1    -0.00  -0.00   0.00    -0.00  -0.00   0.00    -0.00  -0.00  -0.00
  22   1    -0.23   0.41   0.37    -0.02   0.03   0.03    -0.00   0.00   0.00
  23   1     0.50   0.30   0.46     0.05   0.03   0.04     0.00   0.00   0.00
  24   1    -0.05  -0.03  -0.05     0.62   0.37   0.58     0.03   0.02   0.02
  25   1     0.01  -0.02  -0.01    -0.09   0.16   0.14    -0.04   0.07   0.06
  26   1    -0.00   0.00  -0.00     0.07  -0.01   0.01    -0.94   0.10  -0.15
                     70                     71                     72
                        a                      a                      a 
 Frequencies --  3181.6922              3210.8231              3241.1769
 Red. masses --     2.0185                 1.9029                 1.4847
 Frc consts  --     0.0000                 0.0000                 0.0000
 IR Inten    --   404.1293               138.0106               108.2955
 Raman Activ --     0.0000                 0.0000                 0.0000
 Depolar     --     0.0000                 0.0000                 0.0000
 Atom AN      X      Y      Z        X      Y      Z        X      Y      Z
   1   7     0.26   0.03   0.09    -0.03   0.25   0.07    -0.01   0.13  -0.14
   2   6     0.01   0.00   0.00    -0.00   0.01   0.01     0.00  -0.00  -0.01
   3   6     0.00   0.00  -0.00    -0.00   0.00   0.00     0.00  -0.00   0.00
   4   6    -0.00   0.00  -0.00     0.00   0.00   0.00    -0.00  -0.00  -0.00
   5   6    -0.00   0.00   0.00    -0.00   0.00   0.00     0.00  -0.00  -0.00
   6   6     0.00   0.00   0.00     0.00   0.00   0.00    -0.00  -0.00  -0.00
   7   6     0.00   0.00  -0.00    -0.00   0.00   0.00     0.00  -0.00   0.00
   8   6     0.00  -0.00   0.00     0.00  -0.00   0.00    -0.00  -0.00   0.00
   9   6    -0.00  -0.00  -0.00     0.00   0.00   0.00     0.00   0.00   0.00
  10   6    -0.00  -0.00   0.00     0.00  -0.00  -0.00    -0.00   0.00   0.00
  11   6    -0.00   0.00  -0.00     0.00  -0.00   0.00    -0.00   0.00  -0.00
  12  16     0.00   0.00   0.00    -0.00  -0.00  -0.00    -0.00   0.00   0.00
  13  16    -0.00  -0.00  -0.00     0.00  -0.00  -0.00    -0.00  -0.00   0.00
  14  17    -0.00  -0.00   0.00     0.00   0.00  -0.00    -0.00  -0.00   0.00
  15   1    -0.89   0.03  -0.08     0.26   0.02   0.03    -0.27   0.02  -0.04
  16   1    -0.01   0.13  -0.06     0.09  -0.30   0.18     0.22  -0.75   0.41
  17   1    -0.07  -0.26  -0.18    -0.25  -0.66  -0.48     0.09   0.26   0.17
  18   1    -0.03   0.00  -0.00     0.01  -0.00   0.00    -0.01  -0.00   0.00
  19   1    -0.00  -0.01  -0.00    -0.01  -0.02  -0.02     0.00   0.01   0.01
  20   1    -0.00  -0.00  -0.00    -0.00  -0.00  -0.00    -0.00  -0.00  -0.00
  21   1    -0.00  -0.00   0.00     0.00   0.00  -0.00    -0.00  -0.00   0.00
  22   1     0.00  -0.00  -0.00     0.00  -0.00  -0.00    -0.00   0.00   0.00
  23   1    -0.00  -0.00  -0.00    -0.00  -0.00  -0.00     0.00   0.00   0.00
  24   1     0.00   0.00   0.00    -0.00  -0.00  -0.00    -0.00  -0.00  -0.00
  25   1     0.00  -0.00  -0.00    -0.00   0.00  -0.00     0.00  -0.00  -0.00
  26   1     0.00  -0.00   0.00    -0.00   0.00  -0.00     0.00  -0.00   0.00
