 Entering Gaussian System
 *********************************************
 Gaussian 98:
 frequency output generated by the xtb code
 *********************************************
                         Standard orientation:
 --------------------------------------------------------------------
  Center     Atomic     Atomic              Coordinates (Angstroms)
  Number     Number      Type              X           Y           Z
 --------------------------------------------------------------------
    1          7             0       -6.285137   -0.092995    1.111802
    2          6             0       -4.796687   -0.126613    1.194097
    3          6             0       -4.138216    0.721752    0.112123
    4          6             0       -2.639496    0.670484    0.162278
    5          6             0       -1.941484   -0.306641   -0.531833
    6          6             0       -0.566964   -0.376888   -0.464597
    7          6             0        0.159424    0.530310    0.307069
    8          6             0        1.612724    0.488432    0.404914
    9          6             0        2.419058   -0.255163   -0.365498
   10          6             0        3.871628   -0.299041   -0.266883
   11          6             0        4.567655    0.304107    0.780434
   12          6             0        5.945665    0.247060    0.855909
   13          9             0        6.602132    0.841889    1.890316
   14          6             0        6.650408   -0.423015   -0.128882
   15          6             0        5.983181   -1.030683   -1.172279
   16          6             0        4.608681   -0.972136   -1.242125
   17          6             0       -0.551039    1.500585    1.014119
   18          6             0       -1.925119    1.566842    0.943124
   19         17             0       -7.113034   -1.199787   -2.119423
   20          1             0       -6.598542   -0.427005    0.188124
   21          1             0       -6.638342    0.865547    1.228202
   22          1             0       -6.727108   -0.686482    1.830465
   23          1             0       -4.445013   -1.161755    1.112408
   24          1             0       -4.469462    0.215077    2.182815
   25          1             0       -4.471580    1.761064    0.200813
   26          1             0       -4.480931    0.393422   -0.874695
   27          1             0       -2.489659   -1.018459   -1.125670
   28          1             0       -0.051410   -1.151792   -1.003618
   29          1             0        2.055150    1.127711    1.147551
   30          1             0        1.979372   -0.860112   -1.137856
   31          1             0        4.041380    0.817822    1.562455
   32          1             0        7.723398   -0.461131   -0.061996
   33          1             0        6.539066   -1.552768   -1.933900
   34          1             0        4.089766   -1.447505   -2.057142
   35          1             0       -0.009853    2.206473    1.621306
   36          1             0       -2.458893    2.319166    1.499035
 --------------------------------------------------------------------
     1 basis functions        1 primitive gaussians
     1 alpha electrons        1 beta electrons

 Harmonic frequencies (cm**-1), IR intensities (km*mol⁻¹),
 Raman scattering activities (A**4/amu), Raman depolarization ratios,
 reduced masses (AMU), force constants (mDyne/A) and normal coordinates:
                      1                      2                      3
                        a                      a                      a 
 Frequencies --  -141.3854               -80.3565               -46.7868
 Red. masses --    20.7699                 8.0818                10.2865
 Frc consts  --     0.0000                 0.0000                 0.0000
 IR Inten    --   149.9793                 0.4572                 0.3377
 Raman Activ --     0.0000                 0.0000                 0.0000
 Depolar     --     0.0000                 0.0000                 0.0000
 Atom AN      X      Y      Z        X      Y      Z        X      Y      Z
   1   7     0.11   0.23   0.57    -0.00   0.06  -0.02    -0.00   0.02   0.04
   2   6     0.12   0.05   0.18    -0.00   0.09   0.00    -0.00   0.07   0.07
   3   6    -0.00  -0.03   0.05     0.00  -0.05  -0.10    -0.02  -0.02  -0.02
   4   6     0.00  -0.00  -0.01     0.00  -0.03  -0.06    -0.02  -0.01  -0.04
   5   6     0.00   0.01  -0.02     0.03  -0.05  -0.01     0.01   0.24  -0.36
   6   6     0.00   0.01  -0.02     0.02  -0.07   0.08     0.01   0.26  -0.39
   7   6     0.00   0.00  -0.01    -0.02  -0.09   0.14    -0.01   0.03  -0.10
   8   6     0.00  -0.00   0.00    -0.03  -0.19   0.29    -0.01   0.05  -0.10
   9   6     0.00   0.00  -0.00     0.02   0.40  -0.22     0.01  -0.02  -0.02
  10   6     0.00  -0.00   0.00     0.01   0.22  -0.12     0.01  -0.01   0.01
  11   6    -0.00  -0.00   0.00     0.04   0.20  -0.12     0.00   0.10  -0.05
  12   6    -0.00   0.00   0.00     0.02  -0.02  -0.02    -0.00   0.05   0.00
  13   9     0.00   0.00   0.00     0.05  -0.02  -0.04    -0.02   0.13  -0.03
  14   6     0.00  -0.00   0.01    -0.01  -0.21   0.08     0.00  -0.07   0.09
  15   6     0.00  -0.00   0.00    -0.04  -0.15   0.07     0.01  -0.16   0.13
  16   6     0.00   0.00  -0.00    -0.02   0.07  -0.04     0.02  -0.14   0.10
  17   6     0.00  -0.00  -0.00    -0.05  -0.07   0.10    -0.04  -0.22   0.21
  18   6     0.00  -0.00  -0.00    -0.04  -0.03  -0.02    -0.04  -0.24   0.25
  19  17    -0.19  -0.20  -0.58     0.02  -0.03   0.02     0.05  -0.04   0.12
  20   1    -0.04   0.07   0.20     0.00  -0.03   0.01     0.01  -0.05   0.03
  21   1     0.07   0.07   0.17    -0.01   0.02  -0.06    -0.01   0.01  -0.04
  22   1     0.06   0.08   0.19    -0.00   0.05   0.02     0.00   0.04   0.04
  23   1    -0.00   0.00   0.03     0.00   0.02   0.04     0.01   0.02   0.05
  24   1     0.11   0.01   0.03    -0.01   0.07  -0.01    -0.01   0.05   0.01
  25   1    -0.00  -0.01  -0.00    -0.00  -0.01  -0.07    -0.01  -0.00  -0.03
  26   1    -0.02  -0.03   0.03     0.00  -0.05  -0.02    -0.01  -0.03   0.01
  27   1     0.00   0.00  -0.01     0.02  -0.02  -0.01     0.01   0.12  -0.17
  28   1     0.00   0.00  -0.01     0.02  -0.03   0.05     0.01   0.14  -0.20
  29   1    -0.00  -0.00   0.00    -0.04  -0.25   0.27    -0.01   0.03  -0.04
  30   1     0.00   0.00  -0.00     0.01   0.32  -0.23     0.01  -0.04   0.02
  31   1    -0.00  -0.00   0.00     0.03   0.12  -0.07    -0.00   0.06  -0.04
  32   1     0.00  -0.00   0.00    -0.01  -0.11   0.05    -0.00  -0.03   0.04
  33   1     0.00  -0.00   0.00    -0.02  -0.08   0.04     0.01  -0.07   0.06
  34   1     0.00   0.00  -0.00    -0.01   0.03  -0.01     0.01  -0.06   0.04
  35   1     0.00  -0.00   0.00    -0.02  -0.03   0.04    -0.02  -0.12   0.13
  36   1     0.00  -0.00   0.00    -0.02  -0.01  -0.02    -0.02  -0.13   0.15
                      4                      5                      6
                        a                      a                      a 
 Frequencies --   -35.7334                26.3940                36.1510
 Red. masses --    10.8547                15.6804                18.7415
 Frc consts  --     0.0000                 0.0000                 0.0000
 IR Inten    --    10.5725                 0.4260                 3.8396
 Raman Activ --     0.0000                 0.0000                 0.0000
 Depolar     --     0.0000                 0.0000                 0.0000
 Atom AN      X      Y      Z        X      Y      Z        X      Y      Z
   1   7     0.04  -0.28   0.03    -0.08   0.12  -0.14     0.04   0.07   0.21
   2   6     0.04  -0.36  -0.10    -0.08   0.05  -0.05     0.04  -0.12  -0.01
   3   6    -0.00   0.02   0.17     0.02   0.01  -0.02    -0.00  -0.20  -0.10
   4   6     0.00   0.05   0.11     0.01  -0.07   0.06    -0.00  -0.18  -0.14
   5   6    -0.01   0.03   0.11     0.00  -0.08   0.07     0.02  -0.20  -0.09
   6   6    -0.01   0.06   0.05    -0.00  -0.14   0.13     0.02  -0.17  -0.09
   7   6     0.01   0.11  -0.03     0.00  -0.18   0.17     0.00  -0.12  -0.14
   8   6     0.01   0.14  -0.08     0.00  -0.19   0.18    -0.00  -0.09  -0.11
   9   6     0.00   0.09  -0.04     0.00  -0.18   0.17     0.05  -0.03  -0.11
  10   6     0.00   0.05  -0.03     0.01  -0.10   0.09     0.05   0.01  -0.03
  11   6     0.02   0.19  -0.13     0.05   0.06  -0.03    -0.03   0.05  -0.00
  12   6     0.01   0.04  -0.05     0.06   0.18  -0.14    -0.03   0.09   0.09
  13   9     0.03   0.15  -0.13     0.12   0.40  -0.30    -0.14   0.17   0.14
  14   6    -0.02  -0.21   0.10     0.04   0.17  -0.15     0.04   0.08   0.15
  15   6    -0.03  -0.30   0.17    -0.00  -0.02  -0.01     0.13   0.05   0.12
  16   6    -0.03  -0.18   0.10    -0.02  -0.16   0.11     0.13   0.02   0.02
  17   6     0.03   0.13  -0.04     0.01  -0.18   0.18    -0.02  -0.09  -0.19
  18   6     0.02   0.10   0.03     0.02  -0.12   0.12    -0.01  -0.12  -0.19
  19  17    -0.09   0.15  -0.16    -0.11   0.21  -0.22    -0.17   0.46   0.25
  20   1    -0.01   0.06  -0.03    -0.01   0.04  -0.04    -0.04   0.09   0.05
  21   1     0.03  -0.09   0.15    -0.01   0.04  -0.03     0.05   0.02   0.13
  22   1     0.02  -0.17  -0.07    -0.04   0.03  -0.05     0.02  -0.01   0.03
  23   1    -0.00  -0.10  -0.15    -0.03   0.01  -0.01    -0.03  -0.05  -0.02
  24   1     0.04  -0.21   0.00    -0.03   0.01  -0.01     0.06  -0.05  -0.02
  25   1    -0.01  -0.01   0.15     0.02   0.01  -0.01    -0.00  -0.06  -0.05
  26   1    -0.00   0.10   0.02     0.02   0.01  -0.01    -0.01  -0.08  -0.02
  27   1    -0.01  -0.00   0.05     0.00  -0.01   0.01     0.01  -0.07  -0.01
  28   1    -0.01   0.01   0.02    -0.00  -0.04   0.04     0.01  -0.05  -0.01
  29   1     0.01   0.06  -0.04     0.00  -0.05   0.05    -0.01  -0.03  -0.02
  30   1    -0.00   0.01   0.00    -0.00  -0.06   0.06     0.03  -0.00  -0.05
  31   1     0.01   0.12  -0.07     0.02   0.03  -0.01    -0.03   0.02  -0.01
  32   1    -0.01  -0.10   0.05     0.01   0.08  -0.07     0.01   0.03   0.06
  33   1    -0.02  -0.14   0.08    -0.01  -0.01  -0.00     0.05   0.01   0.05
  34   1    -0.01  -0.08   0.05    -0.01  -0.09   0.06     0.06  -0.00  -0.00
  35   1     0.01   0.05  -0.03     0.00  -0.06   0.06    -0.01  -0.01  -0.07
  36   1     0.01   0.03   0.01     0.01  -0.03   0.03    -0.01  -0.03  -0.07
                      7                      8                      9
                        a                      a                      a 
 Frequencies --    53.2058                73.3816                83.8248
 Red. masses --    29.2709                11.9773                10.5466
 Frc consts  --     0.0000                 0.0000                 0.0000
 IR Inten    --    22.2332                 1.6575                 2.2952
 Raman Activ --     0.0000                 0.0000                 0.0000
 Depolar     --     0.0000                 0.0000                 0.0000
 Atom AN      X      Y      Z        X      Y      Z        X      Y      Z
   1   7    -0.00   0.01  -0.16     0.01  -0.01   0.10     0.23  -0.17   0.14
   2   6    -0.00  -0.04  -0.16     0.01  -0.09  -0.04     0.23  -0.12  -0.21
   3   6     0.06   0.02  -0.07    -0.04  -0.29  -0.22    -0.00   0.19  -0.11
   4   6     0.07   0.02  -0.02    -0.04  -0.13  -0.15     0.00   0.23  -0.21
   5   6     0.09   0.05  -0.04     0.10  -0.06  -0.10    -0.04   0.21  -0.21
   6   6     0.09   0.06  -0.02     0.10   0.08   0.01    -0.05   0.06  -0.08
   7   6     0.08   0.04   0.02    -0.03   0.15   0.06    -0.04  -0.08   0.07
   8   6     0.08   0.06   0.03    -0.02   0.24   0.13    -0.06  -0.27   0.25
   9   6     0.09   0.05   0.04    -0.03   0.09   0.27    -0.05  -0.07   0.08
  10   6     0.09   0.04   0.03    -0.03   0.05   0.18    -0.06  -0.11   0.11
  11   6     0.10  -0.00   0.05     0.10   0.01   0.12    -0.04  -0.10   0.09
  12   6     0.10  -0.03   0.05     0.11  -0.05  -0.04    -0.03   0.01   0.00
  13   9     0.14  -0.10   0.08     0.33  -0.12  -0.14    -0.03   0.05  -0.03
  14   6     0.09  -0.00   0.02    -0.03  -0.07  -0.13    -0.04   0.11  -0.07
  15   6     0.08   0.04   0.00    -0.16  -0.04  -0.06    -0.06   0.05  -0.02
  16   6     0.08   0.07   0.01    -0.17   0.02   0.10    -0.06  -0.07   0.07
  17   6     0.05   0.00   0.04    -0.18   0.09  -0.01    -0.00   0.00   0.00
  18   6     0.05  -0.01   0.03    -0.18  -0.05  -0.11     0.02   0.16  -0.14
  19  17    -0.84  -0.17   0.08     0.07   0.14   0.05     0.01  -0.04   0.16
  20   1    -0.03  -0.03  -0.02    -0.02   0.03   0.02     0.00  -0.01   0.04
  21   1     0.01   0.01  -0.07     0.02  -0.00   0.05     0.06  -0.05   0.10
  22   1    -0.00   0.03  -0.02     0.01  -0.01   0.02     0.11  -0.08   0.04
  23   1    -0.01  -0.01  -0.06    -0.02  -0.04   0.02     0.07  -0.02  -0.16
  24   1    -0.00  -0.03  -0.04     0.04   0.01  -0.03     0.12  -0.11  -0.05
  25   1     0.02   0.01  -0.00    -0.04  -0.09  -0.13    -0.02   0.04   0.05
  26   1     0.03   0.03  -0.03    -0.00  -0.15  -0.05    -0.02   0.11  -0.04
  27   1     0.03   0.02  -0.02     0.06  -0.03  -0.04    -0.02   0.08  -0.08
  28   1     0.03   0.03  -0.01     0.06   0.04   0.01    -0.02   0.00  -0.01
  29   1     0.02   0.02   0.01    -0.01   0.12   0.00    -0.03  -0.16   0.15
  30   1     0.03   0.01   0.01    -0.02  -0.02   0.12    -0.01   0.06  -0.04
  31   1     0.03  -0.01   0.02     0.05   0.00   0.05    -0.01  -0.04   0.03
  32   1     0.03  -0.01   0.00    -0.01  -0.03  -0.07    -0.01   0.07  -0.05
  33   1     0.02   0.02  -0.01    -0.08  -0.02  -0.04    -0.02   0.03  -0.02
  34   1     0.02   0.03  -0.00    -0.08   0.02   0.04    -0.02  -0.03   0.03
  35   1     0.01  -0.00   0.02    -0.09   0.05   0.01     0.01  -0.02   0.02
  36   1     0.01  -0.01   0.02    -0.09  -0.03  -0.04     0.01   0.06  -0.05
                     10                     11                     12
                        a                      a                      a 
 Frequencies --   137.2905               153.9517               178.8805
 Red. masses --    10.4630                12.2809                 9.2872
 Frc consts  --     0.0000                 0.0000                 0.0000
 IR Inten    --    14.2907                 6.7429                 1.7444
 Raman Activ --     0.0000                 0.0000                 0.0000
 Depolar     --     0.0000                 0.0000                 0.0000
 Atom AN      X      Y      Z        X      Y      Z        X      Y      Z
   1   7     0.05  -0.45  -0.04     0.26  -0.07  -0.06    -0.14   0.18  -0.05
   2   6     0.04   0.23   0.39     0.24   0.07  -0.03    -0.14  -0.23   0.04
   3   6    -0.03  -0.08   0.09     0.18  -0.11  -0.19     0.04  -0.22   0.14
   4   6    -0.01   0.02  -0.02     0.16  -0.02  -0.03     0.05  -0.09   0.12
   5   6    -0.01   0.03  -0.04     0.22  -0.04   0.06     0.12   0.05  -0.00
   6   6    -0.01   0.05  -0.08     0.20   0.01   0.17     0.13   0.21  -0.11
   7   6     0.00   0.03  -0.07     0.09   0.10   0.16     0.08   0.20  -0.06
   8   6    -0.00  -0.08   0.05     0.08   0.15   0.00     0.06  -0.04   0.11
   9   6     0.02   0.00  -0.00    -0.10  -0.01  -0.02     0.01   0.16  -0.14
  10   6     0.02  -0.08   0.07    -0.12  -0.06  -0.11    -0.03  -0.19   0.04
  11   6     0.03  -0.08   0.07    -0.19  -0.05  -0.08    -0.06  -0.28   0.11
  12   6     0.03  -0.00   0.02    -0.21   0.00  -0.03    -0.05  -0.04   0.01
  13   9     0.06   0.09  -0.05    -0.42   0.09   0.00    -0.13   0.10  -0.04
  14   6     0.03   0.03  -0.01    -0.16  -0.01   0.01    -0.00   0.18  -0.11
  15   6     0.03  -0.03   0.03    -0.11  -0.04  -0.01     0.01  -0.02  -0.00
  16   6     0.02  -0.07   0.07    -0.10  -0.07  -0.09    -0.01  -0.21   0.07
  17   6     0.01   0.09  -0.15     0.04   0.03   0.19     0.04   0.19  -0.08
  18   6     0.01   0.09  -0.12     0.04  -0.04   0.10     0.03   0.04   0.01
  19  17    -0.19   0.15  -0.14    -0.08   0.05  -0.01     0.03  -0.02  -0.00
  20   1     0.12  -0.14  -0.05     0.07  -0.04  -0.01    -0.05   0.00   0.01
  21   1    -0.12  -0.16  -0.04     0.05  -0.03  -0.04     0.04   0.08  -0.09
  22   1     0.02  -0.17  -0.05     0.08  -0.02  -0.01    -0.09   0.13   0.02
  23   1     0.14   0.09   0.29     0.10   0.02   0.06    -0.11  -0.09  -0.02
  24   1    -0.10   0.25   0.09     0.06   0.09  -0.03    -0.03  -0.11   0.02
  25   1    -0.02  -0.02  -0.07     0.03  -0.03  -0.13     0.00  -0.07   0.04
  26   1    -0.02  -0.12   0.06     0.08  -0.10  -0.04     0.03  -0.05   0.03
  27   1    -0.01   0.00  -0.00     0.08  -0.02   0.01     0.05   0.00   0.00
  28   1    -0.00   0.01  -0.02     0.07   0.00   0.07     0.05   0.07  -0.04
  29   1    -0.01  -0.08   0.07     0.06   0.08  -0.05     0.02  -0.16   0.16
  30   1     0.01   0.06  -0.05    -0.06  -0.03   0.04    -0.00   0.21  -0.16
  31   1     0.01  -0.03   0.02    -0.07  -0.03  -0.02    -0.02  -0.11   0.05
  32   1     0.01   0.03  -0.02    -0.05   0.00   0.01     0.01   0.13  -0.08
  33   1     0.01  -0.00   0.01    -0.02  -0.01   0.01     0.01   0.01  -0.01
  34   1     0.01  -0.02   0.02    -0.02  -0.02  -0.03     0.00  -0.08   0.03
  35   1     0.01   0.03  -0.05    -0.00   0.01   0.07     0.00   0.07  -0.04
  36   1     0.01   0.04  -0.04    -0.01  -0.03   0.03    -0.00   0.00   0.01
                     13                     14                     15
                        a                      a                      a 
 Frequencies --   224.8753               239.9577               250.0853
 Red. masses --    11.7829                 9.6078                10.4186
 Frc consts  --     0.0000                 0.0000                 0.0000
 IR Inten    --     1.8888                 3.2358                 0.5173
 Raman Activ --     0.0000                 0.0000                 0.0000
 Depolar     --     0.0000                 0.0000                 0.0000
 Atom AN      X      Y      Z        X      Y      Z        X      Y      Z
   1   7     0.01   0.01  -0.01     0.15   0.11  -0.15     0.18  -0.05  -0.01
   2   6     0.00  -0.08  -0.00     0.11  -0.13   0.16     0.16   0.08  -0.09
   3   6     0.01  -0.02   0.05     0.16  -0.05   0.26     0.05   0.21  -0.02
   4   6     0.01   0.01   0.01     0.14  -0.08   0.03     0.02  -0.05   0.01
   5   6    -0.00   0.03  -0.03     0.05  -0.05  -0.10    -0.08  -0.19   0.11
   6   6    -0.00   0.02  -0.03     0.04  -0.06  -0.18    -0.07  -0.16  -0.01
   7   6     0.00  -0.02   0.00     0.01  -0.11  -0.09    -0.07  -0.00  -0.20
   8   6    -0.00  -0.04   0.03    -0.05  -0.09   0.09    -0.08   0.19  -0.24
   9   6    -0.01  -0.08   0.06    -0.05  -0.10   0.14    -0.00   0.27  -0.22
  10   6    -0.01  -0.03   0.04    -0.09   0.13   0.09    -0.05   0.04   0.13
  11   6    -0.03  -0.27   0.18    -0.07   0.31  -0.03    -0.05  -0.16   0.26
  12   6    -0.01  -0.14   0.09    -0.08   0.10  -0.01    -0.02  -0.03   0.09
  13   9     0.05   0.44  -0.28     0.03  -0.15   0.06     0.22   0.04  -0.09
  14   6    -0.04  -0.36   0.22    -0.18  -0.01  -0.01    -0.08   0.13  -0.06
  15   6    -0.02  -0.01   0.01    -0.21   0.06  -0.02    -0.11  -0.05   0.07
  16   6     0.01   0.36  -0.22    -0.20   0.07   0.07    -0.11  -0.06   0.16
  17   6     0.02   0.01  -0.02     0.12   0.00  -0.16    -0.01  -0.12   0.00
  18   6     0.02   0.02  -0.01     0.14   0.02  -0.10     0.00  -0.16   0.12
  19  17     0.00   0.04  -0.01    -0.03   0.03  -0.03    -0.01   0.04  -0.00
  20   1    -0.01  -0.12   0.04     0.07  -0.13   0.01     0.03  -0.13   0.05
  21   1     0.03   0.03  -0.14     0.10   0.08  -0.26     0.04  -0.00  -0.13
  22   1    -0.01   0.11   0.08    -0.04   0.20   0.05     0.07   0.08   0.08
  23   1    -0.01  -0.03  -0.02     0.01  -0.04   0.04     0.07   0.03  -0.05
  24   1     0.00  -0.04   0.00    -0.00  -0.06   0.06     0.05   0.01  -0.02
  25   1    -0.00  -0.01   0.04     0.07  -0.01   0.13     0.06   0.07   0.05
  26   1    -0.00   0.01   0.01     0.01   0.04   0.07    -0.01   0.12  -0.02
  27   1    -0.00   0.01  -0.01    -0.01  -0.00  -0.03    -0.04  -0.07   0.06
  28   1    -0.00   0.01  -0.02     0.01  -0.01  -0.07    -0.02  -0.06   0.02
  29   1     0.00   0.00  -0.01    -0.03  -0.01   0.02    -0.04   0.02  -0.03
  30   1    -0.00  -0.03   0.03    -0.00  -0.06   0.06     0.02   0.13  -0.12
  31   1    -0.01  -0.11   0.07    -0.01   0.12  -0.02    -0.01  -0.08   0.10
  32   1    -0.02  -0.16   0.10    -0.05  -0.05   0.01    -0.02   0.10  -0.07
  33   1    -0.01   0.01  -0.01    -0.07   0.01  -0.01    -0.04  -0.02   0.02
  34   1     0.01   0.24  -0.15    -0.09   0.01   0.05    -0.05  -0.01   0.05
  35   1     0.01   0.00  -0.01     0.06   0.00  -0.07     0.01  -0.05   0.01
  36   1     0.01   0.01  -0.01     0.04   0.01  -0.04    -0.00  -0.07   0.06
                     16                     17                     18
                        a                      a                      a 
 Frequencies --   262.2814               326.1105               340.4538
 Red. masses --     5.0959                 9.7801                10.1073
 Frc consts  --     0.0000                 0.0000                 0.0000
 IR Inten    --     1.2485                 2.0323                 5.9981
 Raman Activ --     0.0000                 0.0000                 0.0000
 Depolar     --     0.0000                 0.0000                 0.0000
 Atom AN      X      Y      Z        X      Y      Z        X      Y      Z
   1   7     0.02  -0.15   0.08    -0.21  -0.15   0.14    -0.30  -0.21   0.24
   2   6     0.02  -0.12  -0.05    -0.15   0.14  -0.03    -0.19   0.11  -0.25
   3   6    -0.11  -0.06  -0.08    -0.02   0.33   0.16     0.04  -0.00  -0.24
   4   6    -0.11   0.09  -0.03     0.02  -0.20  -0.16     0.09   0.00   0.17
   5   6    -0.07   0.05   0.07     0.14  -0.14  -0.15     0.09   0.01   0.15
   6   6    -0.08   0.02   0.14     0.17  -0.03  -0.00     0.10   0.05  -0.09
   7   6    -0.04   0.04   0.08     0.12   0.00   0.04     0.13   0.03  -0.11
   8   6     0.00   0.01  -0.03     0.11   0.17   0.17     0.08  -0.14  -0.03
   9   6     0.01  -0.06   0.01     0.06   0.13   0.16     0.02  -0.14  -0.06
  10   6     0.05  -0.04  -0.08     0.03   0.00  -0.01    -0.03  -0.01   0.08
  11   6     0.07   0.05  -0.14     0.05  -0.05  -0.03    -0.10   0.16   0.04
  12   6     0.07   0.03  -0.06     0.04  -0.04  -0.05    -0.11   0.06   0.05
  13   9    -0.05  -0.05   0.07    -0.26   0.06   0.05     0.14  -0.05  -0.04
  14   6     0.13   0.04  -0.01     0.02  -0.03  -0.07    -0.17  -0.01   0.06
  15   6     0.14  -0.03   0.02    -0.03  -0.05  -0.04    -0.11   0.07  -0.02
  16   6     0.12  -0.12   0.01    -0.03  -0.04  -0.03    -0.10   0.02   0.03
  17   6    -0.09   0.05   0.04    -0.00  -0.03  -0.06     0.20   0.03  -0.07
  18   6    -0.10   0.08  -0.02     0.02  -0.18  -0.18     0.18   0.03   0.09
  19  17     0.01   0.14  -0.02     0.02   0.02  -0.00     0.04   0.04   0.01
  20   1    -0.04  -0.45   0.19    -0.07  -0.12   0.08    -0.16  -0.15   0.13
  21   1     0.05   0.03  -0.44    -0.11  -0.05  -0.02    -0.14  -0.07   0.03
  22   1     0.01   0.32   0.33     0.02  -0.01   0.10     0.06  -0.03   0.17
  23   1     0.01  -0.03  -0.01    -0.02   0.05  -0.06    -0.04   0.03  -0.06
  24   1     0.03  -0.02  -0.03    -0.05  -0.01   0.01    -0.03   0.05  -0.09
  25   1    -0.07  -0.03  -0.02     0.14   0.13   0.20    -0.00   0.00  -0.15
  26   1    -0.02  -0.02  -0.02    -0.11   0.26   0.03     0.10  -0.04  -0.08
  27   1    -0.01   0.01   0.02     0.08  -0.05  -0.07     0.01  -0.00   0.06
  28   1    -0.03  -0.01   0.05     0.07  -0.00   0.01     0.01   0.03  -0.06
  29   1     0.01   0.03  -0.04     0.01   0.08   0.04     0.03  -0.09   0.02
  30   1    -0.00  -0.05   0.03    -0.02   0.03   0.07     0.02  -0.01  -0.05
  31   1     0.02   0.02  -0.05     0.02  -0.02  -0.00    -0.03   0.07  -0.01
  32   1     0.04   0.02   0.00     0.01  -0.01  -0.04    -0.05  -0.02   0.03
  33   1     0.05  -0.01   0.01    -0.01  -0.02  -0.01    -0.02   0.04  -0.01
  34   1     0.05  -0.07   0.01    -0.02  -0.01  -0.01    -0.04   0.01   0.02
  35   1    -0.04   0.01   0.02    -0.04   0.01  -0.01     0.08   0.01  -0.03
  36   1    -0.03   0.03  -0.01    -0.02  -0.06  -0.07     0.08   0.02   0.03
                     19                     20                     21
                        a                      a                      a 
 Frequencies --   361.5480               370.0335               387.6878
 Red. masses --     9.1745                10.1549                11.3942
 Frc consts  --     0.0000                 0.0000                 0.0000
 IR Inten    --     0.3284                 2.0976                 2.0681
 Raman Activ --     0.0000                 0.0000                 0.0000
 Depolar     --     0.0000                 0.0000                 0.0000
 Atom AN      X      Y      Z        X      Y      Z        X      Y      Z
   1   7    -0.08  -0.02   0.02     0.15   0.02  -0.03     0.04   0.01  -0.03
   2   6    -0.06  -0.03   0.04     0.11   0.08  -0.09     0.03   0.03   0.04
   3   6    -0.01  -0.04   0.03     0.03   0.08  -0.08    -0.02   0.13   0.10
   4   6     0.02   0.06  -0.07    -0.03  -0.13   0.15    -0.03  -0.16  -0.13
   5   6     0.07   0.31  -0.38    -0.07  -0.07   0.04     0.08  -0.13  -0.04
   6   6     0.00  -0.27   0.35    -0.07   0.00  -0.01     0.09   0.16   0.09
   7   6     0.04  -0.07   0.08    -0.08   0.20  -0.22    -0.01   0.21   0.11
   8   6     0.04   0.00  -0.04    -0.09  -0.08   0.10     0.01  -0.11  -0.05
   9   6    -0.00   0.01  -0.08    -0.02  -0.06   0.14    -0.10  -0.18  -0.14
  10   6    -0.01   0.05  -0.04    -0.00  -0.16   0.13    -0.06  -0.18  -0.06
  11   6    -0.07  -0.02   0.05     0.13   0.10  -0.13    -0.20   0.10  -0.07
  12   6    -0.06   0.04   0.02     0.12  -0.11  -0.02    -0.20   0.03   0.12
  13   9     0.12  -0.04  -0.03    -0.18   0.08   0.05     0.39  -0.11  -0.17
  14   6    -0.06   0.07   0.01     0.12  -0.18   0.03    -0.11   0.03   0.22
  15   6    -0.01  -0.04   0.06     0.04   0.18  -0.15     0.13   0.17   0.02
  16   6    -0.01   0.01  -0.01     0.01  -0.03   0.04     0.11  -0.07  -0.02
  17   6     0.07   0.19  -0.26    -0.07   0.23  -0.24    -0.14   0.13   0.12
  18   6     0.02  -0.18   0.22    -0.11  -0.23   0.31    -0.14  -0.10  -0.09
  19  17     0.00   0.00  -0.00    -0.00  -0.00   0.00    -0.00  -0.01  -0.00
  20   1    -0.02  -0.01   0.01     0.03   0.01  -0.01     0.03   0.01  -0.01
  21   1    -0.02  -0.00  -0.00     0.03  -0.00   0.01     0.01   0.00  -0.01
  22   1    -0.02   0.00   0.01     0.05  -0.01  -0.01     0.00  -0.00  -0.02
  23   1    -0.02  -0.01   0.02     0.05   0.03  -0.03     0.02   0.01  -0.01
  24   1    -0.02  -0.01   0.01     0.05   0.03  -0.03    -0.00  -0.01   0.02
  25   1    -0.02  -0.01   0.01     0.03   0.03  -0.02     0.07   0.05   0.12
  26   1    -0.00  -0.02   0.01     0.02   0.04  -0.03    -0.08   0.12   0.03
  27   1     0.03   0.18  -0.22    -0.02  -0.02   0.01     0.07  -0.08  -0.01
  28   1    -0.01  -0.18   0.23    -0.01  -0.02   0.04     0.07   0.06   0.05
  29   1     0.03   0.03  -0.05    -0.05  -0.11   0.12     0.05  -0.08   0.00
  30   1    -0.00  -0.01  -0.01     0.00   0.06  -0.03    -0.02  -0.02  -0.07
  31   1    -0.03  -0.04   0.03     0.07   0.13  -0.08    -0.09   0.07  -0.07
  32   1    -0.02   0.03   0.01     0.03  -0.09   0.00    -0.03   0.03   0.13
  33   1     0.00  -0.03   0.04    -0.00   0.13  -0.10     0.08   0.11  -0.00
  34   1    -0.00  -0.00  -0.00     0.00  -0.00   0.01     0.07  -0.03  -0.02
  35   1     0.03   0.13  -0.17    -0.01   0.11  -0.13    -0.09   0.05   0.06
  36   1     0.00  -0.13   0.16    -0.05  -0.13   0.16    -0.09  -0.05  -0.04
                     22                     23                     24
                        a                      a                      a 
 Frequencies --   415.8060               464.7840               480.0636
 Red. masses --     9.7983                10.3849                13.2014
 Frc consts  --     0.0000                 0.0000                 0.0000
 IR Inten    --     0.1336                 0.5250                 3.7437
 Raman Activ --     0.0000                 0.0000                 0.0000
 Depolar     --     0.0000                 0.0000                 0.0000
 Atom AN      X      Y      Z        X      Y      Z        X      Y      Z
   1   7     0.07  -0.01  -0.00     0.04   0.00  -0.01     0.03   0.02  -0.02
   2   6     0.05   0.07  -0.08     0.03   0.02  -0.04     0.01  -0.03   0.04
   3   6     0.04   0.06  -0.04     0.01  -0.01  -0.04    -0.11   0.00  -0.00
   4   6    -0.01  -0.17   0.14    -0.02  -0.01   0.17    -0.09   0.10  -0.12
   5   6    -0.02  -0.10   0.05    -0.07   0.04   0.05    -0.02   0.01   0.08
   6   6    -0.01   0.12  -0.09    -0.06  -0.09  -0.16    -0.00   0.02   0.03
   7   6    -0.06   0.09  -0.01    -0.01  -0.18  -0.05     0.10   0.09  -0.14
   8   6    -0.06  -0.16   0.13     0.01   0.26   0.32     0.11  -0.01   0.05
   9   6    -0.05  -0.15   0.11     0.02   0.26   0.30     0.09  -0.03   0.05
  10   6    -0.00   0.15  -0.14     0.04  -0.10  -0.20     0.09  -0.15  -0.15
  11   6    -0.03  -0.12   0.03    -0.17  -0.05  -0.10     0.11  -0.08  -0.13
  12   6     0.00   0.30  -0.19    -0.21  -0.04   0.10     0.13   0.21   0.18
  13   9     0.04  -0.15   0.04     0.15  -0.07  -0.16     0.26   0.21   0.43
  14   6     0.04   0.19  -0.08    -0.09   0.08   0.14    -0.25   0.01  -0.00
  15   6     0.03  -0.34   0.24     0.17   0.05   0.01    -0.23  -0.04  -0.05
  16   6     0.07   0.23  -0.16     0.14  -0.17  -0.13    -0.20  -0.15  -0.35
  17   6    -0.06   0.17  -0.10     0.01  -0.09  -0.18     0.00  -0.06  -0.03
  18   6    -0.08  -0.09   0.10     0.02   0.03   0.06    -0.02  -0.07   0.02
  19  17    -0.00   0.00   0.00    -0.00   0.00   0.00    -0.00  -0.00  -0.00
  20   1     0.01  -0.01   0.01     0.00  -0.00   0.00     0.02   0.02  -0.02
  21   1     0.01  -0.01   0.00     0.01   0.00  -0.00     0.02   0.01  -0.01
  22   1     0.04  -0.01   0.01     0.02   0.00   0.00    -0.02   0.01  -0.02
  23   1     0.03   0.02  -0.03     0.01   0.01  -0.01     0.01  -0.01   0.01
  24   1     0.02   0.02  -0.02     0.01   0.01  -0.02     0.01  -0.01   0.01
  25   1     0.05   0.03  -0.00    -0.02  -0.01  -0.04    -0.05  -0.01   0.01
  26   1     0.02   0.04  -0.02     0.04  -0.03  -0.02    -0.05  -0.01   0.01
  27   1     0.00  -0.03   0.01    -0.05   0.05  -0.00     0.00  -0.05   0.07
  28   1     0.02   0.07  -0.05    -0.06  -0.01  -0.11    -0.03  -0.04   0.05
  29   1    -0.01  -0.05   0.04    -0.10   0.15   0.08     0.01  -0.03   0.05
  30   1    -0.01  -0.05   0.04    -0.10   0.07   0.15    -0.01   0.03  -0.00
  31   1    -0.03  -0.21   0.11    -0.12  -0.01  -0.08    -0.06  -0.06  -0.07
  32   1     0.01   0.03   0.01    -0.03   0.08   0.09    -0.07  -0.07  -0.07
  33   1     0.00  -0.27   0.18     0.11   0.06   0.02    -0.00  -0.01   0.03
  34   1     0.03   0.07  -0.06     0.08  -0.07  -0.05    -0.06  -0.04  -0.10
  35   1    -0.02   0.08  -0.07     0.04  -0.01  -0.10    -0.02  -0.05   0.05
  36   1    -0.04  -0.03   0.02     0.05   0.04   0.01     0.01  -0.05   0.07
                     25                     26                     27
                        a                      a                      a 
 Frequencies --   488.8574               529.3028               566.0791
 Red. masses --    10.4899                10.7221                10.5630
 Frc consts  --     0.0000                 0.0000                 0.0000
 IR Inten    --     3.3649                 5.8789                 5.9144
 Raman Activ --     0.0000                 0.0000                 0.0000
 Depolar     --     0.0000                 0.0000                 0.0000
 Atom AN      X      Y      Z        X      Y      Z        X      Y      Z
   1   7     0.01  -0.02   0.02     0.16   0.03  -0.05     0.05   0.01  -0.01
   2   6     0.01   0.07  -0.09     0.07   0.01  -0.00     0.02   0.01  -0.02
   3   6     0.15   0.01  -0.01    -0.25   0.05  -0.06    -0.03   0.01  -0.01
   4   6     0.09  -0.27   0.29    -0.27  -0.13   0.15    -0.06  -0.11   0.17
   5   6    -0.00  -0.01  -0.13    -0.07   0.06   0.11    -0.01   0.08  -0.04
   6   6    -0.03   0.03  -0.06    -0.03   0.19   0.04    -0.01  -0.04   0.04
   7   6    -0.17  -0.20   0.33     0.19  -0.11   0.19     0.02  -0.14   0.14
   8   6    -0.14  -0.03  -0.09     0.26  -0.11  -0.02     0.07   0.18  -0.12
   9   6    -0.11   0.04  -0.14     0.29  -0.02  -0.07     0.04   0.10  -0.08
  10   6    -0.06   0.06  -0.15     0.23   0.17   0.03    -0.00  -0.40   0.27
  11   6     0.12  -0.10  -0.11    -0.06   0.13   0.20    -0.01  -0.03   0.06
  12   6     0.15  -0.13   0.19    -0.11  -0.13   0.10     0.03   0.52  -0.32
  13   9     0.15   0.19   0.21    -0.11   0.02  -0.06    -0.02  -0.11   0.07
  14   6     0.03   0.00  -0.01    -0.21  -0.00  -0.09    -0.04  -0.17   0.09
  15   6    -0.10   0.07   0.01    -0.01  -0.09  -0.16     0.01   0.08  -0.08
  16   6    -0.11  -0.14  -0.04     0.02  -0.04   0.03     0.01   0.01  -0.01
  17   6    -0.04   0.14   0.01    -0.03  -0.01  -0.15    -0.04  -0.08   0.01
  18   6    -0.03   0.10  -0.03    -0.08  -0.14  -0.03    -0.03   0.04  -0.06
  19  17     0.00   0.00   0.00    -0.01  -0.00   0.00    -0.00  -0.00   0.00
  20   1    -0.02  -0.02   0.02     0.06   0.02  -0.02     0.01   0.01  -0.00
  21   1    -0.02  -0.02   0.01     0.06   0.02  -0.02     0.01   0.00   0.00
  22   1     0.05  -0.01   0.03     0.00   0.02  -0.03     0.01  -0.00  -0.01
  23   1     0.01   0.02  -0.02     0.05   0.01  -0.01     0.01   0.01  -0.01
  24   1     0.01   0.02  -0.03     0.04   0.01  -0.01     0.01   0.01  -0.01
  25   1     0.09   0.02  -0.01    -0.07   0.02  -0.01     0.00   0.01  -0.01
  26   1     0.08   0.02  -0.02    -0.07   0.01  -0.02     0.00   0.01  -0.01
  27   1    -0.00   0.10  -0.16     0.03   0.04  -0.05     0.00   0.09  -0.10
  28   1     0.03   0.12  -0.14    -0.03   0.11  -0.10    -0.01   0.05  -0.08
  29   1    -0.00   0.06  -0.10     0.09   0.01  -0.04     0.01  -0.01   0.02
  30   1    -0.01  -0.07   0.01     0.10  -0.06   0.01     0.00   0.12  -0.09
  31   1     0.02  -0.00  -0.06    -0.02   0.05   0.04    -0.00  -0.05   0.04
  32   1     0.02   0.01  -0.09    -0.06   0.05  -0.03    -0.02  -0.19   0.12
  33   1    -0.02   0.06  -0.02     0.01  -0.01  -0.05     0.00   0.01  -0.01
  34   1    -0.01  -0.06  -0.01    -0.07  -0.00   0.05    -0.00   0.06  -0.03
  35   1     0.01   0.14  -0.13    -0.05   0.10  -0.12    -0.01   0.05  -0.09
  36   1    -0.03   0.11  -0.15     0.02   0.03  -0.06     0.01   0.10  -0.11
                     28                     29                     30
                        a                      a                      a 
 Frequencies --   599.6568               610.9406               639.6452
 Red. masses --    11.0070                11.2256                 9.2982
 Frc consts  --     0.0000                 0.0000                 0.0000
 IR Inten    --     0.7091                 0.2963                 2.2045
 Raman Activ --     0.0000                 0.0000                 0.0000
 Depolar     --     0.0000                 0.0000                 0.0000
 Atom AN      X      Y      Z        X      Y      Z        X      Y      Z
   1   7    -0.08  -0.02   0.02    -0.01  -0.00   0.01    -0.02  -0.00   0.00
   2   6    -0.02   0.01  -0.03    -0.00   0.02   0.01    -0.00  -0.01   0.01
   3   6     0.24  -0.05   0.04     0.05   0.04   0.05     0.01   0.00   0.00
   4   6     0.19  -0.03  -0.02     0.04   0.08   0.08     0.03   0.08  -0.10
   5   6    -0.11  -0.11  -0.19     0.37   0.18   0.15     0.03  -0.04   0.06
   6   6    -0.15  -0.05   0.04     0.35  -0.24  -0.14     0.03   0.04  -0.08
   7   6    -0.23   0.12  -0.04    -0.05  -0.07  -0.08    -0.02  -0.01   0.02
   8   6    -0.16  -0.07  -0.09    -0.04  -0.07  -0.06    -0.03  -0.12   0.08
   9   6     0.26   0.07   0.14     0.05  -0.07  -0.02     0.00   0.03  -0.03
  10   6     0.31  -0.01   0.05     0.06   0.01   0.01     0.03   0.39  -0.24
  11   6    -0.04   0.11   0.18    -0.00   0.05   0.04    -0.01  -0.22   0.14
  12   6    -0.09   0.06   0.03    -0.01  -0.03   0.04     0.03   0.25  -0.16
  13   9    -0.05   0.03   0.05    -0.01   0.02   0.02     0.00   0.01  -0.00
  14   6    -0.26  -0.04  -0.08    -0.05   0.01  -0.04    -0.01  -0.24   0.14
  15   6     0.14  -0.18  -0.29     0.02  -0.07  -0.06     0.02   0.31  -0.20
  16   6     0.14  -0.09  -0.12     0.03   0.01  -0.02    -0.02  -0.27   0.18
  17   6    -0.03   0.16   0.21    -0.40  -0.16  -0.14    -0.01   0.06  -0.06
  18   6    -0.00   0.13   0.01    -0.39   0.27   0.15    -0.02  -0.02   0.07
  19  17     0.00   0.00   0.00     0.00  -0.00  -0.00     0.00   0.00  -0.00
  20   1    -0.04  -0.02   0.02    -0.00  -0.01   0.00    -0.01  -0.00   0.00
  21   1    -0.04  -0.01   0.02    -0.02  -0.00   0.00    -0.00  -0.00   0.00
  22   1     0.02  -0.01   0.02     0.01  -0.01   0.00    -0.01  -0.00   0.00
  23   1    -0.02  -0.00   0.01    -0.00   0.01  -0.01    -0.00  -0.00   0.00
  24   1    -0.02  -0.00  -0.00    -0.01  -0.00   0.01    -0.01  -0.00   0.00
  25   1     0.08  -0.01  -0.00     0.05   0.02   0.06    -0.00  -0.00   0.01
  26   1     0.08  -0.01   0.01    -0.01   0.06   0.01    -0.01   0.00   0.00
  27   1    -0.07  -0.02  -0.03     0.06   0.07   0.06     0.00  -0.04   0.06
  28   1     0.03  -0.01   0.07     0.07  -0.09  -0.04     0.01  -0.01   0.01
  29   1    -0.10  -0.01   0.01    -0.01  -0.03  -0.01     0.01   0.04  -0.05
  30   1     0.12   0.01   0.01     0.05  -0.02  -0.03     0.01  -0.08   0.05
  31   1    -0.07   0.02   0.02    -0.01   0.02   0.00    -0.02  -0.24   0.15
  32   1    -0.07   0.01   0.02    -0.01   0.02  -0.01    -0.01  -0.20   0.12
  33   1     0.09  -0.04  -0.05     0.01  -0.02  -0.01    -0.00   0.01  -0.01
  34   1    -0.04   0.00  -0.00    -0.01   0.01  -0.00    -0.02  -0.25   0.16
  35   1     0.01   0.01   0.09    -0.07  -0.07  -0.05    -0.00  -0.01   0.01
  36   1    -0.08  -0.01  -0.01    -0.09   0.08   0.05    -0.01  -0.04   0.06
                     31                     32                     33
                        a                      a                      a 
 Frequencies --   685.2509               745.0132               752.2069
 Red. masses --    10.8434                12.3633                 6.0804
 Frc consts  --     0.0000                 0.0000                 0.0000
 IR Inten    --     0.9966                21.7858                 1.4708
 Raman Activ --     0.0000                 0.0000                 0.0000
 Depolar     --     0.0000                 0.0000                 0.0000
 Atom AN      X      Y      Z        X      Y      Z        X      Y      Z
   1   7    -0.07  -0.00   0.01    -0.03  -0.00  -0.00    -0.03  -0.01   0.00
   2   6    -0.01  -0.04   0.05     0.00   0.00  -0.01    -0.00  -0.04   0.04
   3   6     0.03   0.00  -0.00     0.10  -0.02   0.02    -0.05   0.02  -0.02
   4   6     0.10   0.30  -0.38     0.06   0.03  -0.05     0.02   0.11  -0.14
   5   6     0.02  -0.21   0.20    -0.06  -0.06  -0.03     0.02  -0.08   0.07
   6   6     0.05   0.12  -0.24    -0.06   0.00   0.00     0.03  -0.07   0.01
   7   6    -0.09  -0.28   0.36    -0.03  -0.02   0.03    -0.05  -0.06   0.08
   8   6    -0.07  -0.01  -0.01     0.09  -0.10  -0.09    -0.03   0.27  -0.27
   9   6    -0.01   0.13  -0.10     0.38   0.06   0.07    -0.00  -0.27   0.27
  10   6     0.00  -0.17   0.12     0.20  -0.04  -0.00     0.02   0.07  -0.05
  11   6    -0.01   0.04   0.02     0.15  -0.08  -0.08     0.01   0.06  -0.05
  12   6     0.00   0.04  -0.02     0.03   0.03   0.00    -0.01  -0.14   0.09
  13   9     0.01   0.00   0.05    -0.17  -0.20  -0.32    -0.01   0.02  -0.04
  14   6    -0.02   0.00  -0.04     0.05   0.11   0.20    -0.00   0.08  -0.03
  15   6     0.04  -0.10  -0.02    -0.30   0.26   0.40     0.00   0.08  -0.04
  16   6     0.04   0.03  -0.02    -0.22  -0.08  -0.14     0.00   0.06  -0.07
  17   6     0.04   0.22  -0.17    -0.08   0.05   0.01     0.04  -0.01   0.08
  18   6    -0.00  -0.14   0.25    -0.10   0.06   0.06     0.03  -0.07   0.11
  19  17     0.00  -0.00  -0.00     0.00   0.00   0.00    -0.00  -0.00   0.00
  20   1    -0.01  -0.00  -0.00    -0.02  -0.01   0.01     0.00   0.01  -0.01
  21   1    -0.01   0.00  -0.00    -0.02  -0.00   0.01     0.01   0.01  -0.00
  22   1    -0.03   0.00  -0.00     0.01  -0.00   0.01    -0.03   0.01  -0.01
  23   1    -0.02  -0.02   0.02    -0.01  -0.00   0.01     0.00  -0.01   0.01
  24   1    -0.02  -0.01   0.02    -0.01   0.00   0.00    -0.00  -0.01   0.01
  25   1    -0.03  -0.01   0.01     0.03  -0.01   0.01    -0.04  -0.00   0.00
  26   1    -0.03  -0.01   0.01     0.03   0.00   0.00    -0.04  -0.00   0.00
  27   1    -0.01  -0.07   0.08    -0.04  -0.00  -0.00     0.01   0.07  -0.10
  28   1     0.03   0.08  -0.11     0.02   0.03  -0.01     0.04   0.10  -0.14
  29   1    -0.01   0.08  -0.08    -0.01  -0.01  -0.02    -0.05  -0.25   0.23
  30   1     0.00  -0.05   0.03     0.16  -0.02   0.01     0.04   0.26  -0.21
  31   1     0.00   0.08  -0.04     0.01  -0.00  -0.06    -0.01  -0.13   0.07
  32   1    -0.00   0.04  -0.03     0.01   0.01  -0.02    -0.01  -0.15   0.10
  33   1     0.02   0.03  -0.04    -0.04   0.11   0.12    -0.00  -0.17   0.12
  34   1     0.01   0.11  -0.06    -0.01  -0.00  -0.08    -0.01  -0.24   0.14
  35   1     0.03   0.08  -0.09    -0.02   0.02   0.00     0.04   0.14  -0.18
  36   1    -0.02  -0.07   0.09    -0.06   0.00   0.01     0.02   0.11  -0.13
                     34                     35                     36
                        a                      a                      a 
 Frequencies --   784.5814               791.0839               799.4127
 Red. masses --     6.2623                 2.0628                 8.1035
 Frc consts  --     0.0000                 0.0000                 0.0000
 IR Inten    --    52.0218                27.9424                 1.8614
 Raman Activ --     0.0000                 0.0000                 0.0000
 Depolar     --     0.0000                 0.0000                 0.0000
 Atom AN      X      Y      Z        X      Y      Z        X      Y      Z
   1   7     0.01  -0.00   0.01    -0.01  -0.03  -0.02    -0.02   0.01  -0.02
   2   6    -0.01  -0.04   0.06    -0.00  -0.18  -0.14     0.01   0.03  -0.06
   3   6    -0.21   0.06  -0.07    -0.01  -0.14  -0.13     0.28  -0.07   0.09
   4   6    -0.04   0.02  -0.04    -0.00   0.01   0.00     0.06   0.03  -0.02
   5   6     0.13  -0.02   0.07    -0.01   0.04   0.02    -0.16   0.01  -0.05
   6   6     0.13  -0.13   0.05    -0.02   0.01   0.01    -0.16   0.15  -0.03
   7   6    -0.07   0.10  -0.12     0.00   0.00  -0.02     0.11  -0.12   0.14
   8   6    -0.19  -0.03  -0.08    -0.01  -0.01   0.01     0.26   0.26  -0.09
   9   6    -0.00  -0.04   0.14    -0.00   0.01  -0.01    -0.06  -0.28   0.09
  10   6     0.03   0.19  -0.12    -0.00  -0.01   0.00    -0.03   0.19  -0.12
  11   6    -0.00  -0.17   0.09    -0.00  -0.00   0.00    -0.03  -0.09   0.07
  12   6     0.01   0.18  -0.10     0.00  -0.00  -0.00    -0.00   0.09  -0.07
  13   9    -0.01  -0.05   0.01     0.00   0.00   0.00     0.02   0.00   0.05
  14   6    -0.02  -0.15   0.11     0.00  -0.00  -0.00    -0.01  -0.13   0.05
  15   6     0.00  -0.09   0.06     0.00  -0.00  -0.01     0.01  -0.08   0.01
  16   6    -0.01  -0.15   0.06     0.00   0.00  -0.00     0.00  -0.05   0.10
  17   6     0.11   0.01   0.17     0.03  -0.00   0.02    -0.14  -0.08  -0.16
  18   6     0.10  -0.07   0.06     0.02   0.01   0.03    -0.12   0.03  -0.02
  19  17    -0.00  -0.00   0.00     0.01  -0.00   0.00     0.00   0.00  -0.00
  20   1     0.05   0.01  -0.02    -0.22   0.10   0.03    -0.07  -0.02   0.02
  21   1     0.03   0.01  -0.02     0.23   0.06   0.10    -0.05  -0.02   0.03
  22   1    -0.07   0.01  -0.03    -0.01   0.06   0.05     0.09  -0.02   0.03
  23   1     0.01  -0.00  -0.00     0.13  -0.04   0.47    -0.02  -0.00   0.02
  24   1     0.02  -0.01   0.01    -0.13   0.45  -0.16    -0.03   0.01  -0.01
  25   1    -0.08   0.01  -0.01     0.06  -0.05   0.37     0.09  -0.02   0.02
  26   1    -0.09   0.01  -0.01    -0.06   0.34  -0.14     0.10  -0.01   0.01
  27   1     0.07   0.08  -0.12    -0.02   0.01   0.02    -0.07  -0.06   0.09
  28   1     0.08   0.09  -0.12    -0.01  -0.00   0.00    -0.10  -0.07   0.10
  29   1    -0.10  -0.07   0.06    -0.01   0.01  -0.01     0.09  -0.16   0.16
  30   1     0.05   0.01  -0.00    -0.00  -0.01   0.01    -0.05   0.15  -0.13
  31   1     0.00   0.20  -0.14    -0.00   0.00  -0.00     0.03   0.14  -0.06
  32   1     0.02   0.29  -0.18     0.00  -0.00   0.00     0.02   0.21  -0.14
  33   1     0.03   0.24  -0.14     0.00  -0.01   0.00     0.00   0.15  -0.11
  34   1     0.03   0.25  -0.17    -0.00  -0.00   0.00     0.01   0.15  -0.07
  35   1     0.07   0.13  -0.13     0.02   0.01  -0.02    -0.07  -0.06   0.03
  36   1     0.05   0.12  -0.14     0.02   0.03  -0.01    -0.04  -0.06   0.07
                     37                     38                     39
                        a                      a                      a 
 Frequencies --   816.0728               849.7214               857.3289
 Red. masses --     7.5700                 3.7454                 3.4370
 Frc consts  --     0.0000                 0.0000                 0.0000
 IR Inten    --     7.9635                 1.0765                 0.0905
 Raman Activ --     0.0000                 0.0000                 0.0000
 Depolar     --     0.0000                 0.0000                 0.0000
 Atom AN      X      Y      Z        X      Y      Z        X      Y      Z
   1   7     0.08  -0.00   0.01    -0.01  -0.00  -0.01    -0.01  -0.02   0.01
   2   6    -0.02   0.01  -0.01     0.00   0.00  -0.01     0.00   0.01   0.01
   3   6    -0.27   0.04  -0.06     0.04  -0.00   0.02     0.02   0.01   0.00
   4   6    -0.10  -0.15   0.19     0.00   0.01  -0.02     0.01   0.00   0.00
   5   6     0.14   0.12  -0.07    -0.00  -0.03   0.08    -0.00   0.08  -0.13
   6   6     0.14   0.06  -0.20    -0.02  -0.05   0.13     0.01   0.16  -0.20
   7   6    -0.12  -0.18   0.23     0.02   0.01  -0.01     0.01   0.01  -0.01
   8   6    -0.20   0.09  -0.21    -0.00  -0.01   0.00     0.01  -0.02   0.02
   9   6     0.03  -0.04   0.15    -0.01  -0.01   0.00     0.00   0.02  -0.03
  10   6     0.06   0.02  -0.00    -0.01   0.03  -0.02     0.01   0.00  -0.00
  11   6     0.03  -0.04   0.02    -0.03  -0.34   0.20    -0.01  -0.14   0.09
  12   6     0.01   0.01   0.01    -0.00   0.04  -0.03     0.00   0.01  -0.00
  13   9    -0.03  -0.03  -0.04     0.00  -0.01   0.01    -0.00  -0.01  -0.00
  14   6    -0.01   0.02   0.02    -0.00   0.09  -0.06     0.00   0.07  -0.04
  15   6    -0.01   0.02   0.02     0.01   0.08  -0.06     0.00   0.04  -0.02
  16   6    -0.01  -0.02  -0.06     0.01   0.11  -0.06     0.00   0.03  -0.02
  17   6     0.14   0.19  -0.05    -0.01   0.03  -0.10    -0.02  -0.14   0.17
  18   6     0.12   0.06  -0.14     0.00   0.03  -0.08    -0.02  -0.12   0.15
  19  17    -0.00  -0.00  -0.00     0.00   0.00  -0.00    -0.00   0.00  -0.00
  20   1     0.05   0.02  -0.01    -0.03   0.00   0.01     0.00   0.00  -0.00
  21   1     0.05   0.01  -0.01     0.01   0.00   0.01     0.01   0.00  -0.02
  22   1    -0.03   0.01  -0.02     0.01   0.00   0.01    -0.01   0.01   0.01
  23   1     0.03   0.01  -0.01     0.01   0.00   0.00     0.00   0.00  -0.02
  24   1     0.02   0.02  -0.02    -0.02   0.00   0.00     0.00  -0.02   0.01
  25   1    -0.06   0.02  -0.01     0.01  -0.00  -0.01    -0.00   0.00  -0.02
  26   1    -0.07   0.02  -0.02     0.01  -0.01   0.01     0.02  -0.02   0.00
  27   1     0.04  -0.15   0.20     0.02   0.10  -0.12    -0.03  -0.19   0.24
  28   1     0.05  -0.20   0.27     0.00   0.15  -0.19    -0.03  -0.28   0.38
  29   1    -0.09  -0.06   0.04    -0.01   0.01  -0.01     0.00   0.03  -0.02
  30   1     0.07   0.10  -0.09    -0.00  -0.01   0.01    -0.02  -0.05   0.05
  31   1    -0.01   0.05  -0.05     0.05   0.59  -0.35     0.03   0.27  -0.16
  32   1    -0.00   0.00   0.00    -0.01  -0.13   0.09    -0.01  -0.11   0.07
  33   1     0.02  -0.01   0.03    -0.02  -0.24   0.15    -0.01  -0.12   0.08
  34   1     0.00  -0.03  -0.00    -0.01  -0.16   0.10    -0.01  -0.05   0.03
  35   1     0.04  -0.16   0.24    -0.03  -0.11   0.13     0.02   0.25  -0.31
  36   1     0.02  -0.18   0.22    -0.01  -0.10   0.12     0.02   0.25  -0.31
                     40                     41                     42
                        a                      a                      a 
 Frequencies --   875.0821               881.6550               887.9065
 Red. masses --     2.8550                 4.2644                 9.1295
 Frc consts  --     0.0000                 0.0000                 0.0000
 IR Inten    --    19.6796                 1.8822                 7.9968
 Raman Activ --     0.0000                 0.0000                 0.0000
 Depolar     --     0.0000                 0.0000                 0.0000
 Atom AN      X      Y      Z        X      Y      Z        X      Y      Z
   1   7    -0.04   0.12   0.17    -0.02  -0.02   0.02     0.06   0.09  -0.05
   2   6     0.02  -0.00   0.05     0.01  -0.01   0.02    -0.02   0.08  -0.07
   3   6     0.00  -0.18  -0.24    -0.03   0.03  -0.03     0.19  -0.17   0.11
   4   6     0.03  -0.01   0.01     0.02  -0.01   0.01    -0.10   0.04  -0.07
   5   6    -0.04  -0.00  -0.01    -0.02  -0.05  -0.05     0.13   0.30   0.22
   6   6    -0.04  -0.01  -0.01     0.00  -0.03  -0.05    -0.03   0.24   0.21
   7   6     0.01  -0.01  -0.01     0.00   0.01  -0.01    -0.03  -0.02   0.01
   8   6     0.06   0.02   0.02     0.06  -0.01   0.05    -0.35  -0.09  -0.13
   9   6     0.00  -0.02  -0.01     0.00   0.02  -0.04    -0.00   0.10   0.09
  10   6    -0.01   0.01  -0.01    -0.01  -0.09   0.05     0.03  -0.03   0.04
  11   6    -0.01  -0.02   0.01    -0.00   0.01  -0.00     0.03   0.02  -0.01
  12   6    -0.00  -0.00  -0.00     0.00   0.06  -0.04     0.02   0.01   0.01
  13   9     0.00   0.00   0.01    -0.00  -0.01   0.01    -0.02  -0.02  -0.03
  14   6     0.00   0.02  -0.01    -0.02  -0.29   0.18    -0.01  -0.04   0.05
  15   6    -0.00   0.00  -0.00    -0.00   0.01   0.00     0.01  -0.01   0.00
  16   6     0.00  -0.00   0.02     0.02   0.31  -0.19     0.01   0.03  -0.08
  17   6     0.03   0.03   0.01     0.00   0.03   0.03    -0.03  -0.21  -0.12
  18   6    -0.00   0.08   0.06    -0.02   0.04   0.05     0.09  -0.26  -0.20
  19  17    -0.01   0.00   0.00    -0.00   0.00   0.00     0.00   0.00  -0.00
  20   1     0.50  -0.11  -0.08     0.03   0.01  -0.01    -0.02  -0.07   0.03
  21   1    -0.38  -0.08  -0.17     0.02   0.01  -0.02    -0.19  -0.06   0.03
  22   1    -0.13  -0.12  -0.15    -0.06   0.01  -0.01     0.23  -0.07   0.04
  23   1    -0.24  -0.09   0.04     0.01   0.00  -0.00    -0.11  -0.02  -0.00
  24   1     0.29   0.02  -0.09     0.01  -0.00   0.00     0.01  -0.00  -0.02
  25   1     0.11  -0.04   0.26    -0.01   0.01  -0.01     0.09  -0.04   0.10
  26   1    -0.08   0.27  -0.14    -0.01   0.01  -0.01     0.04   0.02   0.01
  27   1    -0.04   0.02   0.01    -0.02  -0.01  -0.00     0.11   0.00   0.10
  28   1    -0.03  -0.01  -0.00     0.00  -0.03   0.02    -0.04   0.08   0.01
  29   1     0.03  -0.00   0.01     0.04   0.04  -0.04    -0.18   0.01  -0.01
  30   1    -0.02   0.00   0.00    -0.01  -0.00   0.00     0.05  -0.01   0.02
  31   1     0.01   0.03  -0.02     0.01   0.00   0.01    -0.04  -0.05   0.00
  32   1    -0.00  -0.03   0.02     0.04   0.49  -0.31     0.01   0.09  -0.05
  33   1    -0.01  -0.01   0.00    -0.00  -0.02   0.01     0.02   0.01   0.01
  34   1    -0.00   0.01  -0.00    -0.04  -0.50   0.32    -0.00  -0.11   0.05
  35   1     0.03  -0.01   0.01     0.01   0.01   0.00    -0.06   0.04  -0.10
  36   1     0.01   0.03   0.02    -0.01   0.03  -0.02     0.09  -0.06  -0.02
                     43                     44                     45
                        a                      a                      a 
 Frequencies --   901.5145               916.1394               918.8598
 Red. masses --     3.1012                 4.0561                 3.4473
 Frc consts  --     0.0000                 0.0000                 0.0000
 IR Inten    --     0.0159                 0.1640                 0.1271
 Raman Activ --     0.0000                 0.0000                 0.0000
 Depolar     --     0.0000                 0.0000                 0.0000
 Atom AN      X      Y      Z        X      Y      Z        X      Y      Z
   1   7    -0.01   0.01  -0.01    -0.00   0.01  -0.01     0.02   0.01  -0.01
   2   6     0.01  -0.00   0.01     0.00  -0.00   0.00    -0.01   0.01  -0.01
   3   6     0.04  -0.01   0.01     0.01  -0.02  -0.00    -0.02  -0.01   0.01
   4   6    -0.01   0.00  -0.00    -0.00   0.01  -0.01    -0.00   0.00  -0.00
   5   6     0.00  -0.04   0.12    -0.03  -0.21   0.29    -0.00  -0.01  -0.01
   6   6     0.00   0.09  -0.04     0.01   0.18  -0.21     0.00  -0.01  -0.01
   7   6    -0.00   0.01  -0.01     0.00   0.01  -0.01     0.00   0.00  -0.00
   8   6    -0.05  -0.01  -0.02    -0.01  -0.01   0.00     0.01  -0.00   0.01
   9   6    -0.00  -0.00   0.02    -0.00   0.00  -0.00    -0.00  -0.01   0.00
  10   6     0.01   0.00   0.00     0.01  -0.00   0.00     0.00   0.04  -0.03
  11   6     0.01   0.00   0.00     0.01   0.00   0.01    -0.01  -0.08   0.05
  12   6     0.00   0.00   0.00     0.00   0.00   0.00     0.00   0.04  -0.03
  13   9    -0.01  -0.00  -0.01    -0.01  -0.00  -0.01     0.00   0.00  -0.00
  14   6    -0.00   0.00   0.00    -0.00   0.00   0.00     0.01   0.14  -0.09
  15   6     0.00  -0.00   0.00    -0.00   0.00   0.00    -0.02  -0.32   0.20
  16   6    -0.00  -0.01  -0.01    -0.00  -0.01  -0.01     0.01   0.16  -0.09
  17   6     0.01   0.14  -0.24    -0.01  -0.11   0.12     0.00   0.01   0.01
  18   6    -0.01  -0.20   0.19     0.02   0.12  -0.16    -0.00   0.01   0.01
  19  17     0.00  -0.00   0.00     0.00  -0.00   0.00     0.00  -0.00   0.00
  20   1    -0.01  -0.01   0.00    -0.01  -0.00   0.00    -0.01  -0.00   0.00
  21   1    -0.01  -0.00   0.01    -0.01  -0.00   0.01    -0.01  -0.00   0.01
  22   1     0.01  -0.00   0.00     0.01  -0.00   0.00     0.03  -0.00   0.01
  23   1    -0.01  -0.00   0.00    -0.00  -0.00   0.01    -0.01   0.00  -0.00
  24   1    -0.00  -0.00   0.00    -0.01   0.00   0.00    -0.01   0.00  -0.00
  25   1     0.01  -0.00   0.01     0.01  -0.00   0.01    -0.01  -0.00   0.00
  26   1     0.01  -0.00   0.00    -0.01   0.00   0.00    -0.01  -0.00   0.00
  27   1     0.04   0.21  -0.26     0.04   0.39  -0.50    -0.00  -0.00  -0.00
  28   1    -0.02  -0.13   0.20    -0.03  -0.26   0.35     0.00  -0.00  -0.00
  29   1    -0.02   0.02  -0.02    -0.01   0.02  -0.01     0.01   0.02  -0.02
  30   1     0.00   0.03  -0.02    -0.01   0.00   0.00    -0.00   0.02  -0.01
  31   1    -0.00  -0.01   0.00     0.00  -0.00   0.00     0.00   0.04  -0.02
  32   1    -0.00  -0.00   0.00    -0.00   0.00  -0.00    -0.02  -0.30   0.19
  33   1     0.01   0.01  -0.00     0.00   0.00   0.00     0.04   0.61  -0.38
  34   1    -0.00  -0.00  -0.00    -0.00   0.00  -0.00    -0.02  -0.31   0.19
  35   1    -0.05  -0.35   0.44     0.01   0.13  -0.17     0.00   0.01  -0.00
  36   1     0.06   0.35  -0.44    -0.01  -0.18   0.23    -0.00   0.00   0.00
                     46                     47                     48
                        a                      a                      a 
 Frequencies --   923.4799               964.2494               977.0533
 Red. masses --     6.7986                 2.3344                10.3084
 Frc consts  --     0.0000                 0.0000                 0.0000
 IR Inten    --    36.7404                21.8080                55.7045
 Raman Activ --     0.0000                 0.0000                 0.0000
 Depolar     --     0.0000                 0.0000                 0.0000
 Atom AN      X      Y      Z        X      Y      Z        X      Y      Z
   1   7     0.31   0.16  -0.16    -0.01  -0.00   0.00     0.00  -0.00  -0.00
   2   6    -0.18   0.13  -0.14     0.01  -0.00  -0.00    -0.01   0.00   0.00
   3   6    -0.24  -0.22   0.18     0.01   0.00   0.00    -0.00  -0.00  -0.00
   4   6    -0.04   0.02  -0.03    -0.00   0.01  -0.00     0.01  -0.01  -0.00
   5   6    -0.03  -0.10  -0.06    -0.01   0.00  -0.00    -0.01  -0.02  -0.01
   6   6     0.06  -0.17  -0.12    -0.01   0.01   0.00    -0.00   0.05   0.02
   7   6    -0.01   0.01  -0.02     0.02   0.01  -0.02     0.02  -0.03   0.00
   8   6     0.12   0.02   0.05    -0.03  -0.17   0.13     0.03  -0.05  -0.12
   9   6     0.01  -0.03  -0.03     0.05  -0.16   0.16     0.34   0.10   0.11
  10   6    -0.01  -0.00  -0.01    -0.01   0.01  -0.02    -0.07  -0.06  -0.07
  11   6    -0.01  -0.01  -0.00    -0.06   0.02   0.00    -0.40  -0.03  -0.09
  12   6    -0.01  -0.00  -0.01    -0.03  -0.02  -0.03    -0.24  -0.10  -0.20
  13   9     0.01   0.01   0.01     0.03   0.02   0.04     0.19   0.14   0.24
  14   6     0.00  -0.01   0.00     0.08  -0.02  -0.02     0.39  -0.10  -0.11
  15   6    -0.01   0.02  -0.01    -0.02   0.01   0.00    -0.09   0.02   0.02
  16   6    -0.00   0.01   0.02    -0.02  -0.02   0.01    -0.07   0.08   0.10
  17   6     0.08   0.14   0.13    -0.01  -0.02   0.01    -0.01   0.01   0.00
  18   6    -0.01   0.09   0.10    -0.00  -0.00   0.00    -0.03   0.04   0.03
  19  17     0.00   0.00  -0.00     0.00   0.00   0.00    -0.00  -0.00  -0.00
  20   1    -0.12  -0.11   0.08     0.00   0.00  -0.00    -0.00   0.00   0.00
  21   1    -0.22  -0.08   0.09    -0.00   0.00  -0.00     0.01   0.00   0.00
  22   1     0.52  -0.10   0.11    -0.00   0.00  -0.00    -0.00   0.00   0.00
  23   1    -0.16  -0.00  -0.02     0.00  -0.00   0.00     0.00   0.00  -0.00
  24   1    -0.05   0.01  -0.02     0.00   0.00  -0.00    -0.00  -0.00   0.00
  25   1    -0.09  -0.07   0.13    -0.00  -0.00  -0.00     0.01   0.00  -0.00
  26   1    -0.15  -0.01   0.06     0.01  -0.00  -0.00    -0.01   0.00   0.00
  27   1    -0.04   0.00  -0.02    -0.01  -0.02   0.02     0.01  -0.01  -0.01
  28   1     0.03  -0.04  -0.03     0.02   0.03  -0.01     0.04   0.01   0.05
  29   1     0.07   0.01  -0.01     0.03   0.48  -0.44    -0.12  -0.06   0.09
  30   1    -0.01   0.00  -0.01     0.06   0.51  -0.42     0.13  -0.07   0.08
  31   1     0.01   0.02  -0.01    -0.05   0.02  -0.03    -0.25  -0.04  -0.10
  32   1     0.00   0.02  -0.01     0.02   0.00  -0.01     0.11  -0.01   0.00
  33   1    -0.01  -0.04   0.02    -0.04  -0.02  -0.01    -0.25  -0.06  -0.12
  34   1    -0.00   0.01   0.00     0.01   0.03  -0.03    -0.01   0.01   0.03
  35   1     0.06   0.03   0.02    -0.01   0.03  -0.03    -0.01  -0.00   0.01
  36   1    -0.02   0.05  -0.02     0.00  -0.00   0.01    -0.01   0.01   0.01
                     49                     50                     51
                        a                      a                      a 
 Frequencies --   993.2856              1011.3976              1023.7963
 Red. masses --    10.6304                10.1809                 8.3150
 Frc consts  --     0.0000                 0.0000                 0.0000
 IR Inten    --     0.9870                12.1179                 6.5649
 Raman Activ --     0.0000                 0.0000                 0.0000
 Depolar     --     0.0000                 0.0000                 0.0000
 Atom AN      X      Y      Z        X      Y      Z        X      Y      Z
   1   7     0.00  -0.00   0.00     0.47  -0.11   0.16    -0.11   0.05  -0.07
   2   6    -0.00   0.00   0.00    -0.66   0.00  -0.04     0.19   0.01   0.02
   3   6    -0.00   0.00  -0.00     0.05   0.05  -0.02    -0.17  -0.02  -0.02
   4   6     0.01  -0.00   0.00     0.08   0.04  -0.04     0.10  -0.04   0.03
   5   6    -0.01  -0.02  -0.02    -0.00  -0.09  -0.06    -0.02  -0.27  -0.23
   6   6    -0.00   0.03   0.02    -0.03   0.12   0.09    -0.01   0.29   0.23
   7   6     0.01  -0.01   0.00     0.03  -0.00   0.00     0.08  -0.02   0.00
   8   6     0.01  -0.05  -0.04    -0.04  -0.01  -0.01    -0.11  -0.02  -0.03
   9   6     0.15   0.04   0.07    -0.02   0.01   0.01    -0.06   0.03   0.02
  10   6    -0.09  -0.00   0.00    -0.00   0.00   0.01    -0.01   0.01   0.02
  11   6     0.19  -0.30  -0.47     0.01   0.01   0.01     0.02   0.02   0.03
  12   6     0.00   0.05   0.08     0.01   0.00   0.01     0.02   0.01   0.01
  13   9     0.00  -0.02  -0.03    -0.01  -0.00  -0.01    -0.01  -0.01  -0.02
  14   6    -0.39   0.03   0.01     0.00   0.00   0.00     0.00   0.01   0.01
  15   6     0.02  -0.04  -0.06     0.01  -0.00  -0.00     0.02  -0.01  -0.01
  16   6     0.16   0.28   0.45    -0.00  -0.01  -0.02    -0.01  -0.03  -0.05
  17   6    -0.01  -0.01  -0.01    -0.04  -0.12  -0.10    -0.02  -0.27  -0.22
  18   6    -0.01   0.03   0.02    -0.01   0.07   0.06    -0.02   0.30   0.23
  19  17    -0.00  -0.00  -0.00    -0.00  -0.00  -0.00     0.00   0.00   0.00
  20   1     0.00   0.00  -0.00     0.24   0.04  -0.03    -0.09  -0.02   0.01
  21   1     0.00   0.00   0.00     0.24   0.03  -0.04    -0.08  -0.01   0.02
  22   1     0.00   0.00   0.00    -0.07   0.02  -0.03     0.07  -0.01   0.02
  23   1    -0.00   0.00  -0.00    -0.13   0.02   0.00     0.03  -0.00  -0.02
  24   1    -0.00  -0.00   0.00    -0.14   0.01  -0.02     0.04  -0.01   0.01
  25   1    -0.00   0.00  -0.00     0.05   0.03  -0.07    -0.07  -0.02   0.04
  26   1    -0.00   0.00   0.00     0.11   0.04  -0.05    -0.14  -0.01   0.03
  27   1     0.01  -0.01  -0.01     0.05  -0.04  -0.05     0.16  -0.17  -0.10
  28   1     0.03   0.01   0.03     0.05   0.06   0.04     0.19   0.16   0.13
  29   1    -0.03   0.02  -0.02    -0.02   0.00  -0.00    -0.06   0.00   0.00
  30   1     0.12   0.01  -0.02     0.00   0.00  -0.00     0.01  -0.01   0.00
  31   1    -0.07  -0.12  -0.19     0.00  -0.00   0.01     0.02   0.01   0.02
  32   1    -0.11   0.02   0.02     0.00  -0.00   0.00     0.00   0.00   0.01
  33   1    -0.07  -0.03  -0.05     0.01   0.00   0.00     0.04   0.01   0.02
  34   1     0.01   0.09   0.14     0.00  -0.00  -0.01     0.01  -0.01  -0.02
  35   1     0.00  -0.00  -0.00     0.03  -0.05  -0.04     0.18  -0.17  -0.11
  36   1     0.00   0.01   0.01     0.04   0.04   0.03     0.16   0.14   0.14
                     52                     53                     54
                        a                      a                      a 
 Frequencies --  1050.0661              1107.3378              1121.0838
 Red. masses --     4.3743                 8.4624                 3.8717
 Frc consts  --     0.0000                 0.0000                 0.0000
 IR Inten    --     5.6756                28.5182                 1.9562
 Raman Activ --     0.0000                 0.0000                 0.0000
 Depolar     --     0.0000                 0.0000                 0.0000
 Atom AN      X      Y      Z        X      Y      Z        X      Y      Z
   1   7    -0.03   0.12   0.08     0.06   0.11  -0.15    -0.00   0.01  -0.00
   2   6     0.05  -0.18  -0.20    -0.08  -0.33   0.44     0.00  -0.01   0.00
   3   6    -0.02   0.25   0.27     0.11   0.35  -0.42    -0.01   0.01  -0.00
   4   6    -0.01   0.09   0.07     0.02  -0.04   0.08     0.01  -0.01  -0.01
   5   6     0.01  -0.12  -0.08     0.00   0.01  -0.01     0.02   0.00   0.00
   6   6     0.06  -0.03  -0.03    -0.00   0.01  -0.01    -0.01   0.02   0.01
   7   6    -0.01   0.05   0.04    -0.00   0.01   0.01    -0.00  -0.02  -0.01
   8   6    -0.02   0.00   0.00    -0.00  -0.00   0.00     0.01   0.02   0.02
   9   6    -0.00   0.01  -0.00     0.00   0.00  -0.00    -0.03  -0.04  -0.04
  10   6    -0.00  -0.00   0.00    -0.00   0.00   0.00     0.09  -0.05  -0.07
  11   6    -0.01  -0.00  -0.00     0.00  -0.00  -0.00    -0.12   0.09   0.13
  12   6    -0.00  -0.00  -0.00    -0.00  -0.00  -0.00     0.07   0.03   0.06
  13   9     0.00   0.00   0.00     0.00   0.00   0.00    -0.04  -0.02  -0.04
  14   6     0.00  -0.00  -0.00    -0.00   0.00   0.00    -0.12  -0.09  -0.16
  15   6     0.00  -0.00  -0.00     0.00  -0.00  -0.00    -0.10   0.12   0.17
  16   6    -0.00  -0.00  -0.01    -0.00  -0.00  -0.00     0.26   0.05   0.11
  17   6    -0.05  -0.06  -0.04    -0.02  -0.01  -0.02     0.01   0.01   0.01
  18   6    -0.01  -0.08  -0.07     0.01  -0.01  -0.03    -0.00   0.01   0.01
  19  17    -0.00   0.00   0.00     0.00   0.00  -0.00     0.00   0.00   0.00
  20   1     0.16  -0.05  -0.01    -0.14  -0.08   0.05     0.00  -0.00   0.00
  21   1    -0.19  -0.03  -0.05    -0.15  -0.05   0.09    -0.01  -0.00   0.00
  22   1     0.02  -0.06  -0.04     0.27  -0.04   0.07     0.01  -0.00   0.00
  23   1    -0.02  -0.08   0.22    -0.18  -0.15   0.19     0.00  -0.00   0.01
  24   1     0.04   0.22  -0.15    -0.11  -0.14   0.16    -0.01   0.00   0.00
  25   1    -0.49  -0.08  -0.05    -0.04   0.07  -0.09    -0.01   0.00  -0.00
  26   1     0.45  -0.07  -0.04     0.04   0.08  -0.11     0.00  -0.00   0.00
  27   1     0.04  -0.05  -0.04    -0.03   0.00   0.03     0.04  -0.02  -0.01
  28   1     0.12   0.03   0.03     0.01  -0.00   0.01    -0.04  -0.01  -0.01
  29   1     0.01  -0.01  -0.00     0.00  -0.00  -0.00    -0.11   0.04   0.04
  30   1     0.04  -0.02  -0.00     0.01  -0.00  -0.00    -0.10   0.02   0.02
  31   1    -0.00   0.00  -0.00     0.00   0.00   0.00    -0.19  -0.01  -0.05
  32   1     0.00   0.00   0.00    -0.00   0.00   0.01    -0.02  -0.39  -0.62
  33   1    -0.00  -0.00  -0.00     0.00  -0.00   0.00    -0.04   0.03   0.05
  34   1     0.01  -0.00  -0.00    -0.00  -0.00   0.00     0.36  -0.08  -0.09
  35   1    -0.08   0.02   0.00    -0.03   0.00   0.01     0.01  -0.00   0.00
  36   1    -0.00  -0.03  -0.02    -0.01  -0.02   0.00    -0.02  -0.01  -0.01
                     55                     56                     57
                        a                      a                      a 
 Frequencies --  1135.6315              1146.0209              1183.3657
 Red. masses --     3.7832                 4.5144                 2.2132
 Frc consts  --     0.0000                 0.0000                 0.0000
 IR Inten    --    11.0806                32.3499                 5.4096
 Raman Activ --     0.0000                 0.0000                 0.0000
 Depolar     --     0.0000                 0.0000                 0.0000
 Atom AN      X      Y      Z        X      Y      Z        X      Y      Z
   1   7    -0.00  -0.03  -0.01     0.00   0.02   0.02    -0.00   0.00   0.00
   2   6     0.00   0.05   0.02     0.00  -0.04  -0.02     0.00  -0.00   0.00
   3   6     0.01  -0.06  -0.03     0.01   0.04   0.03     0.01  -0.00   0.00
   4   6    -0.02   0.09   0.06    -0.02  -0.08  -0.06    -0.02  -0.00  -0.00
   5   6    -0.09  -0.03  -0.03     0.06   0.07   0.06     0.01   0.03   0.02
   6   6     0.07  -0.08  -0.05    -0.07   0.07   0.05    -0.01   0.00   0.00
   7   6    -0.05   0.10   0.07     0.01  -0.10  -0.08    -0.09   0.02   0.00
   8   6    -0.03   0.02   0.02    -0.01  -0.03  -0.04     0.01   0.05   0.05
   9   6     0.06   0.06   0.07     0.14   0.06   0.09    -0.06  -0.02  -0.03
  10   6    -0.16   0.01   0.01    -0.17   0.01  -0.00     0.08  -0.03  -0.05
  11   6    -0.05  -0.02  -0.03    -0.02  -0.03  -0.05     0.13   0.06   0.11
  12   6    -0.09  -0.10  -0.18    -0.12  -0.13  -0.23     0.04   0.07   0.12
  13   9     0.07   0.06   0.10     0.08   0.07   0.13    -0.05  -0.03  -0.05
  14   6    -0.14  -0.02  -0.04    -0.16  -0.01  -0.03    -0.03  -0.00  -0.01
  15   6    -0.03   0.04   0.06    -0.03   0.05   0.07    -0.11  -0.01  -0.03
  16   6     0.07  -0.02  -0.03     0.06  -0.01  -0.01     0.06  -0.01  -0.01
  17   6    -0.07  -0.08  -0.07     0.08   0.06   0.06     0.01  -0.02  -0.01
  18   6     0.08  -0.08  -0.06    -0.09   0.06   0.04    -0.00  -0.03  -0.02
  19  17    -0.00  -0.00  -0.00    -0.00   0.00   0.00     0.00  -0.00  -0.00
  20   1    -0.03   0.01  -0.00     0.02  -0.01   0.00     0.00  -0.00  -0.00
  21   1     0.04   0.01   0.01    -0.03  -0.00  -0.01     0.00   0.00   0.00
  22   1    -0.02   0.01   0.00     0.01  -0.01  -0.00     0.00   0.00   0.00
  23   1    -0.02   0.01  -0.04     0.02  -0.01   0.03     0.00   0.00  -0.00
  24   1     0.03  -0.02   0.01    -0.03   0.02  -0.01    -0.00  -0.00   0.00
  25   1     0.05  -0.00   0.02    -0.02   0.01  -0.02     0.01   0.00  -0.00
  26   1    -0.03   0.02  -0.01     0.04  -0.01   0.00     0.01   0.00  -0.00
  27   1    -0.30   0.13   0.07     0.27  -0.11  -0.06    -0.00   0.01   0.01
  28   1     0.33   0.10   0.11    -0.22  -0.07  -0.06     0.05   0.02   0.02
  29   1     0.16  -0.05  -0.04     0.06  -0.02  -0.04     0.07  -0.01  -0.01
  30   1     0.28  -0.08  -0.05     0.06   0.02   0.01     0.03  -0.02  -0.02
  31   1     0.31   0.07   0.16     0.42   0.09   0.21    -0.03   0.00  -0.00
  32   1    -0.04  -0.03  -0.05    -0.05   0.02   0.03    -0.01   0.18   0.29
  33   1     0.09   0.04   0.07     0.11   0.05   0.09    -0.59  -0.15  -0.31
  34   1     0.27  -0.10  -0.12     0.22  -0.07  -0.09     0.46  -0.16  -0.19
  35   1    -0.22   0.07   0.04     0.29  -0.12  -0.07     0.13  -0.07  -0.04
  36   1     0.29   0.08   0.09    -0.32  -0.10  -0.11    -0.04  -0.02  -0.02
                     58                     59                     60
                        a                      a                      a 
 Frequencies --  1189.9400              1199.9337              1207.0015
 Red. masses --     2.7670                 3.9912                 4.5497
 Frc consts  --     0.0000                 0.0000                 0.0000
 IR Inten    --     1.7193                 8.1869                 2.9922
 Raman Activ --     0.0000                 0.0000                 0.0000
 Depolar     --     0.0000                 0.0000                 0.0000
 Atom AN      X      Y      Z        X      Y      Z        X      Y      Z
   1   7    -0.00  -0.00   0.00    -0.01  -0.23  -0.16     0.01  -0.02  -0.01
   2   6     0.00   0.00  -0.00     0.00   0.32   0.24    -0.01   0.04  -0.01
   3   6     0.01  -0.01   0.01    -0.00  -0.08  -0.02    -0.14   0.01  -0.01
   4   6    -0.03   0.00  -0.00    -0.02   0.07   0.04     0.31  -0.02   0.04
   5   6    -0.02   0.10   0.08     0.02  -0.04  -0.02    -0.03  -0.01  -0.01
   6   6     0.01   0.03   0.02    -0.02  -0.02  -0.02     0.06   0.10   0.08
   7   6    -0.24   0.06   0.01    -0.01   0.01   0.00     0.33  -0.08  -0.03
   8   6     0.07   0.08   0.10     0.00   0.00   0.00    -0.07  -0.06  -0.08
   9   6    -0.06   0.00   0.00     0.00  -0.00   0.00     0.00   0.02   0.01
  10   6     0.05   0.00   0.02     0.01  -0.00  -0.00    -0.15   0.03   0.04
  11   6    -0.07  -0.01  -0.03    -0.00  -0.00  -0.00     0.04   0.02   0.03
  12   6    -0.00   0.03   0.05    -0.00  -0.00  -0.00     0.07   0.01   0.03
  13   9    -0.01  -0.01  -0.02     0.00   0.00   0.00    -0.02  -0.01  -0.02
  14   6     0.07   0.00   0.02     0.00  -0.00  -0.00    -0.01  -0.00  -0.00
  15   6     0.03  -0.01  -0.01    -0.00   0.00   0.00     0.03  -0.03  -0.04
  16   6    -0.01  -0.00  -0.00     0.00   0.00   0.00    -0.04  -0.01  -0.03
  17   6     0.05  -0.08  -0.05     0.02  -0.01  -0.00     0.04  -0.06  -0.05
  18   6    -0.04  -0.11  -0.08    -0.02  -0.02  -0.03    -0.02   0.03   0.02
  19  17    -0.00  -0.00  -0.00     0.00  -0.00  -0.00    -0.00  -0.00  -0.00
  20   1    -0.00   0.00  -0.00    -0.24   0.08  -0.02    -0.01   0.01  -0.00
  21   1     0.00   0.00  -0.00     0.23   0.02   0.07     0.02   0.00  -0.00
  22   1    -0.01   0.00  -0.00    -0.04   0.10   0.07    -0.01   0.01  -0.00
  23   1     0.00   0.00  -0.00    -0.37  -0.03  -0.10    -0.03   0.00  -0.01
  24   1     0.00  -0.00   0.00     0.42  -0.06  -0.03     0.03  -0.00  -0.01
  25   1     0.01   0.00  -0.01    -0.24  -0.11   0.18    -0.16  -0.04   0.02
  26   1     0.01   0.01  -0.00     0.30   0.16  -0.16    -0.11   0.01   0.02
  27   1    -0.20   0.13   0.08     0.12  -0.06  -0.05    -0.42   0.21   0.12
  28   1     0.31   0.13   0.13    -0.01  -0.01  -0.01     0.07   0.05   0.04
  29   1     0.28  -0.07  -0.05     0.01  -0.00  -0.00    -0.29   0.07   0.06
  30   1     0.18  -0.06  -0.06     0.00   0.00  -0.00    -0.02   0.00   0.01
  31   1    -0.12  -0.02  -0.07    -0.00  -0.00  -0.00    -0.02  -0.01  -0.00
  32   1     0.02  -0.09  -0.13     0.00  -0.00  -0.00    -0.00   0.03   0.05
  33   1     0.07   0.01   0.03     0.00   0.00   0.00     0.05   0.00   0.01
  34   1    -0.16   0.05   0.06    -0.00   0.00   0.00     0.11  -0.05  -0.06
  35   1     0.49  -0.26  -0.17     0.00  -0.00   0.00    -0.12   0.05   0.03
  36   1    -0.26  -0.13  -0.13    -0.06  -0.03  -0.02    -0.45  -0.17  -0.18
                     61                     62                     63
                        a                      a                      a 
 Frequencies --  1224.7295              1249.4091              1250.7103
 Red. masses --     5.9812                 4.0942                 3.3272
 Frc consts  --     0.0000                 0.0000                 0.0000
 IR Inten    --    22.2878                 8.0047                16.4926
 Raman Activ --     0.0000                 0.0000                 0.0000
 Depolar     --     0.0000                 0.0000                 0.0000
 Atom AN      X      Y      Z        X      Y      Z        X      Y      Z
   1   7     0.00  -0.01  -0.01     0.02  -0.06  -0.03     0.00  -0.07  -0.04
   2   6    -0.00   0.01  -0.01     0.00  -0.03  -0.07     0.01  -0.08  -0.07
   3   6    -0.06   0.02   0.01    -0.08   0.13   0.06     0.05   0.15   0.13
   4   6     0.12  -0.02   0.00     0.27  -0.09  -0.02    -0.13  -0.07  -0.08
   5   6     0.06   0.02   0.02     0.10  -0.02  -0.00    -0.04   0.02   0.01
   6   6     0.02   0.06   0.05    -0.04   0.06   0.04     0.06  -0.00   0.01
   7   6    -0.23   0.02   0.00    -0.00   0.09   0.06     0.01  -0.01  -0.01
   8   6     0.08  -0.03  -0.03    -0.13  -0.02  -0.03     0.05   0.01   0.02
   9   6     0.04  -0.09  -0.09     0.04   0.09   0.11    -0.04  -0.05  -0.06
  10   6     0.32  -0.12  -0.17    -0.01  -0.04  -0.05     0.03   0.06   0.09
  11   6     0.05  -0.00  -0.00    -0.09  -0.03  -0.06     0.08   0.02   0.04
  12   6    -0.14  -0.11  -0.19    -0.05   0.09   0.15     0.05  -0.10  -0.16
  13   9     0.05   0.05   0.09    -0.01  -0.03  -0.05     0.01   0.03   0.05
  14   6    -0.11  -0.02  -0.04     0.06   0.06   0.10    -0.05  -0.07  -0.11
  15   6    -0.09   0.11   0.16     0.05  -0.03  -0.03    -0.06   0.02   0.03
  16   6     0.11   0.05   0.10     0.06  -0.03  -0.04    -0.06   0.02   0.03
  17   6    -0.07  -0.04  -0.04    -0.09  -0.05  -0.05     0.00   0.06   0.04
  18   6     0.06  -0.06  -0.04     0.05  -0.01  -0.00    -0.04   0.02   0.02
  19  17    -0.00  -0.00  -0.00     0.00  -0.00  -0.00     0.00  -0.00  -0.00
  20   1    -0.01   0.00  -0.00    -0.04   0.02  -0.01    -0.06   0.02  -0.01
  21   1     0.01   0.00   0.00     0.04  -0.00   0.00     0.04  -0.01   0.00
  22   1    -0.01   0.00  -0.00    -0.02   0.01   0.00    -0.02   0.02   0.01
  23   1    -0.04  -0.01   0.01    -0.26  -0.11   0.13    -0.33  -0.15   0.20
  24   1     0.04   0.01  -0.02     0.20   0.11  -0.12     0.31   0.16  -0.18
  25   1    -0.05  -0.01  -0.00    -0.02   0.04  -0.10     0.23   0.12  -0.21
  26   1    -0.04  -0.01   0.02    -0.25  -0.14   0.15    -0.14  -0.17   0.16
  27   1    -0.15   0.09   0.06    -0.11   0.07   0.05    -0.07   0.03   0.02
  28   1     0.13   0.08   0.05    -0.33  -0.12  -0.11     0.02   0.00   0.00
  29   1    -0.18   0.07   0.04     0.30  -0.12  -0.10    -0.13   0.05   0.05
  30   1    -0.49   0.14   0.12     0.07   0.01   0.00    -0.01  -0.01  -0.01
  31   1     0.25   0.05   0.12     0.17   0.04   0.09    -0.24  -0.06  -0.13
  32   1    -0.04   0.04   0.06     0.03  -0.12  -0.18    -0.02   0.11   0.18
  33   1    -0.14   0.00  -0.02    -0.19  -0.06  -0.12     0.21   0.07   0.13
  34   1    -0.19   0.10   0.13    -0.13   0.04   0.05     0.16  -0.05  -0.07
  35   1     0.05  -0.05  -0.03    -0.03  -0.01  -0.01     0.13  -0.05  -0.03
  36   1     0.04  -0.01  -0.00     0.08   0.02   0.02     0.09   0.05   0.05
                     64                     65                     66
                        a                      a                      a 
 Frequencies --  1254.7077              1277.5588              1296.1423
 Red. masses --     6.4452                 4.7938                 4.8074
 Frc consts  --     0.0000                 0.0000                 0.0000
 IR Inten    --    18.1399                 0.1192                 1.9048
 Raman Activ --     0.0000                 0.0000                 0.0000
 Depolar     --     0.0000                 0.0000                 0.0000
 Atom AN      X      Y      Z        X      Y      Z        X      Y      Z
   1   7     0.01   0.02   0.02    -0.02   0.03  -0.02    -0.08   0.08  -0.11
   2   6    -0.01   0.05   0.00    -0.02  -0.00   0.07    -0.14  -0.18   0.16
   3   6    -0.11  -0.03  -0.07     0.01  -0.05   0.03    -0.22  -0.06   0.11
   4   6     0.33  -0.01   0.05    -0.17  -0.07  -0.10     0.06   0.07  -0.01
   5   6     0.13  -0.02  -0.00     0.01  -0.13  -0.09    -0.03  -0.02  -0.01
   6   6    -0.11   0.04   0.02     0.18   0.01   0.02    -0.01   0.00   0.00
   7   6    -0.13   0.12   0.07     0.24   0.18   0.17     0.12  -0.03  -0.02
   8   6    -0.04   0.06   0.07    -0.16  -0.11  -0.14    -0.13   0.05   0.04
   9   6    -0.13  -0.01  -0.02     0.06   0.07   0.09    -0.16   0.01   0.00
  10   6     0.24   0.05   0.11    -0.03   0.01   0.01     0.21  -0.02   0.01
  11   6     0.05  -0.00   0.01     0.01   0.01   0.01    -0.01  -0.01  -0.02
  12   6    -0.02  -0.15  -0.25     0.01  -0.00  -0.01    -0.05  -0.06  -0.10
  13   9     0.04   0.05   0.09    -0.00   0.00   0.00     0.02   0.02   0.04
  14   6    -0.07  -0.07  -0.12    -0.01  -0.01  -0.02    -0.04   0.01   0.02
  15   6    -0.11   0.06   0.09     0.00  -0.00  -0.00    -0.05   0.05   0.07
  16   6     0.01   0.02   0.04    -0.01   0.01   0.01     0.11  -0.02  -0.02
  17   6    -0.08  -0.10  -0.08     0.01   0.05   0.04     0.06  -0.05  -0.03
  18   6     0.09  -0.05  -0.04    -0.18  -0.02  -0.03     0.03   0.05   0.05
  19  17    -0.00   0.00   0.00     0.00   0.00   0.00     0.00   0.00  -0.00
  20   1     0.02  -0.00   0.00     0.01  -0.02  -0.00     0.02  -0.06  -0.01
  21   1    -0.01   0.00  -0.01    -0.01   0.00   0.02    -0.01   0.01   0.07
  22   1    -0.01  -0.00  -0.01     0.04  -0.00   0.01     0.16  -0.01   0.06
  23   1     0.09   0.05  -0.07     0.14   0.06  -0.08     0.29   0.08  -0.10
  24   1    -0.12  -0.06   0.06    -0.01  -0.03   0.03     0.35   0.14  -0.15
  25   1    -0.22  -0.08   0.11     0.00  -0.01   0.01     0.35   0.13  -0.21
  26   1    -0.08   0.04  -0.02     0.27   0.10  -0.12     0.22   0.10  -0.10
  27   1    -0.01   0.02   0.02    -0.37   0.15   0.08     0.01  -0.01  -0.02
  28   1    -0.30  -0.10  -0.09    -0.25  -0.12  -0.12     0.00   0.00   0.00
  29   1     0.23  -0.07  -0.05     0.03  -0.06  -0.05     0.09  -0.03  -0.02
  30   1     0.10  -0.04  -0.05    -0.19   0.09   0.09     0.12  -0.05  -0.05
  31   1    -0.28  -0.07  -0.17    -0.03  -0.01  -0.02     0.01  -0.00  -0.01
  32   1    -0.03   0.11   0.16    -0.00   0.01   0.01    -0.01  -0.01  -0.01
  33   1     0.15   0.07   0.13     0.02   0.01   0.01    -0.09  -0.01  -0.02
  34   1     0.11  -0.03  -0.03     0.05  -0.01  -0.02    -0.10   0.04   0.05
  35   1    -0.06  -0.01  -0.02     0.33  -0.15  -0.08    -0.14   0.07   0.03
  36   1     0.03  -0.02  -0.01     0.22   0.11   0.10    -0.16  -0.05  -0.06
                     67                     68                     69
                        a                      a                      a 
 Frequencies --  1302.2717              1318.6847              1343.3714
 Red. masses --     9.2030                 4.3116                10.8845
[...]
   3   6     0.02  -0.00   0.00    -0.00   0.06   0.04     0.02  -0.19  -0.11
   4   6    -0.11  -0.02  -0.03     0.00   0.00   0.00     0.00  -0.01  -0.00
   5   6     0.15  -0.03  -0.01    -0.00  -0.00  -0.00     0.00   0.00   0.00
   6   6    -0.16  -0.05  -0.06    -0.00   0.00   0.00    -0.00   0.00  -0.00
   7   6     0.01   0.07   0.06     0.00  -0.00  -0.00    -0.00   0.00   0.00
   8   6     0.42  -0.30  -0.30    -0.00  -0.00  -0.00     0.00   0.00   0.00
   9   6    -0.42   0.30   0.30    -0.00  -0.00  -0.00    -0.00   0.00   0.00
  10   6     0.00  -0.06  -0.09     0.00  -0.00  -0.00     0.00   0.00   0.00
  11   6     0.12   0.04   0.07    -0.00  -0.00  -0.00    -0.00   0.00   0.00
  12   6    -0.10   0.00  -0.01     0.00   0.00   0.00     0.00   0.00   0.00
  13   9     0.00   0.00   0.00    -0.00  -0.00  -0.00    -0.00   0.00  -0.00
  14   6     0.06   0.03   0.05    -0.00  -0.00  -0.00    -0.00  -0.00   0.00
  15   6    -0.16  -0.03  -0.07     0.00   0.00   0.00    -0.00   0.00   0.00
  16   6     0.14  -0.01   0.01    -0.00  -0.00  -0.00     0.00   0.00   0.00
  17   6    -0.18   0.02   0.00    -0.00  -0.00  -0.00     0.00  -0.00  -0.00
  18   6     0.20   0.05   0.06     0.00  -0.00   0.00    -0.00   0.00   0.00
  19  17    -0.00  -0.00  -0.00    -0.00  -0.00  -0.01    -0.00  -0.00  -0.01
  20   1     0.00  -0.00  -0.00    -0.21  -0.23  -0.62    -0.15  -0.17  -0.47
  21   1     0.00   0.00  -0.00     0.01  -0.02   0.01     0.00  -0.01   0.01
  22   1    -0.00  -0.00  -0.00     0.01   0.02  -0.01     0.01   0.01  -0.00
  23   1    -0.00  -0.00  -0.00    -0.09   0.26   0.01     0.09  -0.27  -0.02
  24   1    -0.00   0.00   0.00     0.16   0.17   0.49    -0.06  -0.04  -0.15
  25   1    -0.00  -0.00  -0.00     0.06  -0.20  -0.01    -0.19   0.60   0.05
  26   1     0.00   0.00  -0.00    -0.05  -0.04  -0.14     0.13   0.10   0.35
  27   1    -0.02   0.02   0.01    -0.00  -0.00  -0.00    -0.00  -0.00  -0.00
  28   1     0.01   0.00   0.01     0.00  -0.00  -0.00     0.00  -0.00  -0.00
  29   1    -0.13   0.01  -0.02     0.00   0.00   0.00     0.00   0.00  -0.00
  30   1     0.13   0.01   0.01     0.00   0.00  -0.00    -0.00  -0.00  -0.00
  31   1    -0.01  -0.00   0.00    -0.00   0.00   0.00     0.00   0.00  -0.00
  32   1     0.02  -0.00  -0.00     0.00  -0.00  -0.00    -0.00   0.00   0.00
  33   1     0.03   0.01   0.02     0.00   0.00  -0.00     0.00  -0.00  -0.00
  34   1    -0.01   0.02   0.02     0.00   0.00  -0.00    -0.00  -0.00  -0.00
  35   1     0.02  -0.03  -0.02     0.00   0.00   0.00     0.00   0.00   0.00
  36   1    -0.04  -0.02  -0.02     0.00  -0.00  -0.00     0.01  -0.01  -0.00
                     88                     89                     90
                        a                      a                      a 
 Frequencies --  2961.8320              2978.0113              2988.0736
 Red. masses --     1.9643                 1.5597                 1.5598
 Frc consts  --     0.0000                 0.0000                 0.0000
 IR Inten    --   220.6685                 1.8355                22.0016
 Raman Activ --     0.0000                 0.0000                 0.0000
 Depolar     --     0.0000                 0.0000                 0.0000
 Atom AN      X      Y      Z        X      Y      Z        X      Y      Z
   1   7    -0.03  -0.04  -0.10    -0.01  -0.01  -0.02    -0.01  -0.02  -0.03
   2   6    -0.01  -0.15  -0.14    -0.07   0.12  -0.05    -0.08   0.09  -0.10
   3   6     0.03  -0.15  -0.05     0.07  -0.01   0.15    -0.07   0.04  -0.13
   4   6     0.00  -0.00  -0.00     0.01   0.00   0.00    -0.00   0.00  -0.00
   5   6     0.00   0.00   0.00    -0.00  -0.00  -0.00     0.00  -0.00   0.00
   6   6    -0.00  -0.00  -0.00    -0.00   0.00   0.00    -0.00  -0.00   0.00
   7   6    -0.00   0.00   0.00    -0.00  -0.00  -0.00     0.00   0.00   0.00
   8   6     0.00   0.00   0.00     0.00  -0.00  -0.00    -0.00   0.00   0.00
   9   6     0.00  -0.00  -0.00    -0.00   0.00   0.00     0.00  -0.00  -0.00
  10   6    -0.00   0.00   0.00     0.00   0.00  -0.00    -0.00  -0.00   0.00
  11   6     0.00   0.00  -0.00    -0.00   0.00  -0.00     0.00   0.00   0.00
  12   6    -0.00  -0.00  -0.00     0.00  -0.00   0.00    -0.00   0.00  -0.00
  13   9     0.00   0.00   0.00    -0.00  -0.00  -0.00    -0.00   0.00  -0.00
  14   6     0.00  -0.00  -0.00    -0.00   0.00   0.00    -0.00   0.00  -0.00
  15   6     0.00  -0.00  -0.00    -0.00   0.00   0.00    -0.00   0.00   0.00
  16   6    -0.00  -0.00  -0.00     0.00   0.00   0.00     0.00  -0.00   0.00
  17   6     0.00   0.00   0.00    -0.00  -0.00  -0.00    -0.00  -0.00   0.00
  18   6    -0.00   0.00   0.00    -0.00   0.00   0.00     0.00   0.00   0.00
  19  17     0.00   0.00   0.00    -0.00   0.00   0.00     0.00   0.00   0.00
  20   1     0.11   0.13   0.35     0.01   0.02   0.05     0.04   0.05   0.12
  21   1    -0.01   0.01  -0.00    -0.01   0.02   0.00    -0.01   0.02  -0.00
  22   1    -0.01  -0.01   0.01    -0.00  -0.00   0.00    -0.00  -0.00  -0.00
  23   1    -0.13   0.36   0.02     0.18  -0.56  -0.07     0.16  -0.49  -0.07
  24   1     0.17   0.17   0.49     0.08   0.12   0.27     0.13   0.17   0.41
  25   1    -0.16   0.52   0.05    -0.07   0.25   0.05     0.09  -0.34  -0.05
  26   1     0.05   0.03   0.13    -0.19  -0.22  -0.58     0.16   0.19   0.51
  27   1    -0.00  -0.00  -0.00     0.00   0.00   0.00    -0.00  -0.00  -0.00
  28   1    -0.00   0.00   0.00     0.00  -0.00  -0.00    -0.00   0.00   0.00
  29   1    -0.00  -0.00  -0.00     0.00   0.00   0.00    -0.00  -0.00  -0.00
  30   1     0.00   0.00   0.00    -0.00  -0.00  -0.00     0.00   0.00   0.00
  31   1     0.00   0.00  -0.00    -0.00   0.00   0.00     0.00   0.00  -0.00
  32   1    -0.00  -0.00  -0.00    -0.00   0.00   0.00     0.00   0.00  -0.00
  33   1    -0.00   0.00   0.00     0.00  -0.00  -0.00     0.00  -0.00  -0.00
  34   1     0.00   0.00   0.00    -0.00  -0.00  -0.00    -0.00  -0.00   0.00
  35   1    -0.00  -0.00  -0.00     0.00   0.00   0.00    -0.00  -0.00  -0.00
  36   1     0.01  -0.01  -0.00     0.00  -0.00  -0.00    -0.00   0.00   0.00
                     91                     92                     93
                        a                      a                      a 
 Frequencies --  3106.5893              3106.9711              3118.5594
 Red. masses --     1.7794                 1.7891                 1.7996
 Frc consts  --     0.0000                 0.0000                 0.0000
 IR Inten    --    29.9216                 7.2006                12.1401
 Raman Activ --     0.0000                 0.0000                 0.0000
 Depolar     --     0.0000                 0.0000                 0.0000
 Atom AN      X      Y      Z        X      Y      Z        X      Y      Z
   1   7     0.00   0.00   0.00     0.00   0.00   0.00     0.00  -0.00  -0.00
   2   6    -0.00  -0.00  -0.00    -0.00  -0.00  -0.00    -0.00   0.00   0.00
   3   6     0.00  -0.00  -0.00     0.00  -0.00  -0.00     0.00   0.00   0.00
   4   6     0.01  -0.00  -0.00     0.00  -0.00  -0.00     0.01   0.00   0.00
   5   6    -0.01  -0.01  -0.01    -0.00  -0.00  -0.00     0.12   0.16   0.13
   6   6    -0.00   0.00   0.00    -0.00   0.00   0.00     0.05  -0.07  -0.05
   7   6     0.00   0.00   0.00     0.00   0.00   0.00     0.00  -0.00  -0.00
   8   6    -0.00  -0.01  -0.01    -0.00  -0.00  -0.00    -0.00  -0.01  -0.01
   9   6    -0.00  -0.00  -0.00     0.00   0.00   0.01     0.01   0.02   0.03
  10   6     0.00   0.00   0.00    -0.00  -0.00  -0.00    -0.00   0.00   0.00
  11   6    -0.00   0.00   0.00     0.00  -0.00  -0.00    -0.00   0.00   0.00
  12   6    -0.00   0.00   0.00     0.00  -0.00  -0.00    -0.00   0.00   0.00
  13   9     0.00  -0.00  -0.00    -0.00   0.00   0.00     0.00   0.00   0.00
  14   6    -0.01   0.00  -0.00     0.03  -0.00   0.00    -0.00   0.00   0.00
  15   6     0.03  -0.03  -0.04    -0.12   0.12   0.17     0.01  -0.01  -0.01
  16   6     0.01   0.01   0.02    -0.05  -0.04  -0.07    -0.01  -0.01  -0.02
  17   6     0.07   0.09   0.08     0.02   0.02   0.02     0.01   0.02   0.02
  18   6     0.11  -0.15  -0.11     0.02  -0.03  -0.02    -0.00   0.00   0.00
  19  17    -0.00   0.00  -0.00     0.00  -0.00  -0.00     0.00   0.00   0.00
  20   1    -0.00  -0.00  -0.00    -0.00   0.00  -0.00    -0.00   0.00   0.00
  21   1    -0.00   0.00   0.00    -0.00   0.00  -0.00     0.00   0.00   0.00
  22   1    -0.00  -0.00  -0.00    -0.00  -0.00   0.00    -0.00  -0.00   0.00
  23   1     0.00   0.00  -0.00    -0.00   0.00  -0.00     0.00  -0.00   0.00
  24   1     0.00   0.00   0.00     0.00   0.00   0.00     0.00  -0.00  -0.00
  25   1    -0.01   0.01   0.00    -0.00   0.00   0.00     0.00  -0.00  -0.00
  26   1     0.00   0.00   0.00     0.00   0.00   0.00    -0.00  -0.00  -0.01
  27   1     0.03   0.03   0.03     0.01   0.01   0.01    -0.44  -0.57  -0.48
  28   1     0.01  -0.02  -0.01     0.00  -0.00  -0.00    -0.19   0.28   0.19
  29   1     0.02   0.03   0.03     0.00   0.00   0.00     0.02   0.03   0.04
  30   1     0.01   0.01   0.01    -0.01  -0.01  -0.02    -0.05  -0.07  -0.09
  31   1     0.00  -0.00  -0.00    -0.00   0.00   0.00     0.00  -0.00  -0.00
  32   1     0.03  -0.00   0.00    -0.13   0.00  -0.01     0.01  -0.00   0.00
  33   1    -0.10   0.09   0.13     0.44  -0.41  -0.61    -0.02   0.02   0.02
  34   1    -0.04  -0.03  -0.06     0.18   0.16   0.28     0.04   0.03   0.06
  35   1    -0.27  -0.35  -0.30    -0.06  -0.08  -0.07    -0.05  -0.07  -0.06
  36   1    -0.38   0.54   0.40    -0.08   0.12   0.09     0.01  -0.01  -0.00
                     94                     95                     96
                        a                      a                      a 
 Frequencies --  3119.5317              3122.3075              3127.4799
 Red. masses --     1.8755                 1.8606                 1.7971
 Frc consts  --     0.0000                 0.0000                 0.0000
 IR Inten    --    47.9368                24.8820                 2.3288
 Raman Activ --     0.0000                 0.0000                 0.0000
 Depolar     --     0.0000                 0.0000                 0.0000
 Atom AN      X      Y      Z        X      Y      Z        X      Y      Z
   1   7     0.00  -0.00  -0.00     0.00  -0.00  -0.00    -0.00  -0.00   0.00
   2   6    -0.00  -0.00  -0.00     0.00  -0.00  -0.00    -0.00   0.00   0.00
   3   6    -0.00  -0.00  -0.00    -0.00   0.00   0.00    -0.00   0.00   0.00
   4   6     0.01   0.00   0.00     0.00   0.00   0.00     0.00  -0.00  -0.00
   5   6     0.01   0.02   0.01     0.02   0.02   0.02     0.03   0.04   0.03
   6   6     0.01  -0.01  -0.01    -0.00   0.00   0.00    -0.04   0.05   0.04
   7   6    -0.01   0.00   0.00    -0.00  -0.00  -0.00    -0.00   0.00   0.00
   8   6     0.02   0.03   0.03     0.00   0.01   0.01     0.06   0.11   0.13
   9   6     0.00   0.00   0.00    -0.02  -0.03  -0.04    -0.06  -0.09  -0.12
  10   6    -0.00   0.00   0.00     0.01  -0.00  -0.00    -0.00  -0.00  -0.00
  11   6     0.00  -0.00  -0.00    -0.00  -0.00  -0.00     0.01  -0.01  -0.01
  12   6    -0.00  -0.00  -0.00     0.00   0.00   0.00    -0.00  -0.00  -0.00
  13   9     0.00   0.00   0.00    -0.00  -0.00  -0.00     0.00   0.00   0.00
  14   6     0.00   0.00   0.00     0.03  -0.00  -0.00    -0.01   0.00   0.00
  15   6     0.00  -0.00  -0.00    -0.06   0.05   0.08     0.01  -0.01  -0.01
  16   6    -0.00  -0.00  -0.01     0.12   0.11   0.19    -0.02  -0.02  -0.04
  17   6    -0.11  -0.15  -0.13    -0.00  -0.00  -0.00     0.01   0.02   0.02
  18   6     0.08  -0.11  -0.08     0.00  -0.00  -0.00    -0.01   0.01   0.01
  19  17    -0.00  -0.00   0.00     0.00  -0.00  -0.00     0.00   0.00  -0.00
  20   1     0.00   0.00   0.00    -0.00   0.00   0.00     0.00  -0.00   0.00
  21   1    -0.00   0.00  -0.00    -0.00   0.00  -0.00    -0.00   0.00   0.00
  22   1    -0.00  -0.00   0.00    -0.00  -0.00   0.00     0.00   0.00  -0.00
  23   1    -0.00   0.00  -0.00    -0.00   0.00   0.00     0.00  -0.00   0.00
  24   1     0.00   0.00   0.00     0.00   0.00   0.00    -0.00  -0.00  -0.00
  25   1    -0.00   0.01   0.00     0.00  -0.00  -0.00     0.00  -0.00  -0.00
  26   1     0.00   0.00   0.00    -0.00  -0.00  -0.00    -0.00  -0.00  -0.00
  27   1    -0.04  -0.05  -0.04    -0.06  -0.08  -0.07    -0.10  -0.14  -0.11
  28   1    -0.03   0.05   0.03    -0.00   0.00   0.00     0.12  -0.18  -0.12
  29   1    -0.06  -0.09  -0.10    -0.02  -0.03  -0.03    -0.27  -0.39  -0.45
  30   1    -0.00  -0.00  -0.01     0.08   0.11   0.14     0.24   0.34   0.43
  31   1    -0.01   0.01   0.01     0.00   0.00   0.00    -0.03   0.03   0.05
  32   1    -0.00  -0.00  -0.00    -0.12   0.01  -0.01     0.02  -0.00   0.00
  33   1    -0.01   0.00   0.01     0.18  -0.17  -0.25    -0.03   0.03   0.04
  34   1     0.02   0.02   0.03    -0.41  -0.38  -0.65     0.08   0.08   0.13
  35   1     0.38   0.50   0.43     0.01   0.01   0.01    -0.05  -0.07  -0.06
  36   1    -0.27   0.38   0.28    -0.01   0.01   0.01     0.02  -0.03  -0.02
                     97                     98                     99
                        a                      a                      a 
 Frequencies --  3133.3425              3140.9215              3142.1585
 Red. masses --     1.8555                 1.8503                 1.8294
 Frc consts  --     0.0000                 0.0000                 0.0000
 IR Inten    --     3.9231                27.4287                54.2975
 Raman Activ --     0.0000                 0.0000                 0.0000
 Depolar     --     0.0000                 0.0000                 0.0000
 Atom AN      X      Y      Z        X      Y      Z        X      Y      Z
   1   7    -0.00  -0.00  -0.00     0.00  -0.00  -0.00     0.00   0.00   0.00
   2   6     0.00   0.00   0.00     0.00  -0.00  -0.00    -0.00  -0.00  -0.00
   3   6    -0.00   0.00   0.00     0.00  -0.00  -0.00     0.00  -0.00  -0.00
   4   6     0.00  -0.00  -0.00    -0.00   0.00   0.00    -0.00   0.00   0.00
   5   6     0.05   0.07   0.06    -0.00  -0.00  -0.00    -0.01  -0.02  -0.01
   6   6    -0.11   0.16   0.11     0.01  -0.02  -0.01     0.05  -0.07  -0.05
   7   6    -0.01  -0.00  -0.00     0.00  -0.00  -0.00     0.00  -0.00  -0.00
   8   6    -0.05  -0.08  -0.09    -0.02  -0.02  -0.03    -0.06  -0.08  -0.10
   9   6    -0.01  -0.01  -0.02    -0.02  -0.03  -0.04    -0.08  -0.11  -0.14
  10   6    -0.00  -0.00  -0.00    -0.00  -0.00  -0.00    -0.00  -0.00  -0.01
  11   6    -0.01   0.01   0.02    -0.00   0.01   0.01    -0.02   0.02   0.03
  12   6     0.00   0.00   0.00    -0.01  -0.00  -0.01     0.00   0.00   0.00
  13   9    -0.00  -0.00  -0.00     0.00   0.00   0.00    -0.00  -0.00  -0.00
  14   6    -0.00   0.00  -0.00    -0.26   0.01  -0.02     0.07  -0.00   0.00
  15   6     0.00  -0.00  -0.00    -0.03   0.03   0.04     0.01  -0.01  -0.02
  16   6    -0.00  -0.00  -0.01     0.01   0.00   0.01    -0.02  -0.02  -0.03
  17   6    -0.01  -0.02  -0.02    -0.00  -0.00  -0.00    -0.01  -0.01  -0.01
  18   6     0.00  -0.01  -0.01     0.00  -0.00  -0.00     0.00  -0.00  -0.00
  19  17    -0.00  -0.00  -0.00    -0.00  -0.00   0.00    -0.00  -0.00   0.00
  20   1     0.00   0.00   0.00     0.00   0.00  -0.00    -0.00  -0.00  -0.00
  21   1    -0.00   0.00   0.00    -0.00   0.00  -0.00     0.00  -0.00  -0.00
  22   1    -0.00  -0.00   0.00    -0.00  -0.00   0.00     0.00   0.00  -0.00
  23   1    -0.00   0.00   0.00     0.00   0.00  -0.00     0.00   0.00  -0.00
  24   1    -0.00  -0.00  -0.00    -0.00  -0.00   0.00    -0.00   0.00   0.00
  25   1    -0.00  -0.00  -0.00    -0.00   0.00   0.00    -0.00   0.00   0.00
  26   1    -0.00   0.00  -0.00     0.00  -0.00   0.00     0.00   0.00   0.00
  27   1    -0.17  -0.22  -0.18     0.01   0.01   0.01     0.04   0.05   0.04
  28   1     0.37  -0.55  -0.38    -0.05   0.07   0.05    -0.16   0.24   0.17
  29   1     0.19   0.27   0.31     0.05   0.08   0.09     0.20   0.29   0.33
  30   1     0.03   0.04   0.05     0.08   0.11   0.14     0.28   0.39   0.49
  31   1     0.03  -0.03  -0.05     0.02  -0.02  -0.03     0.06  -0.06  -0.08
  32   1     0.01  -0.00   0.00     0.91  -0.04   0.05    -0.24   0.01  -0.01
  33   1    -0.00   0.00   0.00     0.08  -0.08  -0.11    -0.03   0.03   0.05
  34   1     0.02   0.02   0.03    -0.02  -0.01  -0.02     0.06   0.05   0.09
  35   1     0.04   0.06   0.05     0.01   0.01   0.01     0.03   0.04   0.04
  36   1    -0.02   0.02   0.02    -0.00   0.01   0.00    -0.01   0.01   0.01
                    100                    101                    102
                        a                      a                      a 
 Frequencies --  3161.5785              3210.3039              3250.9055
 Red. masses --     1.8156                 1.7994                 1.7293
 Frc consts  --     0.0000                 0.0000                 0.0000
 IR Inten    --    11.8601                42.2441                42.4681
 Raman Activ --     0.0000                 0.0000                 0.0000
 Depolar     --     0.0000                 0.0000                 0.0000
 Atom AN      X      Y      Z        X      Y      Z        X      Y      Z
   1   7     0.00   0.00  -0.00     0.10   0.16  -0.16    -0.09   0.22   0.03
   2   6     0.00   0.00   0.00     0.00   0.00  -0.00    -0.01   0.01  -0.00
   3   6     0.00  -0.00  -0.00    -0.00   0.00   0.00     0.00  -0.00  -0.00
   4   6     0.00   0.00   0.00    -0.00   0.00  -0.00     0.00   0.00  -0.00
   5   6    -0.00  -0.00  -0.00    -0.00  -0.00  -0.00     0.00   0.00   0.00
   6   6     0.00  -0.00  -0.00     0.00  -0.00  -0.00    -0.00   0.00   0.00
   7   6    -0.00  -0.00  -0.00     0.00   0.00  -0.00    -0.00   0.00   0.00
   8   6    -0.02  -0.02  -0.03     0.00   0.00   0.00    -0.00  -0.00  -0.00
   9   6    -0.01  -0.01  -0.01    -0.00  -0.00  -0.00    -0.00  -0.00  -0.00
  10   6     0.01  -0.00  -0.00     0.00  -0.00   0.00    -0.00  -0.00   0.00
  11   6     0.13  -0.13  -0.19    -0.00   0.00   0.00     0.00  -0.00  -0.00
  12   6    -0.00  -0.01  -0.01     0.00   0.00   0.00    -0.00  -0.00  -0.00
  13   9     0.00   0.00   0.00    -0.00  -0.00  -0.00     0.00   0.00   0.00
  14   6    -0.00   0.00   0.00     0.00   0.00  -0.00    -0.00   0.00   0.00
  15   6     0.00  -0.00  -0.00     0.00  -0.00  -0.00    -0.00  -0.00   0.00
  16   6    -0.00   0.00   0.00    -0.00  -0.00  -0.00     0.00  -0.00   0.00
  17   6    -0.00  -0.00  -0.00     0.00   0.00   0.00    -0.00  -0.00  -0.00
  18   6     0.00  -0.00  -0.00    -0.00   0.00   0.00     0.00  -0.00  -0.00
  19  17    -0.00   0.00   0.00     0.00  -0.00   0.00    -0.00  -0.00  -0.00
  20   1     0.00  -0.00   0.00    -0.00   0.00  -0.05     0.01   0.04   0.04
  21   1    -0.00   0.00   0.00     0.03  -0.04  -0.03     0.31  -0.91  -0.11
  22   1    -0.00  -0.00   0.00    -0.40  -0.57   0.68     0.02   0.06  -0.04
  23   1     0.00  -0.00  -0.00     0.00  -0.00   0.00     0.01  -0.02  -0.00
  24   1    -0.00  -0.00  -0.00    -0.00  -0.00  -0.00     0.00   0.00   0.01
  25   1    -0.00   0.00   0.00     0.00  -0.01  -0.00    -0.00   0.00   0.00
  26   1     0.00   0.00   0.00     0.00   0.00   0.00     0.00   0.00   0.00
  27   1     0.00   0.00   0.00     0.00   0.00   0.00    -0.00  -0.00  -0.00
  28   1    -0.00   0.01   0.00    -0.00   0.00   0.00     0.00  -0.00  -0.00
  29   1     0.06   0.09   0.11    -0.00  -0.00  -0.00     0.00   0.00   0.00
  30   1     0.02   0.03   0.04     0.00  -0.00   0.00     0.00   0.00   0.00
  31   1    -0.48   0.45   0.68     0.00  -0.00  -0.00    -0.00   0.00   0.00
  32   1     0.01  -0.00  -0.00    -0.00   0.00  -0.00     0.00   0.00   0.00
  33   1    -0.00   0.00   0.00    -0.00   0.00   0.00     0.00  -0.00   0.00
  34   1     0.00   0.00   0.00     0.00   0.00   0.00    -0.00  -0.00   0.00
  35   1     0.01   0.01   0.01    -0.00  -0.00  -0.00     0.00   0.00   0.00
  36   1    -0.00   0.00   0.00     0.00  -0.00  -0.00    -0.00   0.00   0.00
