      -----------------------------------------------------------      
     |                   =====================                   |     
     |                           x T B                           |     
     |                   =====================                   |     
     |                         S. Grimme                         |     
     |          Mulliken Center for Theoretical Chemistry        |     
     |                    University of Bonn                     |     
      -----------------------------------------------------------      

   * xtb version 6.5.1 (fef0646) compiled by 'conda@b96dff2e9fd6' on 2023-01-04

   xtb is free software: you can redistribute it and/or modify it under
   the terms of the GNU Lesser General Public License as published by
   the Free Software Foundation, either version 3 of the License, or
   (at your option) any later version.
   
   xtb is distributed in the hope that it will be useful,
   but WITHOUT ANY WARRANTY; without even the implied warranty of
   MERCHANTABILITY or FITNESS FOR A PARTICULAR PURPOSE.  See the
   GNU Lesser General Public License for more details.
   
   Cite this work as:
   * C. Bannwarth, E. Caldeweyher, S. Ehlert, A. Hansen, P. Pracht,
     J. Seibert, S. Spicher, S. Grimme, WIREs Comput. Mol. Sci., 2020, 11,
     e01493. DOI: 10.1002/wcms.1493
   
   for GFN2-xTB:
   * C. Bannwarth, S. Ehlert and S. Grimme., J. Chem. Theory Comput., 2019,
     15, 1652-1671. DOI: 10.1021/acs.jctc.8b01176
   for GFN1-xTB:
   * S. Grimme, C. Bannwarth, P. Shushkov, J. Chem. Theory Comput., 2017,
     13, 1989-2009. DOI: 10.1021/acs.jctc.7b00118
   for GFN0-xTB:
   * P. Pracht, E. Caldeweyher, S. Ehlert, S. Grimme, ChemRxiv, 2019, preprint.
     DOI: 10.26434/chemrxiv.8326202.v1
   for GFN-FF:
   * S. Spicher and S. Grimme, Angew. Chem. Int. Ed., 2020, 59, 15665-15673.
     DOI: 10.1002/anie.202004239
   
   for ALPB and GBSA implicit solvation:
   * S. Ehlert, M. Stahn, S. Spicher, S. Grimme, J. Chem. Theory Comput.,
     2021, 17, 4250-4261. DOI: 10.1021/acs.jctc.1c00471
   
   for DFT-D4:
   * E. Caldeweyher, C. Bannwarth and S. Grimme, J. Chem. Phys., 2017,
     147, 034112. DOI: 10.1063/1.4993215
   * E. Caldeweyher, S. Ehlert, A. Hansen, H. Neugebauer, S. Spicher,
     C. Bannwarth and S. Grimme, J. Chem. Phys., 2019, 150, 154122.
     DOI: 10.1063/1.5090222
   * E. Caldeweyher, J.-M. Mewes, S. Ehlert and S. Grimme, Phys. Chem. Chem. Phys.
     2020, 22, 8499-8512. DOI: 10.1039/D0CP00502A
   
   for sTDA-xTB:
   * S. Grimme and C. Bannwarth, J. Chem. Phys., 2016, 145, 054103.
     DOI: 10.1063/1.4959605
   
   in the mass-spec context:
   * V. Asgeirsson, C. Bauer and S. Grimme, Chem. Sci., 2017, 8, 4879.
     DOI: 10.1039/c7sc00601b
   * J. Koopman and S. Grimme, ACS Omega 2019, 4, 12, 15120-15133.
     DOI: 10.1021/acsomega.9b02011
   
   for metadynamics refer to:
   * S. Grimme, J. Chem. Theory Comput., 2019, 155, 2847-2862
     DOI: 10.1021/acs.jctc.9b00143
   
   for SPH calculations refer to:
   * S. Spicher and S. Grimme, J. Chem. Theory Comput., 2021, 17, 1701-1714
     DOI: 10.1021/acs.jctc.0c01306
   
   with help from (in alphabetical order)
   P. Atkinson, C. Bannwarth, F. Bohle, G. Brandenburg, E. Caldeweyher
   M. Checinski, S. Dohm, S. Ehlert, S. Ehrlich, I. Gerasimov, C. Hölzer
   A. Katbashev, J. Koopman, C. Lavigne, S. Lehtola, F. März, M. Müller,
   F. Musil, H. Neugebauer, J. Pisarek, C. Plett, P. Pracht, F. Pultar,
   J. Seibert, P. Shushkov, S. Spicher, M. Stahn, M. Steiner, T. Strunk,
   J. Stückrath, T. Rose, and J. Unsleber
   
 * started run on 2023/01/23 at 20:46:52.763     

           -------------------------------------------------
          |                Calculation Setup                |
           -------------------------------------------------

          program call               : xtb init.xyz --opt -c 0 -u 0 -P 16 --input xtb.inp
          hostname                   : gpg-woodward
          coordinate file            : init.xyz
          omp threads                :                    16

   ID    Z sym.   atoms
    1    7 N      1, 6
    2    6 C      2-5, 7-18
    3   17 Cl     19
    4    1 H      20-40

molecular fragmentation (1/2 indicates fragments):
1111111111111111112111111111111111111111
# atoms in fragment 1/2:    39     1
 fragment masses (1/2) :      241.35       35.45
CMA distance (Bohr)    :  19.496
constraining FC (au)   :  0.0500

           -------------------------------------------------
          |                 G F N 2 - x T B                 |
           -------------------------------------------------

        Reference                      10.1021/acs.jctc.8b01176
      * Hamiltonian:
        H0-scaling (s, p, d)           1.850000    2.230000    2.230000
        zeta-weighting                 0.500000
      * Dispersion:
        s8                             2.700000
        a1                             0.520000
        a2                             5.000000
        s9                             5.000000
      * Repulsion:
        kExp                           1.500000    1.000000
        rExp                           1.000000
      * Coulomb:
        alpha                          2.000000
        third order                    shell-resolved
        anisotropic                    true
        a3                             3.000000
        a5                             4.000000
        cn-shift                       1.200000
        cn-exp                         4.000000
        max-rad                        5.000000


          ...................................................
          :                      SETUP                      :
          :.................................................:
          :  # basis functions                 103          :
          :  # atomic orbitals                 102          :
          :  # shells                           60          :
          :  # electrons                       102          :
          :  max. iterations                   250          :
          :  Hamiltonian                  GFN2-xTB          :
          :  restarted?                      false          :
          :  GBSA solvation                  false          :
          :  PC potential                    false          :
          :  electronic temp.          300.0000000     K    :
          :  accuracy                    1.0000000          :
          :  -> integral cutoff          0.2500000E+02      :
          :  -> integral neglect         0.1000000E-07      :
          :  -> SCF convergence          0.1000000E-05 Eh   :
          :  -> wf. convergence          0.1000000E-03 e    :
          :  Broyden damping             0.4000000          :
          ...................................................

 iter      E             dE          RMSdq      gap      omega  full diag
   1    -55.6405238 -0.556405E+02  0.399E+00    1.43       0.0  T
   2    -55.6988167 -0.582929E-01  0.229E+00    0.05       1.0  T
   3    -55.7433670 -0.445503E-01  0.215E+00    0.82       1.0  T
   4    -55.7861831 -0.428161E-01  0.155E+00    1.42       1.0  T
   5    -55.7836331  0.254997E-02  0.131E+00    0.88       1.0  T
   6    -54.9872229  0.796410E+00  0.346E+00    0.00       1.0  T
   7    -55.8128163 -0.825593E+00  0.781E-01    1.18       1.0  T
   8    -55.8146883 -0.187195E-02  0.721E-01    0.90       1.0  T
   9    -55.8159311 -0.124285E-02  0.644E-01    0.53       1.0  T
  10    -55.8201371 -0.420600E-02  0.548E-01    0.26       1.0  T
  11    -55.3899641  0.430173E+00  0.251E+00    0.00       1.0  T
  12    -55.8202552 -0.430291E+00  0.542E-01    0.25       1.0  T
  13    -55.8302735 -0.100183E-01  0.347E-01    0.17       1.0  T
  14    -55.8256532  0.462023E-02  0.431E-01    0.09       1.0  T
  15    -55.8374865 -0.118333E-01  0.416E-02    0.13       1.0  T
  16    -55.8366380  0.848533E-03  0.123E-01    0.11       1.0  T
  17    -55.8375385 -0.900574E-03  0.294E-02    0.13       1.0  T
  18    -55.8375923 -0.537473E-04  0.160E-03    0.12       9.9  T
  19    -55.8374137  0.178596E-03  0.535E-02    0.13       1.0  T
  20    -55.8375400 -0.126298E-03  0.289E-02    0.13       1.0  T
  21    -55.8375880 -0.479595E-04  0.842E-03    0.12       1.9  T
  22    -55.8375902 -0.220720E-05  0.599E-03    0.12       2.6  T
  23    -55.8375924 -0.223535E-05  0.467E-04    0.12      33.9  T
  24    -55.8375924 -0.117425E-07  0.171E-04    0.12      92.4  T
  25    -55.8375924  0.293643E-08  0.277E-04    0.12      57.1  T

   *** convergence criteria satisfied after 25 iterations ***

         #    Occupation            Energy/Eh            Energy/eV
      -------------------------------------------------------------
         1        2.0000           -0.8794409             -23.9308
       ...           ...                  ...                  ...
        45        2.0000           -0.3986348             -10.8474
        46        2.0000           -0.3907279             -10.6322
        47        2.0000           -0.3634384              -9.8897
        48        2.0000           -0.3091248              -8.4117
        49        1.9060           -0.2630204              -7.1571
        50        1.9026           -0.2629856              -7.1562
        51        1.9019           -0.2629783              -7.1560 (HOMO)
        52        0.2895           -0.2584738              -7.0334 (LUMO)
        53                         -0.2275462              -6.1918
        54                         -0.2152564              -5.8574
        55                         -0.2119105              -5.7664
        56                         -0.2041333              -5.5547
       ...                                ...                  ...
       102                          0.6407071              17.4345
      -------------------------------------------------------------
                  HL-Gap            0.0045045 Eh            0.1226 eV
             Fermi-level           -0.2601616 Eh           -7.0794 eV

 SCC (total)                   0 d,  0 h,  0 min,  0.213 sec
 SCC setup                      ...        0 min,  0.000 sec (  0.223%)
 Dispersion                     ...        0 min,  0.001 sec (  0.687%)
 classical contributions        ...        0 min,  0.000 sec (  0.104%)
 integral evaluation            ...        0 min,  0.007 sec (  3.310%)
 iterations                     ...        0 min,  0.195 sec ( 91.495%)
 molecular gradient             ...        0 min,  0.008 sec (  3.943%)
 printout                       ...        0 min,  0.000 sec (  0.157%)

         :::::::::::::::::::::::::::::::::::::::::::::::::::::
         ::                     SUMMARY                     ::
         :::::::::::::::::::::::::::::::::::::::::::::::::::::
         :: total energy             -55.056987993344 Eh    ::
         :: gradient norm              0.112468582266 Eh/a0 ::
         :: HOMO-LUMO gap              0.122572974456 eV    ::
         ::.................................................::
         :: SCC energy               -55.837592406042 Eh    ::
         :: -> isotropic ES            0.164543853405 Eh    ::
         :: -> anisotropic ES          0.000224743489 Eh    ::
         :: -> anisotropic XC          0.033338165669 Eh    ::
         :: -> dispersion             -0.039561465009 Eh    ::
         :: repulsion energy           0.779711039960 Eh    ::
         :: add. restraining           0.000000000000 Eh    ::
         :: total charge               0.000000001984 e     ::
         :::::::::::::::::::::::::::::::::::::::::::::::::::::

      ----------------------------------------------------------- 
     |                   =====================                   |
     |                        A N C O P T                        |
     |                   =====================                   |
     |               Approximate Normal Coordinate               |
     |                Rational Function Optimizer                |
      ----------------------------------------------------------- 

          ...................................................
          :                      SETUP                      :
          :.................................................:
          :   optimization level            normal          :
          :   max. optcycles                   200          :
          :   ANC micro-cycles                  20          :
          :   degrees of freedom               114          :
          :.................................................:
          :   RF solver                   davidson          :
          :   write xtbopt.log                true          :
          :   linear?                        false          :
          :   energy convergence         0.5000000E-05 Eh   :
          :   grad. convergence          0.1000000E-02 Eh/α :
          :   maximium RF displ.         1.0000000          :
          :   Hlow (freq-cutoff)         0.1000000E-01      :
          :   Hmax (freq-cutoff)         5.0000000          :
          :   S6 in model hess.         20.0000000          :
          ...................................................

generating ANC from model Hessian ...
Using Lindh-Hessian (1995)
 Shifting diagonal of input Hessian by    9.9991476708700122E-003
 Lowest  eigenvalues of input Hessian
    0.000000    0.000000    0.000000    0.000000    0.000000    0.000000
    0.010000    0.010005    0.010008    0.010337    0.010539    0.011091
    0.011523    0.011971    0.013199    0.013986    0.015632    0.016275
 Highest eigenvalues
    1.667604    1.697474    1.754882    1.869166    1.997296    2.018429


........................................................................
.............................. CYCLE    1 ..............................
........................................................................
   1    -55.8375924 -0.558376E+02  0.414E-05    0.12       0.0  T
   2    -55.8375923  0.738149E-07  0.108E-03    0.12      14.6  T
   3    -55.8375924 -0.739207E-07  0.537E-06    0.12    2944.8  T
   4    -55.8375924 -0.140687E-11  0.268E-06    0.12    5896.3  T
     SCC iter.                  ...        0 min,  0.020 sec
     gradient                   ...        0 min,  0.009 sec
 * total energy  :   -55.0569880 Eh     change       -0.4786003E-08 Eh
   gradient norm :     0.1124712 Eh/α   predicted     0.0000000E+00 (-100.00%)
   displ. norm   :     0.5250547 α      lambda       -0.3200363E-01
   maximum displ.:     0.1683940 α      in ANC's #45, #11, #19, ...

........................................................................
.............................. CYCLE    2 ..............................
........................................................................
   1    -55.8602749 -0.558603E+02  0.535E-01    0.19       0.0  T
   2    -54.9812819  0.878993E+00  0.359E+00    0.00       1.0  T
   3    -55.8624547 -0.881173E+00  0.442E-01    0.16       1.0  T
   4    -55.8622920  0.162699E-03  0.400E-01    0.10       1.0  T
   5    -55.8610906  0.120136E-02  0.404E-01    0.19       1.0  T
   6    -55.8685110 -0.742034E-02  0.182E-01    0.15       1.0  T
   7    -55.8701044 -0.159342E-02  0.863E-02    0.12       1.0  T
   8    -55.8705469 -0.442457E-03  0.194E-02    0.13       1.0  T
   9    -55.8705671 -0.202820E-04  0.581E-03    0.12       2.7  T
  10    -55.8705677 -0.516446E-06  0.479E-03    0.12       3.3  T
  11    -55.8705687 -0.104826E-05  0.256E-03    0.12       6.2  T
  12    -55.8705690 -0.346470E-06  0.940E-04    0.12      16.8  T
  13    -55.8705691 -0.519300E-07  0.224E-04    0.12      70.6  T
     SCC iter.                  ...        0 min,  0.061 sec
     gradient                   ...        0 min,  0.009 sec
 * total energy  :   -55.0804377 Eh     change       -0.2344967E-01 Eh
   gradient norm :     0.0474464 Eh/α   predicted    -0.2043513E-01 ( -12.86%)
   displ. norm   :     0.5621822 α      lambda       -0.1556714E-01
   maximum displ.:     0.2275630 α      in ANC's #11, #14, #13, ...

........................................................................
.............................. CYCLE    3 ..............................
........................................................................
   1    -55.8900100 -0.558900E+02  0.277E-01    0.13       0.0  T
   2    -55.7171050  0.172905E+00  0.162E+00    0.03       1.0  T
   3    -55.8776686 -0.160564E+00  0.494E-01    0.20       1.0  T
   4    -55.8901038 -0.124352E-01  0.173E-01    0.12       1.0  T
   5    -55.8902076 -0.103808E-03  0.994E-02    0.13       1.0  T
   6    -55.8902285 -0.208722E-04  0.879E-02    0.13       1.0  T
   7    -55.8906578 -0.429246E-03  0.289E-02    0.13       1.0  T
   8    -55.8906983 -0.405707E-04  0.123E-02    0.13       1.3  T
   9    -55.8907063 -0.793120E-05  0.406E-03    0.12       3.9  T
  10    -55.8907069 -0.658248E-06  0.236E-03    0.12       6.7  T
  11    -55.8907073 -0.338989E-06  0.267E-04    0.12      59.2  T
  12    -55.8907072  0.484414E-08  0.381E-04    0.12      41.5  T
     SCC iter.                  ...        0 min,  0.056 sec
     gradient                   ...        0 min,  0.009 sec
 * total energy  :   -55.0912009 Eh     change       -0.1076323E-01 Eh
   gradient norm :     0.0222138 Eh/α   predicted    -0.1024356E-01 (  -4.83%)
   displ. norm   :     0.5185067 α      lambda       -0.6060739E-02
   maximum displ.:     0.2830063 α      in ANC's #11, #13, #14, ...

........................................................................
.............................. CYCLE    4 ..............................
........................................................................
   1    -55.8959049 -0.558959E+02  0.226E-01    0.11       0.0  T
   2    -55.8755830  0.203219E-01  0.624E-01    0.47       1.0  T
   3    -55.8970948 -0.215118E-01  0.107E-01    0.13       1.0  T
   4    -55.8950679  0.202692E-02  0.194E-01    0.11       1.0  T
   5    -55.8971493 -0.208141E-02  0.240E-02    0.12       1.0  T
   6    -55.8970705  0.787633E-04  0.405E-02    0.13       1.0  T
   7    -55.8963985  0.671972E-03  0.111E-01    0.11       1.0  T
   8    -55.8971229 -0.724349E-03  0.280E-02    0.13       1.0  T
   9    -55.8971620 -0.390786E-04  0.121E-02    0.13       1.3  T
  10    -55.8971704 -0.839610E-05  0.337E-03    0.12       4.7  T
  11    -55.8971709 -0.490337E-06  0.189E-03    0.12       8.4  T
  12    -55.8971711 -0.202414E-06  0.585E-04    0.12      27.0  T
  13    -55.8971710  0.692980E-07  0.120E-03    0.12      13.1  T
  14    -55.8971711 -0.815376E-07  0.382E-04    0.12      41.4  T
     SCC iter.                  ...        0 min,  0.065 sec
     gradient                   ...        0 min,  0.009 sec
 * total energy  :   -55.0957023 Eh     change       -0.4501371E-02 Eh
   gradient norm :     0.0211834 Eh/α   predicted    -0.3845113E-02 ( -14.58%)
   displ. norm   :     0.5326747 α      lambda       -0.3863167E-02
   maximum displ.:     0.2877914 α      in ANC's #11, #9, #10, ...

........................................................................
.............................. CYCLE    5 ..............................
........................................................................
   1    -55.8989008 -0.558989E+02  0.223E-01    0.11       0.0  T
   2    -55.8789346  0.199662E-01  0.635E-01    0.56       1.0  T
   3    -55.8927918 -0.138571E-01  0.372E-01    0.18       1.0  T
   4    -55.0688572  0.823935E+00  0.338E+00    0.00       1.0  T
   5    -55.8921769 -0.823320E+00  0.378E-01    0.18       1.0  T
   6    -55.8945670 -0.239011E-02  0.316E-01    0.17       1.0  T
   7    -55.8984595 -0.389251E-02  0.191E-01    0.15       1.0  T
   8    -55.9003690 -0.190948E-02  0.756E-02    0.13       1.0  T
   9    -55.9006636 -0.294583E-03  0.307E-02    0.13       1.0  T
  10    -55.9007156 -0.520059E-04  0.100E-02    0.12       1.6  T
  11    -55.9007192 -0.360696E-05  0.640E-03    0.12       2.5  T
  12    -55.9007206 -0.135909E-05  0.434E-03    0.12       3.6  T
  13    -55.9007217 -0.113422E-05  0.799E-04    0.12      19.8  T
  14    -55.9007217 -0.393868E-07  0.110E-04    0.12     144.2  T
  15    -55.9007217  0.123435E-07  0.455E-04    0.12      34.8  T
     SCC iter.                  ...        0 min,  0.067 sec
     gradient                   ...        0 min,  0.007 sec
 * total energy  :   -55.0986804 Eh     change       -0.2978106E-02 Eh
   gradient norm :     0.0152860 Eh/α   predicted    -0.2479662E-02 ( -16.74%)
   displ. norm   :     0.5703543 α      lambda       -0.2827568E-02
   maximum displ.:     0.2669984 α      in ANC's #11, #9, #10, ...

........................................................................
.............................. CYCLE    6 ..............................
........................................................................
   1    -55.9018574 -0.559019E+02  0.208E-01    0.11       0.0  T
   2    -55.8817423  0.201152E-01  0.627E-01    0.47       1.0  T
   3    -55.8994650 -0.177227E-01  0.262E-01    0.15       1.0  T
   4    -55.0747765  0.824688E+00  0.337E+00    0.00       1.0  T
   5    -55.8837161 -0.808940E+00  0.549E-01    0.08       1.0  T
   6    -55.8977179 -0.140017E-01  0.296E-01    0.16       1.0  T
   7    -55.9020820 -0.436411E-02  0.123E-01    0.14       1.0  T
   8    -55.9028566 -0.774604E-03  0.506E-02    0.13       1.0  T
   9    -55.9030152 -0.158593E-03  0.113E-03    0.12      14.0  T
  10    -55.9030057  0.943985E-05  0.123E-02    0.12       1.3  T
  11    -55.9030135 -0.781660E-05  0.517E-03    0.12       3.1  T
  12    -55.9030152 -0.165647E-05  0.309E-04    0.12      51.2  T
  13    -55.9030152  0.737160E-08  0.453E-04    0.12      34.9  T
  14    -55.9030152  0.163432E-07  0.680E-04    0.12      23.3  T
     SCC iter.                  ...        0 min,  0.062 sec
     gradient                   ...        0 min,  0.006 sec
 * total energy  :   -55.1009198 Eh     change       -0.2239397E-02 Eh
   gradient norm :     0.0106942 Eh/α   predicted    -0.1873707E-02 ( -16.33%)
   displ. norm   :     0.6175598 α      lambda       -0.2284286E-02
   maximum displ.:     0.2755841 α      in ANC's #9, #10, #8, ...

........................................................................
.............................. CYCLE    7 ..............................
........................................................................
   1    -55.8990893 -0.558991E+02  0.312E-01    0.10       0.0  T
   2    -55.8791782  0.199111E-01  0.702E-01    0.79       1.0  T
   3    -55.8862693 -0.709105E-02  0.556E-01    0.27       1.0  T
   4    -55.8977053 -0.114360E-01  0.303E-01    0.10       1.0  T
   5    -55.5053085  0.392397E+00  0.238E+00    0.00       1.0  T
   6    -55.8855667 -0.380258E+00  0.554E-01    0.28       1.0  T
   7    -55.8887238 -0.315711E-02  0.497E-01    0.23       1.0  T
   8    -55.8942729 -0.554910E-02  0.388E-01    0.19       1.0  T
   9    -55.9028124 -0.853952E-02  0.906E-02    0.13       1.0  T
  10    -55.9033056 -0.493182E-03  0.140E-02    0.12       1.1  T
  11    -55.9031818  0.123749E-03  0.468E-02    0.13       1.0  T
  12    -55.9032294 -0.475623E-04  0.376E-02    0.12       1.0  T
  13    -55.9032913 -0.619291E-04  0.206E-02    0.13       1.0  T
  14    -55.9033139 -0.225255E-04  0.774E-03    0.12       2.0  T
  15    -55.9033164 -0.250931E-05  0.443E-03    0.12       3.6  T
  16    -55.9033176 -0.121762E-05  0.911E-05    0.12     173.6  T
  17    -55.9033175  0.919670E-07  0.122E-03    0.12      13.0  T
  18    -55.9033176 -0.626206E-07  0.690E-04    0.12      22.9  T
  19    -55.9033176 -0.224732E-07  0.338E-04    0.12      46.7  T
     SCC iter.                  ...        0 min,  0.085 sec
     gradient                   ...        0 min,  0.007 sec
 * total energy  :   -55.1027844 Eh     change       -0.1864635E-02 Eh
   gradient norm :     0.0119359 Eh/α   predicted    -0.1577738E-02 ( -15.39%)
   displ. norm   :     0.6477348 α      lambda       -0.2110613E-02
   maximum displ.:     0.3014473 α      in ANC's #9, #10, #8, ...

........................................................................
.............................. CYCLE    8 ..............................
........................................................................
   1    -55.9021541 -0.559022E+02  0.292E-01    0.10       0.0  T
   2    -55.8817090  0.204451E-01  0.689E-01    0.69       1.0  T
   3    -55.8910637 -0.935467E-02  0.509E-01    0.23       1.0  T
   4    -55.6955418  0.195522E+00  0.175E+00    0.03       1.0  T
   5    -55.8973189 -0.201777E+00  0.366E-01    0.18       1.0  T
   6    -55.9046484 -0.732952E-02  0.103E-01    0.13       1.0  T
   7    -55.9050374 -0.388990E-03  0.641E-02    0.13       1.0  T
   8    -55.9051764 -0.139017E-03  0.421E-02    0.12       1.0  T
   9    -55.9052857 -0.109319E-03  0.565E-03    0.12       2.8  T
  10    -55.9052811  0.461214E-05  0.103E-02    0.12       1.5  T
  11    -55.9052857 -0.464026E-05  0.551E-03    0.12       2.9  T
  12    -55.9052876 -0.184643E-05  0.406E-04    0.12      39.0  T
  13    -55.9052876  0.130520E-07  0.605E-04    0.12      26.1  T
  14    -55.9052876 -0.220664E-07  0.588E-05    0.12     268.7  T
     SCC iter.                  ...        0 min,  0.063 sec
     gradient                   ...        0 min,  0.007 sec
 * total energy  :   -55.1045147 Eh     change       -0.1730322E-02 Eh
   gradient norm :     0.0155336 Eh/α   predicted    -0.1498081E-02 ( -13.42%)
   displ. norm   :     0.6684874 α      lambda       -0.2047965E-02
   maximum displ.:     0.2935806 α      in ANC's #9, #10, #8, ...

........................................................................
.............................. CYCLE    9 ..............................
........................................................................
   1    -55.8991269 -0.558991E+02  0.382E-01    0.10       0.0  T
   2    -55.8794059  0.197210E-01  0.755E-01    0.97       1.0  T
   3    -55.8862955 -0.688958E-02  0.607E-01    0.34       1.0  T
   4    -55.9022514 -0.159559E-01  0.281E-01    0.15       1.0  T
   5    -55.0796627  0.822589E+00  0.340E+00    0.00       1.0  T
   6    -55.8883228 -0.808660E+00  0.553E-01    0.27       1.0  T
   7    -55.8924242 -0.410141E-02  0.480E-01    0.22       1.0  T
   8    -55.8999049 -0.748067E-02  0.317E-01    0.17       1.0  T
   9    -55.9059213 -0.601645E-02  0.161E-02    0.12       1.0  T
  10    -55.9059364 -0.151324E-04  0.199E-03    0.12       7.9  T
  11    -55.9059280  0.843226E-05  0.119E-02    0.12       1.3  T
  12    -55.9059365 -0.848497E-05  0.852E-04    0.12      18.6  T
  13    -55.9059362  0.275103E-06  0.224E-03    0.12       7.1  T
  14    -55.9059358  0.453008E-06  0.353E-03    0.12       4.5  T
  15    -55.9059365 -0.722506E-06  0.796E-04    0.12      19.9  T
  16    -55.9059365 -0.221022E-07  0.514E-04    0.12      30.7  T
     SCC iter.                  ...        0 min,  0.072 sec
     gradient                   ...        0 min,  0.007 sec
 * total energy  :   -55.1061389 Eh     change       -0.1624185E-02 Eh
   gradient norm :     0.0178861 Eh/α   predicted    -0.1481575E-02 (  -8.78%)
   displ. norm   :     0.6561843 α      lambda       -0.2312291E-02
   maximum displ.:     0.2734875 α      in ANC's #9, #4, #3, ...

........................................................................
.............................. CYCLE   10 ..............................
........................................................................
   1    -55.8954375 -0.558954E+02  0.551E-01    0.08       0.0  T
   2    -55.8800662  0.153713E-01  0.871E-01    1.48       1.0  T
   3    -55.8910992 -0.110331E-01  0.664E-01    0.59       1.0  T
   4    -55.8921261 -0.102690E-02  0.631E-01    0.36       1.0  T
   5    -55.8608002  0.313260E-01  0.902E-01    0.06       1.0  T
   6    -55.8938472 -0.330470E-01  0.582E-01    0.29       1.0  T
   7    -55.8995763 -0.572918E-02  0.479E-01    0.21       1.0  T
   8    -55.9107691 -0.111927E-01  0.190E-01    0.14       1.0  T
   9    -55.9063029  0.446618E-02  0.326E-01    0.10       1.0  T
  10    -55.9093119 -0.300901E-02  0.246E-01    0.15       1.0  T
  11    -55.9128326 -0.352071E-02  0.401E-02    0.12       1.0  T
  12    -55.9129214 -0.888302E-04  0.127E-02    0.12       1.2  T
  13    -55.9129306 -0.914553E-05  0.345E-03    0.12       4.6  T
  14    -55.9129310 -0.425481E-06  0.218E-03    0.12       7.2  T
  15    -55.9129311 -0.709251E-07  0.190E-03    0.12       8.3  T
  16    -55.9129298  0.125939E-05  0.493E-03    0.12       3.2  T
  17    -55.9129312 -0.136205E-05  0.137E-03    0.12      11.5  T
  18    -55.9129313 -0.108344E-06  0.343E-04    0.12      46.2  T
  19    -55.9129313 -0.653969E-08  0.958E-05    0.12     165.0  T
     SCC iter.                  ...        0 min,  0.085 sec
     gradient                   ...        0 min,  0.006 sec
 * total energy  :   -55.1078543 Eh     change       -0.1715358E-02 Eh
   gradient norm :     0.0209694 Eh/α   predicted    -0.1653957E-02 (  -3.58%)
   displ. norm   :     0.6814643 α      lambda       -0.2187050E-02
   maximum displ.:     0.2706072 α      in ANC's #4, #9, #5, ...

........................................................................
.............................. CYCLE   11 ..............................
........................................................................
   1    -55.8919415 -0.558919E+02  0.572E-01    0.08       0.0  T
   2    -55.8756020  0.163395E-01  0.901E-01    1.46       1.0  T
   3    -55.8879379 -0.123359E-01  0.679E-01    0.60       1.0  T
   4    -55.8888756 -0.937656E-03  0.648E-01    0.39       1.0  T
   5    -55.8218342  0.670414E-01  0.117E+00    0.05       1.0  T
   6    -55.8891827 -0.673485E-01  0.626E-01    0.38       1.0  T
   7    -55.8908274 -0.164471E-02  0.593E-01    0.29       1.0  T
   8    -55.8955583 -0.473087E-02  0.509E-01    0.22       1.0  T
   9    -55.9048084 -0.925017E-02  0.303E-01    0.10       1.0  T
  10    -55.9072789 -0.247046E-02  0.232E-01    0.15       1.0  T
  11    -55.9104634 -0.318454E-02  0.234E-02    0.12       1.0  T
  12    -55.9104741 -0.106949E-04  0.194E-02    0.12       1.0  T
  13    -55.9104965 -0.223881E-04  0.220E-03    0.12       7.2  T
  14    -55.9104887  0.787448E-05  0.116E-02    0.12       1.4  T
  15    -55.9104953 -0.661472E-05  0.506E-03    0.12       3.1  T
  16    -55.9104926  0.262432E-05  0.830E-03    0.12       1.9  T
  17    -55.9104968 -0.416151E-05  0.312E-04    0.12      50.7  T
  18    -55.9104967  0.593895E-07  0.104E-03    0.12      15.2  T
  19    -55.9104968 -0.636786E-07  0.150E-04    0.12     105.6  T
  20    -55.9104968 -0.132430E-08  0.272E-05    0.12     581.0  T
     SCC iter.                  ...        0 min,  0.092 sec
     gradient                   ...        0 min,  0.006 sec
 * total energy  :   -55.1096953 Eh     change       -0.1841026E-02 Eh
   gradient norm :     0.0170210 Eh/α   predicted    -0.1601355E-02 ( -13.02%)
   displ. norm   :     0.6538946 α      lambda       -0.2726573E-02
   maximum displ.:     0.2938557 α      in ANC's #4, #5, #3, ...

........................................................................
.............................. CYCLE   12 ..............................
........................................................................
   1    -55.9185840 -0.559186E+02  0.293E-01    0.10       0.0  T
   2    -55.8962428  0.223412E-01  0.715E-01    0.71       1.0  T
   3    -55.9093312 -0.130884E-01  0.469E-01    0.20       1.0  T
   4    -55.8175786  0.917526E-01  0.127E+00    0.05       1.0  T
   5    -55.9019049 -0.843263E-01  0.597E-01    0.28       1.0  T
   6    -55.9102505 -0.834569E-02  0.449E-01    0.19       1.0  T
   7    -55.9209851 -0.107345E-01  0.125E-01    0.13       1.0  T
   8    -55.9219211 -0.936016E-03  0.622E-03    0.12       2.5  T
   9    -55.9216457  0.275358E-03  0.677E-02    0.11       1.0  T
  10    -55.9217700 -0.124298E-03  0.506E-02    0.13       1.0  T
  11    -55.9218760 -0.105987E-03  0.278E-02    0.12       1.0  T
  12    -55.9219161 -0.401161E-04  0.104E-02    0.12       1.5  T
  13    -55.9219225 -0.637338E-05  0.144E-03    0.12      10.9  T
  14    -55.9219221  0.365124E-06  0.285E-03    0.12       5.5  T
  15    -55.9219226 -0.487186E-06  0.179E-04    0.12      88.4  T
  16    -55.9219226 -0.157945E-08  0.606E-05    0.12     260.8  T
     SCC iter.                  ...        0 min,  0.072 sec
     gradient                   ...        0 min,  0.006 sec
 * total energy  :   -55.1112515 Eh     change       -0.1556166E-02 Eh
   gradient norm :     0.0233297 Eh/α   predicted    -0.1946198E-02 (  25.06%)
   displ. norm   :     0.7141694 α      lambda       -0.2920265E-02
   maximum displ.:     0.3124181 α      in ANC's #5, #9, #4, ...

........................................................................
.............................. CYCLE   13 ..............................
........................................................................
   1    -55.8540549 -0.558541E+02  0.942E-01    0.06       0.0  T
   2    -55.8495208  0.453403E-02  0.121E+00    1.32       1.0  T
   3    -55.8791974 -0.296765E-01  0.839E-01    1.15       1.0  T
   4    -55.8832850 -0.408765E-02  0.754E-01    0.85       1.0  T
   5    -55.8862858 -0.300072E-02  0.638E-01    0.34       1.0  T
   6    -55.0917790  0.794507E+00  0.346E+00    0.00       1.0  T
   7    -55.8917783 -0.799999E+00  0.532E-01    0.22       1.0  T
   8    -55.9036607 -0.118824E-01  0.271E-01    0.15       1.0  T
   9    -55.9067375 -0.307676E-02  0.144E-01    0.13       1.0  T
  10    -55.9078890 -0.115151E-02  0.404E-02    0.12       1.0  T
  11    -55.9078457  0.433151E-04  0.485E-02    0.12       1.0  T
  12    -55.9077440  0.101658E-03  0.636E-02    0.11       1.0  T
  13    -55.9075481  0.195887E-03  0.858E-02    0.13       1.0  T
  14    -55.9077471 -0.199010E-03  0.631E-02    0.11       1.0  T
  15    -55.9078180 -0.708787E-04  0.531E-02    0.12       1.0  T
  16    -55.9079611 -0.143052E-03  0.207E-02    0.12       1.0  T
  17    -55.9079731 -0.119784E-04  0.151E-02    0.12       1.0  T
  18    -55.9079867 -0.136225E-04  0.606E-04    0.12      26.1  T
  19    -55.9079854  0.125254E-05  0.461E-03    0.12       3.4  T
  20    -55.9079861 -0.679093E-06  0.315E-03    0.12       5.0  T
  21    -55.9079867 -0.561065E-06  0.748E-04    0.12      21.1  T
  22    -55.9079867 -0.334744E-07  0.487E-05    0.12     324.6  T
     SCC iter.                  ...        0 min,  0.103 sec
     gradient                   ...        0 min,  0.005 sec
 * total energy  :   -55.1130421 Eh     change       -0.1790660E-02 Eh
   gradient norm :     0.0232473 Eh/α   predicted    -0.2204857E-02 (  23.13%)
   displ. norm   :     0.5784597 α      lambda       -0.1792201E-02
   maximum displ.:     0.2715083 α      in ANC's #4, #5, #3, ...

........................................................................
.............................. CYCLE   14 ..............................
........................................................................
   1    -55.9041647 -0.559042E+02  0.142E-01    0.12       0.0  T
   2    -55.8923850  0.117797E-01  0.460E-01    0.19       1.0  T
   3    -55.8868422  0.554274E-02  0.536E-01    0.08       1.0  T
   4    -55.8991514 -0.123092E-01  0.296E-01    0.16       1.0  T
   5    -55.9018858 -0.273442E-02  0.200E-01    0.14       1.0  T
   6    -55.9034884 -0.160259E-02  0.114E-01    0.13       1.0  T
   7    -55.9041521 -0.663778E-03  0.398E-02    0.12       1.0  T
   8    -55.9042127 -0.605290E-04  0.237E-02    0.12       1.0  T
   9    -55.9042462 -0.335163E-04  0.270E-03    0.12       5.9  T
  10    -55.9042466 -0.360477E-06  0.995E-04    0.12      15.9  T
  11    -55.9042466 -0.410046E-07  0.529E-04    0.12      29.9  T
     SCC iter.                  ...        0 min,  0.047 sec
     gradient                   ...        0 min,  0.005 sec
 * total energy  :   -55.1144429 Eh     change       -0.1400767E-02 Eh
   gradient norm :     0.0186460 Eh/α   predicted    -0.1195954E-02 ( -14.62%)
   displ. norm   :     0.5623249 α      lambda       -0.2623828E-02
   maximum displ.:     0.2992222 α      in ANC's #5, #4, #3, ...

........................................................................
.............................. CYCLE   15 ..............................
........................................................................
   1    -55.9196500 -0.559196E+02  0.218E-01    0.14       0.0  T
   2    -55.0973081  0.822342E+00  0.347E+00    0.00       1.0  T
   3    -55.9186132 -0.821305E+00  0.249E-01    0.10       1.0  T
   4    -55.9215908 -0.297760E-02  0.805E-02    0.13       1.0  T
   5    -55.9219334 -0.342602E-03  0.197E-02    0.12       1.0  T
   6    -55.9218725  0.608267E-04  0.350E-02    0.12       1.0  T
   7    -55.9219392 -0.666835E-04  0.108E-02    0.12       1.5  T
   8    -55.9219448 -0.559160E-05  0.368E-03    0.12       4.3  T
   9    -55.9219441  0.694629E-06  0.499E-03    0.12       3.2  T
  10    -55.9219456 -0.144141E-05  0.547E-04    0.12      28.9  T
  11    -55.9219456 -0.107166E-07  0.289E-04    0.12      54.7  T
  12    -55.9219456 -0.762498E-09  0.188E-04    0.12      84.3  T
     SCC iter.                  ...        0 min,  0.051 sec
     gradient                   ...        0 min,  0.005 sec
 * total energy  :   -55.1161289 Eh     change       -0.1686035E-02 Eh
   gradient norm :     0.0167111 Eh/α   predicted    -0.1726755E-02 (   2.42%)
   displ. norm   :     0.7976324 α      lambda       -0.2310287E-02
   maximum displ.:     0.4037609 α      in ANC's #5, #4, #3, ...

........................................................................
.............................. CYCLE   16 ..............................
........................................................................
   1    -55.9027289 -0.559027E+02  0.548E-01    0.08       0.0  T
   2    -55.8799249  0.228040E-01  0.948E-01    1.41       1.0  T
   3    -55.8951903 -0.152654E-01  0.693E-01    0.55       1.0  T
   4    -55.8963710 -0.118068E-02  0.660E-01    0.37       1.0  T
   5    -55.5008914  0.395480E+00  0.250E+00    0.00       1.0  T
   6    -55.8957292 -0.394838E+00  0.667E-01    0.43       1.0  T
   7    -55.8960963 -0.367063E-03  0.661E-01    0.40       1.0  T
   8    -55.8967680 -0.671743E-03  0.642E-01    0.35       1.0  T
   9    -55.8989112 -0.214311E-02  0.601E-01    0.27       1.0  T
  10    -55.9179238 -0.190127E-01  0.129E-01    0.13       1.0  T
  11    -55.9184805 -0.556647E-03  0.853E-02    0.13       1.0  T
  12    -55.9187726 -0.292108E-03  0.482E-02    0.12       1.0  T
  13    -55.9185592  0.213370E-03  0.768E-02    0.11       1.0  T
  14    -55.9179619  0.597339E-03  0.127E-01    0.13       1.0  T
  15    -55.9182178 -0.255948E-03  0.108E-01    0.11       1.0  T
  16    -55.9179651  0.252735E-03  0.127E-01    0.13       1.0  T
  17    -55.9186982 -0.733111E-03  0.597E-02    0.11       1.0  T
  18    -55.9186773  0.208556E-04  0.628E-02    0.13       1.0  T
  19    -55.9188987 -0.221343E-03  0.136E-02    0.12       1.2  T
  20    -55.9188807  0.179719E-04  0.221E-02    0.12       1.0  T
  21    -55.9189091 -0.283780E-04  0.297E-03    0.12       5.3  T
  22    -55.9189024  0.670785E-05  0.111E-02    0.12       1.4  T
  23    -55.9189088 -0.640269E-05  0.374E-03    0.12       4.2  T
  24    -55.9189096 -0.790379E-06  0.776E-04    0.12      20.4  T
  25    -55.9189096 -0.348645E-07  0.110E-04    0.12     143.5  T
     SCC iter.                  ...        0 min,  0.106 sec
     gradient                   ...        0 min,  0.005 sec
 * total energy  :   -55.1181213 Eh     change       -0.1992354E-02 Eh
   gradient norm :     0.0174905 Eh/α   predicted    -0.1890069E-02 (  -5.13%)
   displ. norm   :     0.7707017 α      lambda       -0.2538555E-02
   maximum displ.:     0.4007025 α      in ANC's #5, #4, #3, ...

........................................................................
.............................. CYCLE   17 ..............................
........................................................................
   1    -55.9022369 -0.559022E+02  0.551E-01    0.08       0.0  T
   2    -55.8796895  0.225474E-01  0.941E-01    1.37       1.0  T
   3    -55.8943688 -0.146793E-01  0.698E-01    0.53       1.0  T
   4    -55.8956704 -0.130164E-02  0.662E-01    0.36       1.0  T
   5    -55.7102012  0.185469E+00  0.180E+00    0.02       1.0  T
   6    -55.8956372 -0.185436E+00  0.652E-01    0.35       1.0  T
   7    -55.8964993 -0.862156E-03  0.639E-01    0.31       1.0  T
   8    -55.8989744 -0.247509E-02  0.594E-01    0.26       1.0  T
   9    -55.9115242 -0.125498E-01  0.350E-01    0.16       1.0  T
  10    -55.9124167 -0.892506E-03  0.321E-01    0.09       1.0  T
  11    -55.9098996  0.251719E-02  0.389E-01    0.17       1.0  T
  12    -55.9167269 -0.682736E-02  0.177E-01    0.10       1.0  T
  13    -55.9169125 -0.185554E-03  0.169E-01    0.14       1.0  T
  14    -55.9183803 -0.146781E-02  0.589E-02    0.11       1.0  T
  15    -55.9184487 -0.683980E-04  0.481E-02    0.12       1.0  T
  16    -55.9185820 -0.133289E-03  0.728E-03    0.12       2.2  T
  17    -55.9185716  0.103799E-04  0.151E-02    0.12       1.0  T
  18    -55.9185847 -0.131403E-04  0.242E-03    0.12       6.5  T
  19    -55.9185829  0.186633E-05  0.613E-03    0.12       2.6  T
  20    -55.9185850 -0.216042E-05  0.922E-04    0.12      17.1  T
  21    -55.9185851 -0.342772E-07  0.527E-04    0.12      30.0  T
  22    -55.9185851 -0.107159E-07  0.305E-04    0.12      51.8  T
     SCC iter.                  ...        0 min,  0.093 sec
     gradient                   ...        0 min,  0.005 sec
 * total energy  :   -55.1201319 Eh     change       -0.2010643E-02 Eh
   gradient norm :     0.0205667 Eh/α   predicted    -0.2023206E-02 (   0.62%)
   displ. norm   :     0.7582802 α      lambda       -0.2564710E-02
   maximum displ.:     0.4156896 α      in ANC's #5, #4, #3, ...

........................................................................
.............................. CYCLE   18 ..............................
........................................................................
   1    -55.9002396 -0.559002E+02  0.571E-01    0.08       0.0  T
   2    -55.8761243  0.241154E-01  0.991E-01    1.34       1.0  T
   3    -55.8936722 -0.175480E-01  0.720E-01    0.60       1.0  T
   4    -55.8949577 -0.128545E-02  0.682E-01    0.41       1.0  T
   5    -55.9170446 -0.220870E-01  0.188E-01    0.14       1.0  T
   6    -55.1329867  0.784058E+00  0.339E+00    0.00       1.0  T
   7    -55.8965680 -0.763581E+00  0.640E-01    0.30       1.0  T
   8    -55.9062750 -0.970702E-02  0.473E-01    0.19       1.0  T
   9    -55.9135167 -0.724170E-02  0.305E-01    0.15       1.0  T
  10    -55.9187892 -0.527247E-02  0.380E-02    0.12       1.0  T
  11    -55.9177679  0.102131E-02  0.138E-01    0.13       1.0  T
  12    -55.9187728 -0.100499E-02  0.414E-02    0.11       1.0  T
  13    -55.9187625  0.102966E-04  0.435E-02    0.12       1.0  T
  14    -55.9188371 -0.745474E-04  0.249E-02    0.12       1.0  T
  15    -55.9188475 -0.104151E-04  0.210E-02    0.12       1.0  T
  16    -55.9188687 -0.211986E-04  0.898E-03    0.12       1.8  T
  17    -55.9188633  0.541020E-05  0.132E-02    0.12       1.2  T
  18    -55.9188733 -0.997612E-05  0.168E-03    0.12       9.4  T
  19    -55.9188708  0.248770E-05  0.673E-03    0.12       2.4  T
  20    -55.9188734 -0.264041E-05  0.459E-04    0.12      34.5  T
  21    -55.9188734 -0.122241E-07  0.522E-05    0.12     303.0  T
  22    -55.9188734  0.398536E-09  0.970E-05    0.12     163.0  T
     SCC iter.                  ...        0 min,  0.093 sec
     gradient                   ...        0 min,  0.005 sec
 * total energy  :   -55.1224643 Eh     change       -0.2332348E-02 Eh
   gradient norm :     0.0177284 Eh/α   predicted    -0.2019697E-02 ( -13.41%)
   displ. norm   :     0.8007564 α      lambda       -0.3332049E-02
   maximum displ.:     0.4525902 α      in ANC's #5, #4, #3, ...

........................................................................
.............................. CYCLE   19 ..............................
........................................................................
   1    -55.9188282 -0.559188E+02  0.427E-01    0.09       0.0  T
   2    -55.8922131  0.266151E-01  0.885E-01    1.11       1.0  T
   3    -55.9045925 -0.123793E-01  0.669E-01    0.38       1.0  T
   4    -55.9079902 -0.339769E-02  0.608E-01    0.26       1.0  T
   5    -55.6044754  0.303515E+00  0.223E+00    0.01       1.0  T
   6    -55.9087220 -0.304247E+00  0.590E-01    0.24       1.0  T
   7    -55.9119285 -0.320642E-02  0.540E-01    0.21       1.0  T
   8    -55.9179998 -0.607131E-02  0.423E-01    0.18       1.0  T
   9    -55.9260407 -0.804089E-02  0.190E-01    0.14       1.0  T
  10    -55.9281099 -0.206924E-02  0.106E-02    0.12       1.5  T
  11    -55.9278570  0.252955E-03  0.668E-02    0.12       1.0  T
  12    -55.9280638 -0.206818E-03  0.299E-02    0.11       1.0  T
  13    -55.9281159 -0.521160E-04  0.155E-03    0.12      10.2  T
  14    -55.9281112  0.463784E-05  0.902E-03    0.12       1.8  T
  15    -55.9281133 -0.206317E-05  0.682E-03    0.12       2.3  T
  16    -55.9281158 -0.246354E-05  0.201E-03    0.12       7.9  T
  17    -55.9281160 -0.228200E-06  0.300E-04    0.12      52.7  T
  18    -55.9281160 -0.418463E-08  0.124E-04    0.12     127.4  T
     SCC iter.                  ...        0 min,  0.082 sec
     gradient                   ...        0 min,  0.005 sec
 * total energy  :   -55.1253326 Eh     change       -0.2868359E-02 Eh
   gradient norm :     0.0160522 Eh/α   predicted    -0.2734303E-02 (  -4.67%)
   displ. norm   :     0.9143532 α      lambda       -0.3321084E-02
   maximum displ.:     0.5214268 α      in ANC's #4, #5, #3, ...

........................................................................
.............................. CYCLE   20 ..............................
........................................................................
   1    -55.8888172 -0.558888E+02  0.797E-01    0.07       0.0  T
   2    -55.8612497  0.275674E-01  0.123E+00    1.26       1.0  T
   3    -55.8940659 -0.328162E-01  0.855E-01    0.90       1.0  T
   4    -55.8995851 -0.551918E-02  0.740E-01    0.65       1.0  T
   5    -55.9044047 -0.481957E-02  0.619E-01    0.26       1.0  T
   6    -55.1367594  0.767645E+00  0.344E+00    0.00       1.0  T
   7    -55.9027151 -0.765956E+00  0.643E-01    0.29       1.0  T
   8    -55.9121513 -0.943621E-02  0.481E-01    0.19       1.0  T
   9    -55.9217144 -0.956309E-02  0.243E-01    0.14       1.0  T
  10    -55.9251093 -0.339491E-02  0.637E-03    0.12       2.5  T
  11    -55.9239218  0.118749E-02  0.143E-01    0.13       1.0  T
  12    -55.9249973 -0.107547E-02  0.442E-02    0.11       1.0  T
  13    -55.9249283  0.689931E-04  0.561E-02    0.12       1.0  T
  14    -55.9250488 -0.120477E-03  0.326E-02    0.11       1.0  T
  15    -55.9250722 -0.234768E-04  0.256E-02    0.12       1.0  T
  16    -55.9251051 -0.328910E-04  0.949E-03    0.12       1.7  T
  17    -55.9250999  0.525087E-05  0.135E-02    0.12       1.2  T
  18    -55.9251102 -0.103578E-04  0.146E-03    0.12      10.8  T
  19    -55.9251092  0.105238E-05  0.451E-03    0.12       3.5  T
  20    -55.9251104 -0.117619E-05  0.637E-05    0.12     248.1  T
  21    -55.9251104  0.481761E-08  0.292E-04    0.12      54.1  T
  22    -55.9251104 -0.495883E-08  0.202E-05    0.12     782.2  T
     SCC iter.                  ...        0 min,  0.094 sec
     gradient                   ...        0 min,  0.005 sec
 * total energy  :   -55.1284156 Eh     change       -0.3083012E-02 Eh
   gradient norm :     0.0200997 Eh/α   predicted    -0.3048828E-02 (  -1.11%)
   displ. norm   :     0.8519898 α      lambda       -0.3745279E-02
   maximum displ.:     0.4799675 α      in ANC's #4, #5, #3, ...
 * RMSD in coord.:     1.6942310 α      energy gain  -0.7142764E-01 Eh

generating ANC from model Hessian ...
Using Lindh-Hessian (1995)
 Shifting diagonal of input Hessian by    1.0022139240573760E-002
 Lowest  eigenvalues of input Hessian
    0.010000    0.010018    0.000000    0.000000    0.000000    0.000000
    0.000000    0.000000    0.010154    0.010449    0.010727    0.011200
    0.012140    0.013485    0.013912    0.014258    0.015100    0.017288
 Highest eigenvalues
    1.728930    1.753284    1.808905    1.928792    2.022737    2.102133


........................................................................
.............................. CYCLE   21 ..............................
........................................................................
   1    -55.9273098 -0.559273E+02  0.397E-01    0.09       0.0  T
   2    -55.8904663  0.368435E-01  0.969E-01    0.90       1.0  T
   3    -55.9120559 -0.215896E-01  0.631E-01    0.27       1.0  T
   4    -55.9200505 -0.799459E-02  0.497E-01    0.19       1.0  T
   5    -55.1578870  0.762163E+00  0.339E+00    0.00       1.0  T
   6    -55.9153768 -0.757490E+00  0.573E-01    0.23       1.0  T
   7    -55.9185080 -0.313122E-02  0.522E-01    0.20       1.0  T
   8    -55.9260993 -0.759127E-02  0.364E-01    0.16       1.0  T
   9    -55.9318376 -0.573830E-02  0.175E-01    0.13       1.0  T
  10    -55.9329192 -0.108167E-02  0.109E-01    0.13       1.0  T
  11    -55.9335916 -0.672331E-03  0.147E-02    0.12       1.1  T
  12    -55.9335695  0.221200E-04  0.244E-02    0.11       1.0  T
  13    -55.9335961 -0.266468E-04  0.117E-02    0.12       1.4  T
  14    -55.9336010 -0.487921E-05  0.717E-03    0.12       2.2  T
  15    -55.9335974  0.359390E-05  0.107E-02    0.12       1.5  T
  16    -55.9336039 -0.655085E-05  0.650E-04    0.12      24.3  T
  17    -55.9336036  0.367464E-06  0.260E-03    0.12       6.1  T
  18    -55.9336039 -0.356113E-06  0.785E-04    0.12      20.1  T
  19    -55.9336040 -0.275794E-07  0.378E-04    0.12      41.8  T
     SCC iter.                  ...        0 min,  0.169 sec
     gradient                   ...        0 min,  0.005 sec
 * total energy  :   -55.1311820 Eh     change       -0.2766381E-02 Eh
   gradient norm :     0.0278259 Eh/α   predicted     0.0000000E+00 (-100.00%)
   displ. norm   :     0.3225869 α      lambda       -0.2680419E-02
   maximum displ.:     0.2565906 α      in ANC's #5, #3, #6, ...

........................................................................
.............................. CYCLE   22 ..............................
........................................................................
   1    -55.9332699 -0.559333E+02  0.139E-01    0.13       0.0  T
   2    -55.1587107  0.774559E+00  0.338E+00    0.00       1.0  T
   3    -55.9311603 -0.772450E+00  0.224E-01    0.14       1.0  T
   4    -55.9333191 -0.215884E-02  0.116E-01    0.12       1.0  T
   5    -55.9335707 -0.251531E-03  0.774E-02    0.12       1.0  T
   6    -55.9338407 -0.269989E-03  0.302E-02    0.12       1.0  T
   7    -55.9338942 -0.535474E-04  0.429E-03    0.12       3.7  T
   8    -55.9338931  0.110455E-05  0.570E-03    0.12       2.8  T
   9    -55.9338949 -0.175854E-05  0.130E-03    0.12      12.2  T
  10    -55.9338949 -0.736118E-07  0.464E-04    0.12      34.1  T
  11    -55.9338948  0.127998E-06  0.152E-03    0.12      10.4  T
  12    -55.9338949 -0.116488E-06  0.544E-04    0.12      29.1  T
     SCC iter.                  ...        0 min,  0.051 sec
     gradient                   ...        0 min,  0.005 sec
 * total energy  :   -55.1333687 Eh     change       -0.2186714E-02 Eh
   gradient norm :     0.0106758 Eh/α   predicted    -0.1483377E-02 ( -32.16%)
   displ. norm   :     0.5826141 α      lambda       -0.2937320E-02
   maximum displ.:     0.4509858 α      in ANC's #5, #3, #6, ...

........................................................................
.............................. CYCLE   23 ..............................
........................................................................
   1    -55.9314445 -0.559314E+02  0.235E-01    0.14       0.0  T
   2    -55.1429162  0.788528E+00  0.344E+00    0.00       1.0  T
   3    -55.9306171 -0.787701E+00  0.240E-01    0.14       1.0  T
   4    -55.9332913 -0.267414E-02  0.101E-01    0.11       1.0  T
   5    -55.9335738 -0.282579E-03  0.525E-02    0.11       1.0  T
   6    -55.9336143 -0.404636E-04  0.386E-02    0.12       1.0  T
   7    -55.9336971 -0.827663E-04  0.954E-03    0.12       1.7  T
   8    -55.9337017 -0.458640E-05  0.262E-03    0.12       6.0  T
   9    -55.9337018 -0.119136E-06  0.190E-03    0.12       8.3  T
  10    -55.9337019 -0.103021E-06  0.116E-03    0.12      13.7  T
  11    -55.9337019 -0.346667E-07  0.632E-04    0.12      25.0  T
  12    -55.9337019 -0.165598E-07  0.148E-04    0.12     106.5  T
     SCC iter.                  ...        0 min,  0.055 sec
     gradient                   ...        0 min,  0.005 sec
 * total energy  :   -55.1358590 Eh     change       -0.2490278E-02 Eh
   gradient norm :     0.0136727 Eh/α   predicted    -0.1967182E-02 ( -21.01%)
   displ. norm   :     0.6618661 α      lambda       -0.2723222E-02
   maximum displ.:     0.4924186 α      in ANC's #5, #3, #6, ...

........................................................................
.............................. CYCLE   24 ..............................
........................................................................
   1    -55.9300353 -0.559300E+02  0.268E-01    0.14       0.0  T
   2    -55.1390421  0.790993E+00  0.347E+00    0.00       1.0  T
   3    -55.9324836 -0.793441E+00  0.132E-01    0.13       1.0  T
   4    -55.9318224  0.661133E-03  0.160E-01    0.10       1.0  T
   5    -55.9324178 -0.595387E-03  0.124E-01    0.13       1.0  T
   6    -55.9332850 -0.867144E-03  0.179E-02    0.12       1.0  T
   7    -55.9333003 -0.152920E-04  0.619E-03    0.12       2.6  T
   8    -55.9333011 -0.816671E-06  0.464E-03    0.12       3.4  T
   9    -55.9333017 -0.654789E-06  0.291E-03    0.12       5.4  T
  10    -55.9333021 -0.329450E-06  0.121E-03    0.12      13.0  T
  11    -55.9333021 -0.409684E-07  0.641E-04    0.12      24.7  T
  12    -55.9333020  0.721031E-07  0.122E-03    0.12      12.9  T
  13    -55.9333021 -0.775820E-07  0.363E-04    0.12      43.6  T
     SCC iter.                  ...        0 min,  0.055 sec
     gradient                   ...        0 min,  0.005 sec
 * total energy  :   -55.1384201 Eh     change       -0.2561136E-02 Eh
   gradient norm :     0.0236511 Eh/α   predicted    -0.1958088E-02 ( -23.55%)
   displ. norm   :     0.7114346 α      lambda       -0.3180634E-02
   maximum displ.:     0.5093160 α      in ANC's #5, #3, #6, ...

........................................................................
.............................. CYCLE   25 ..............................
........................................................................
   1    -55.9291072 -0.559291E+02  0.316E-01    0.15       0.0  T
   2    -55.1345395  0.794568E+00  0.351E+00    0.00       1.0  T
   3    -55.9338354 -0.799296E+00  0.788E-02    0.11       1.0  T
   4    -55.9337281  0.107301E-03  0.894E-02    0.12       1.0  T
   5    -55.9339019 -0.173790E-03  0.380E-02    0.12       1.0  T
   6    -55.9336400  0.261836E-03  0.751E-02    0.12       1.0  T
   7    -55.9338463 -0.206211E-03  0.456E-02    0.11       1.0  T
   8    -55.9339478 -0.101560E-03  0.172E-02    0.12       1.0  T
   9    -55.9339641 -0.162884E-04  0.221E-03    0.12       7.2  T
  10    -55.9339628  0.129659E-05  0.511E-03    0.12       3.1  T
  11    -55.9339635 -0.705598E-06  0.364E-03    0.12       4.3  T
  12    -55.9339643 -0.742364E-06  0.162E-04    0.12      97.4  T
  13    -55.9339642  0.687391E-08  0.367E-04    0.12      43.1  T
     SCC iter.                  ...        0 min,  0.055 sec
     gradient                   ...        0 min,  0.005 sec
 * total energy  :   -55.1414874 Eh     change       -0.3067271E-02 Eh
   gradient norm :     0.0259681 Eh/α   predicted    -0.2395242E-02 ( -21.91%)
   displ. norm   :     0.8014933 α      lambda       -0.4105600E-02
   maximum displ.:     0.5741317 α      in ANC's #5, #3, #6, ...

........................................................................
.............................. CYCLE   26 ..............................
........................................................................
   1    -55.9303099 -0.559303E+02  0.368E-01    0.17       0.0  T
   2    -55.1325620  0.797748E+00  0.354E+00    0.00       1.0  T
   3    -55.9346727 -0.802111E+00  0.216E-01    0.10       1.0  T
   4    -55.9365601 -0.188746E-02  0.110E-01    0.12       1.0  T
   5    -55.9367673 -0.207132E-03  0.631E-02    0.12       1.0  T
   6    -55.9368761 -0.108825E-03  0.348E-02    0.12       1.0  T
   7    -55.9367888  0.872732E-04  0.524E-02    0.11       1.0  T
   8    -55.9368665 -0.776826E-04  0.374E-02    0.12       1.0  T
   9    -55.9369441 -0.775813E-04  0.258E-03    0.12       6.1  T
  10    -55.9369433  0.814540E-06  0.436E-03    0.12       3.6  T
  11    -55.9369442 -0.957384E-06  0.937E-04    0.12      16.9  T
  12    -55.9369437  0.483693E-06  0.306E-03    0.12       5.2  T
  13    -55.9369442 -0.403661E-06  0.143E-03    0.12      11.1  T
  14    -55.9369443 -0.111937E-06  0.151E-04    0.12     104.8  T
     SCC iter.                  ...        0 min,  0.059 sec
     gradient                   ...        0 min,  0.005 sec
 * total energy  :   -55.1453547 Eh     change       -0.3867257E-02 Eh
   gradient norm :     0.0204970 Eh/α   predicted    -0.3371503E-02 ( -12.82%)
   displ. norm   :     0.8602193 α      lambda       -0.4580762E-02
   maximum displ.:     0.6143762 α      in ANC's #5, #3, #13, ...

........................................................................
.............................. CYCLE   27 ..............................
........................................................................
   1    -55.9338053 -0.559338E+02  0.412E-01    0.18       0.0  T
   2    -55.1334742  0.800331E+00  0.358E+00    0.00       1.0  T
   3    -55.9358848 -0.802411E+00  0.345E-01    0.09       1.0  T
   4    -55.9416050 -0.572026E-02  0.118E-01    0.12       1.0  T
   5    -55.9412245  0.380540E-03  0.127E-01    0.13       1.0  T
   6    -55.9420284 -0.803897E-03  0.116E-02    0.12       1.4  T
   7    -55.9419843  0.441393E-04  0.293E-02    0.12       1.0  T
   8    -55.9419203  0.639412E-04  0.452E-02    0.12       1.0  T
   9    -55.9420245 -0.104212E-03  0.117E-02    0.12       1.4  T
  10    -55.9420318 -0.723640E-05  0.203E-03    0.12       7.8  T
  11    -55.9420315  0.319328E-06  0.282E-03    0.12       5.6  T
  12    -55.9420303  0.110390E-05  0.525E-03    0.12       3.0  T
  13    -55.9420316 -0.128505E-05  0.200E-03    0.12       7.9  T
  14    -55.9420318 -0.210243E-06  0.445E-04    0.12      35.5  T
  15    -55.9420319 -0.104479E-07  0.741E-05    0.12     213.3  T
     SCC iter.                  ...        0 min,  0.064 sec
     gradient                   ...        0 min,  0.006 sec
 * total energy  :   -55.1495371 Eh     change       -0.4182402E-02 Eh
   gradient norm :     0.0129389 Eh/α   predicted    -0.3985214E-02 (  -4.71%)
   displ. norm   :     0.8785159 α      lambda       -0.4240172E-02
   maximum displ.:     0.5906904 α      in ANC's #5, #3, #13, ...

........................................................................
.............................. CYCLE   28 ..............................
........................................................................
   1    -55.9352046 -0.559352E+02  0.455E-01    0.20       0.0  T
   2    -55.1303954  0.804809E+00  0.364E+00    0.00       1.0  T
   3    -55.9392139 -0.808819E+00  0.343E-01    0.09       1.0  T
   4    -55.9441895 -0.497559E-02  0.155E-01    0.13       1.0  T
   5    -55.9440188  0.170768E-03  0.149E-01    0.14       1.0  T
   6    -55.9450861 -0.106738E-02  0.283E-02    0.12       1.0  T
   7    -55.9451095 -0.234034E-04  0.163E-02    0.12       1.0  T
   8    -55.9450615  0.480554E-04  0.341E-02    0.12       1.0  T
   9    -55.9450927 -0.312630E-04  0.235E-02    0.12       1.0  T
  10    -55.9451196 -0.268543E-04  0.769E-03    0.12       2.1  T
  11    -55.9451175  0.205169E-05  0.975E-03    0.12       1.6  T
  12    -55.9451199 -0.232358E-05  0.714E-03    0.12       2.2  T
  13    -55.9451226 -0.270083E-05  0.854E-04    0.12      18.5  T
  14    -55.9451226 -0.220411E-07  0.566E-04    0.12      27.9  T
  15    -55.9451226 -0.162728E-07  0.123E-04    0.12     128.7  T
     SCC iter.                  ...        0 min,  0.064 sec
     gradient                   ...        0 min,  0.006 sec
 * total energy  :   -55.1534389 Eh     change       -0.3901785E-02 Eh
   gradient norm :     0.0153027 Eh/α   predicted    -0.3756348E-02 (  -3.73%)
   displ. norm   :     0.8434000 α      lambda       -0.3967180E-02
   maximum displ.:     0.6180465 α      in ANC's #3, #5, #13, ...

........................................................................
.............................. CYCLE   29 ..............................
........................................................................
   1    -55.9401896 -0.559402E+02  0.489E-01    0.22       0.0  T
   2    -55.1279496  0.812240E+00  0.368E+00    0.00       1.0  T
   3    -55.9508928 -0.822943E+00  0.109E-01    0.13       1.0  T
   4    -55.9506493  0.243563E-03  0.132E-01    0.13       1.0  T
   5    -55.9511172 -0.467869E-03  0.366E-02    0.12       1.0  T
   6    -55.9510140  0.103166E-03  0.524E-02    0.13       1.0  T
   7    -55.9508838  0.130171E-03  0.730E-02    0.12       1.0  T
   8    -55.9509857 -0.101901E-03  0.587E-02    0.13       1.0  T
   9    -55.9511283 -0.142600E-03  0.264E-02    0.13       1.0  T
  10    -55.9511255  0.278489E-05  0.266E-02    0.12       1.0  T
  11    -55.9511422 -0.166346E-04  0.202E-02    0.12       1.0  T
  12    -55.9511636 -0.214463E-04  0.507E-04    0.12      31.2  T
  13    -55.9511636  0.429813E-08  0.476E-04    0.12      33.2  T
  14    -55.9511636  0.767579E-08  0.584E-04    0.12      27.1  T
     SCC iter.                  ...        0 min,  0.060 sec
     gradient                   ...        0 min,  0.005 sec
 * total energy  :   -55.1567416 Eh     change       -0.3302724E-02 Eh
   gradient norm :     0.0181974 Eh/α   predicted    -0.3394571E-02 (   2.78%)
   displ. norm   :     0.7236783 α      lambda       -0.2620846E-02
   maximum displ.:     0.5155471 α      in ANC's #3, #5, #1, ...

........................................................................
.............................. CYCLE   30 ..............................
........................................................................
   1    -55.9358198 -0.559358E+02  0.469E-01    0.21       0.0  T
   2    -55.1205874  0.815232E+00  0.362E+00    0.00       1.0  T
   3    -55.9412287 -0.820641E+00  0.281E-01    0.17       1.0  T
   4    -55.9395072  0.172148E-02  0.300E-01    0.10       1.0  T
   5    -55.9443312 -0.482406E-02  0.768E-02    0.14       1.0  T
   6    -55.9443097  0.215036E-04  0.732E-02    0.14       1.0  T
   7    -55.9445789 -0.269134E-03  0.198E-02    0.13       1.0  T
   8    -55.9445660  0.128260E-04  0.241E-02    0.13       1.0  T
   9    -55.9445934 -0.274095E-04  0.657E-03    0.13       2.4  T
  10    -55.9445861  0.732539E-05  0.130E-02    0.13       1.2  T
  11    -55.9445943 -0.821400E-05  0.389E-03    0.13       4.1  T
  12    -55.9445951 -0.744741E-06  0.824E-04    0.13      19.2  T
  13    -55.9445950  0.846954E-07  0.144E-03    0.13      11.0  T
  14    -55.9445951 -0.110801E-06  0.100E-04    0.13     157.4  T
     SCC iter.                  ...        0 min,  0.067 sec
     gradient                   ...        0 min,  0.006 sec
 * total energy  :   -55.1577589 Eh     change       -0.1017292E-02 Eh
   gradient norm :     0.0168237 Eh/α   predicted    -0.1996705E-02 (  96.28%)
   displ. norm   :     0.2730172 α      lambda       -0.1718268E-02
   maximum displ.:     0.1329681 α      in ANC's #9, #8, #6, ...

........................................................................
.............................. CYCLE   31 ..............................
........................................................................
   1    -55.9581554 -0.559582E+02  0.181E-01    0.15       0.0  T
   2    -55.1648413  0.793314E+00  0.351E+00    0.00       1.0  T
   3    -55.9585844 -0.793743E+00  0.136E-01    0.15       1.0  T
   4    -55.9588510 -0.266592E-03  0.116E-01    0.14       1.0  T
   5    -55.9590774 -0.226415E-03  0.766E-02    0.14       1.0  T
   6    -55.9593756 -0.298207E-03  0.112E-02    0.13       1.4  T
   7    -55.9593801 -0.454971E-05  0.338E-03    0.13       4.7  T
   8    -55.9593794  0.742780E-06  0.448E-03    0.13       3.5  T
   9    -55.9593804 -0.102392E-05  0.948E-04    0.13      16.7  T
  10    -55.9593804  0.644349E-08  0.852E-04    0.13      18.6  T
  11    -55.9593804 -0.328891E-07  0.269E-04    0.13      58.7  T
     SCC iter.                  ...        0 min,  0.047 sec
     gradient                   ...        0 min,  0.006 sec
 * total energy  :   -55.1583040 Eh     change       -0.5451175E-03 Eh
   gradient norm :     0.0140194 Eh/α   predicted    -0.9231742E-03 (  69.35%)
   displ. norm   :     0.2323539 α      lambda       -0.1045629E-02
   maximum displ.:     0.1811372 α      in ANC's #3, #1, #4, ...

........................................................................
.............................. CYCLE   32 ..............................
........................................................................
   1    -55.9510652 -0.559511E+02  0.363E-01    0.10       0.0  T
   2    -55.9366111  0.144541E-01  0.644E-01    0.79       1.0  T
   3    -55.9464091 -0.979803E-02  0.431E-01    0.23       1.0  T
   4    -55.9262490  0.201602E-01  0.727E-01    0.07       1.0  T
   5    -55.9448614 -0.186125E-01  0.467E-01    0.25       1.0  T
   6    -55.9488145 -0.395306E-02  0.368E-01    0.20       1.0  T
   7    -55.9552378 -0.642327E-02  0.959E-02    0.12       1.0  T
   8    -55.9552950 -0.572870E-04  0.912E-02    0.12       1.0  T
   9    -55.9557398 -0.444750E-03  0.452E-03    0.13       3.5  T
  10    -55.9557374  0.238994E-05  0.790E-03    0.13       2.0  T
  11    -55.9557333  0.409622E-05  0.118E-02    0.13       1.3  T
  12    -55.9557379 -0.458938E-05  0.733E-03    0.13       2.2  T
  13    -55.9557406 -0.269189E-05  0.167E-03    0.13       9.4  T
  14    -55.9557407 -0.684980E-07  0.120E-03    0.13      13.2  T
  15    -55.9557404  0.300241E-06  0.266E-03    0.13       5.9  T
  16    -55.9557407 -0.374881E-06  0.119E-04    0.13     132.5  T
  17    -55.9557407 -0.608118E-09  0.527E-05    0.13     300.2  T
     SCC iter.                  ...        0 min,  0.073 sec
     gradient                   ...        0 min,  0.006 sec
 * total energy  :   -55.1588204 Eh     change       -0.5164050E-03 Eh
   gradient norm :     0.0075551 Eh/α   predicted    -0.5510402E-03 (   6.71%)
   displ. norm   :     0.2769322 α      lambda       -0.5275443E-03
   maximum displ.:     0.1431971 α      in ANC's #5, #1, #4, ...

........................................................................
.............................. CYCLE   33 ..............................
........................................................................
   1    -55.9506979 -0.559507E+02  0.195E-01    0.16       0.0  T
   2    -55.1534627  0.797235E+00  0.354E+00    0.00       1.0  T
   3    -55.9515919 -0.798129E+00  0.131E-01    0.15       1.0  T
   4    -55.9522692 -0.677317E-03  0.597E-02    0.14       1.0  T
   5    -55.9523112 -0.420584E-04  0.471E-02    0.14       1.0  T
   6    -55.9524188 -0.107599E-03  0.774E-03    0.13       2.0  T
   7    -55.9524153  0.349882E-05  0.104E-02    0.13       1.5  T
   8    -55.9524209 -0.554017E-05  0.145E-03    0.13      10.9  T
   9    -55.9524208  0.222087E-07  0.145E-03    0.13      10.9  T
  10    -55.9524209 -0.640980E-07  0.621E-04    0.13      25.5  T
  11    -55.9524209 -0.109617E-08  0.413E-04    0.13      38.3  T
     SCC iter.                  ...        0 min,  0.047 sec
     gradient                   ...        0 min,  0.006 sec
 * total energy  :   -55.1592342 Eh     change       -0.4137744E-03 Eh
   gradient norm :     0.0075073 Eh/α   predicted    -0.2840017E-03 ( -31.36%)
   displ. norm   :     0.4612240 α      lambda       -0.6598557E-03
   maximum displ.:     0.2412558 α      in ANC's #1, #4, #5, ...

........................................................................
.............................. CYCLE   34 ..............................
........................................................................
   1    -55.9483466 -0.559483E+02  0.267E-01    0.17       0.0  T
   2    -55.1421902  0.806156E+00  0.358E+00    0.00       1.0  T
   3    -55.9514069 -0.809217E+00  0.905E-02    0.14       1.0  T
   4    -55.9515371 -0.130166E-03  0.591E-02    0.14       1.0  T
   5    -55.9516527 -0.115626E-03  0.299E-02    0.13       1.0  T
   6    -55.9516729 -0.201894E-04  0.150E-02    0.13       1.1  T
   7    -55.9516748 -0.183894E-05  0.116E-02    0.13       1.4  T
   8    -55.9516815 -0.677121E-05  0.318E-03    0.13       5.0  T
   9    -55.9516818 -0.265340E-06  0.215E-03    0.13       7.4  T
  10    -55.9516820 -0.168174E-06  0.861E-04    0.13      18.4  T
  11    -55.9516819  0.296235E-07  0.912E-04    0.13      17.3  T
     SCC iter.                  ...        0 min,  0.047 sec
     gradient                   ...        0 min,  0.005 sec
 * total energy  :   -55.1597544 Eh     change       -0.5202465E-03 Eh
   gradient norm :     0.0083151 Eh/α   predicted    -0.4001138E-03 ( -23.09%)
   displ. norm   :     0.5017908 α      lambda       -0.6205459E-03
   maximum displ.:     0.2993042 α      in ANC's #1, #4, #5, ...

........................................................................
.............................. CYCLE   35 ..............................
........................................................................
   1    -55.9498567 -0.559499E+02  0.258E-01    0.17       0.0  T
   2    -55.1423770  0.807480E+00  0.359E+00    0.00       1.0  T
   3    -55.9530082 -0.810631E+00  0.646E-02    0.13       1.0  T
   4    -55.9528737  0.134566E-03  0.781E-02    0.14       1.0  T
   5    -55.9530741 -0.200457E-03  0.312E-02    0.13       1.0  T
   6    -55.9530957 -0.216184E-04  0.148E-02    0.13       1.1  T
   7    -55.9531019 -0.614957E-05  0.860E-03    0.13       1.8  T
   8    -55.9531058 -0.386377E-05  0.239E-03    0.13       6.6  T
   9    -55.9531059 -0.157199E-06  0.140E-03    0.13      11.3  T
  10    -55.9531060 -0.576447E-07  0.679E-04    0.13      23.3  T
  11    -55.9531060  0.812245E-08  0.632E-04    0.13      25.0  T
     SCC iter.                  ...        0 min,  0.047 sec
     gradient                   ...        0 min,  0.006 sec
 * total energy  :   -55.1602404 Eh     change       -0.4859948E-03 Eh
   gradient norm :     0.0074381 Eh/α   predicted    -0.3884016E-03 ( -20.08%)
   displ. norm   :     0.5237240 α      lambda       -0.6180696E-03
   maximum displ.:     0.3347400 α      in ANC's #1, #4, #5, ...

........................................................................
.............................. CYCLE   36 ..............................
........................................................................
   1    -55.9512339 -0.559512E+02  0.258E-01    0.18       0.0  T
   2    -55.1428972  0.808337E+00  0.360E+00    0.00       1.0  T
   3    -55.9540911 -0.811194E+00  0.104E-01    0.12       1.0  T
   4    -55.9543584 -0.267327E-03  0.766E-02    0.14       1.0  T
   5    -55.9545314 -0.173011E-03  0.281E-02    0.14       1.0  T
   6    -55.9545409 -0.949210E-05  0.173E-02    0.13       1.0  T
   7    -55.9545538 -0.128588E-04  0.640E-03    0.13       2.5  T
   8    -55.9545555 -0.175692E-05  0.304E-03    0.13       5.2  T
   9    -55.9545558 -0.309480E-06  0.155E-03    0.13      10.2  T
  10    -55.9545559 -0.710476E-07  0.784E-04    0.13      20.2  T
  11    -55.9545559  0.377415E-07  0.103E-03    0.13      15.3  T
  12    -55.9545559 -0.524051E-07  0.153E-04    0.13     103.4  T
     SCC iter.                  ...        0 min,  0.053 sec
     gradient                   ...        0 min,  0.006 sec
 * total energy  :   -55.1606656 Eh     change       -0.4252303E-03 Eh
   gradient norm :     0.0077793 Eh/α   predicted    -0.3938088E-03 (  -7.39%)
   displ. norm   :     0.4337377 α      lambda       -0.5733405E-03
   maximum displ.:     0.3071900 α      in ANC's #1, #4, #5, ...

........................................................................
.............................. CYCLE   37 ..............................
........................................................................
   1    -55.9568350 -0.559568E+02  0.224E-01    0.17       0.0  T
   2    -55.1504466  0.806388E+00  0.360E+00    0.00       1.0  T
   3    -55.9591236 -0.808677E+00  0.753E-02    0.13       1.0  T
   4    -55.9591850 -0.614825E-04  0.684E-02    0.13       1.0  T
   5    -55.9593106 -0.125566E-03  0.250E-02    0.13       1.0  T
   6    -55.9593168 -0.620300E-05  0.164E-02    0.13       1.0  T
   7    -55.9593302 -0.134307E-04  0.263E-03    0.13       6.0  T
   8    -55.9593297  0.533797E-06  0.387E-03    0.13       4.1  T
   9    -55.9593304 -0.717729E-06  0.101E-03    0.13      15.7  T
  10    -55.9593304 -0.774417E-08  0.650E-04    0.13      24.3  T
  11    -55.9593304  0.194195E-07  0.745E-04    0.13      21.2  T
     SCC iter.                  ...        0 min,  0.048 sec
     gradient                   ...        0 min,  0.006 sec
 * total energy  :   -55.1610545 Eh     change       -0.3888672E-03 Eh
   gradient norm :     0.0100409 Eh/α   predicted    -0.3406003E-03 ( -12.41%)
   displ. norm   :     0.3929174 α      lambda       -0.4362147E-03
   maximum displ.:     0.2859973 α      in ANC's #1, #4, #7, ...

........................................................................
.............................. CYCLE   38 ..............................
........................................................................
   1    -55.9560886 -0.559561E+02  0.236E-01    0.17       0.0  T
   2    -55.1474294  0.808659E+00  0.361E+00    0.00       1.0  T
   3    -55.9588740 -0.811445E+00  0.416E-02    0.13       1.0  T
   4    -55.9588247  0.493291E-04  0.464E-02    0.14       1.0  T
   5    -55.9588790 -0.543025E-04  0.236E-02    0.13       1.0  T
   6    -55.9588759  0.305611E-05  0.196E-02    0.13       1.0  T
   7    -55.9588956 -0.196680E-04  0.356E-03    0.13       4.4  T
   8    -55.9588961 -0.462243E-06  0.186E-03    0.13       8.5  T
   9    -55.9588962 -0.967339E-07  0.910E-04    0.13      17.4  T
  10    -55.9588962  0.258591E-08  0.726E-04    0.13      21.8  T
     SCC iter.                  ...        0 min,  0.044 sec
     gradient                   ...        0 min,  0.005 sec
 * total energy  :   -55.1614118 Eh     change       -0.3572705E-03 Eh
   gradient norm :     0.0086893 Eh/α   predicted    -0.2517795E-03 ( -29.53%)
   displ. norm   :     0.4061178 α      lambda       -0.4710656E-03
   maximum displ.:     0.3051211 α      in ANC's #1, #4, #3, ...

........................................................................
.............................. CYCLE   39 ..............................
........................................................................
   1    -55.9554229 -0.559554E+02  0.251E-01    0.18       0.0  T
   2    -55.1443943  0.811029E+00  0.362E+00    0.00       1.0  T
   3    -55.9582738 -0.813880E+00  0.772E-02    0.15       1.0  T
   4    -55.9585069 -0.233024E-03  0.288E-02    0.14       1.0  T
   5    -55.9585120 -0.515973E-05  0.219E-02    0.14       1.0  T
   6    -55.9585139 -0.189549E-05  0.153E-02    0.13       1.0  T
   7    -55.9585252 -0.112378E-04  0.469E-03    0.14       3.4  T
   8    -55.9585260 -0.884805E-06  0.183E-03    0.14       8.6  T
   9    -55.9585261 -0.223657E-07  0.127E-03    0.14      12.4  T
  10    -55.9585259  0.167443E-06  0.208E-03    0.14       7.6  T
  11    -55.9585261 -0.194380E-06  0.463E-04    0.14      34.2  T
  12    -55.9585261 -0.785623E-08  0.222E-04    0.14      71.2  T
     SCC iter.                  ...        0 min,  0.053 sec
     gradient                   ...        0 min,  0.006 sec
 * total energy  :   -55.1618286 Eh     change       -0.4168611E-03 Eh
   gradient norm :     0.0063878 Eh/α   predicted    -0.2743782E-03 ( -34.18%)
   displ. norm   :     0.4760922 α      lambda       -0.5609298E-03
   maximum displ.:     0.3689551 α      in ANC's #1, #4, #3, ...

........................................................................
.............................. CYCLE   40 ..............................
........................................................................
   1    -55.9540799 -0.559541E+02  0.295E-01    0.20       0.0  T
   2    -55.1371300  0.816950E+00  0.365E+00    0.00       1.0  T
   3    -55.9574823 -0.820352E+00  0.128E-01    0.16       1.0  T
   4    -55.9581039 -0.621640E-03  0.684E-02    0.14       1.0  T
   5    -55.9582490 -0.145129E-03  0.153E-02    0.14       1.0  T
   6    -55.9582440  0.505639E-05  0.114E-02    0.14       1.4  T
   7    -55.9582500 -0.605949E-05  0.382E-03    0.14       4.1  T
   8    -55.9582504 -0.386422E-06  0.225E-03    0.14       7.0  T
   9    -55.9582503  0.147700E-06  0.227E-03    0.14       7.0  T
  10    -55.9582502  0.983783E-07  0.265E-03    0.14       6.0  T
  11    -55.9582504 -0.268050E-06  0.111E-03    0.14      14.3  T
  12    -55.9582505 -0.541695E-07  0.442E-04    0.14      35.8  T
  13    -55.9582505 -0.915921E-08  0.983E-05    0.14     160.9  T
     SCC iter.                  ...        0 min,  0.057 sec
     gradient                   ...        0 min,  0.006 sec
 * total energy  :   -55.1623319 Eh     change       -0.5032467E-03 Eh
   gradient norm :     0.0064776 Eh/α   predicted    -0.3440376E-03 ( -31.64%)
   displ. norm   :     0.5473083 α      lambda       -0.6739319E-03
   maximum displ.:     0.4362485 α      in ANC's #1, #4, #3, ...

........................................................................
.............................. CYCLE   41 ..............................
........................................................................
   1    -55.9542239 -0.559542E+02  0.326E-01    0.22       0.0  T
   2    -55.1322057  0.822018E+00  0.368E+00    0.00       1.0  T
   3    -55.9576001 -0.825394E+00  0.183E-01    0.17       1.0  T
   4    -55.9588712 -0.127107E-02  0.975E-02    0.15       1.0  T
   5    -55.9592383 -0.367121E-03  0.159E-02    0.14       1.0  T
   6    -55.9592357  0.260407E-05  0.909E-03    0.14       1.7  T
   7    -55.9592388 -0.311438E-05  0.430E-03    0.14       3.7  T
   8    -55.9592390 -0.225512E-06  0.340E-03    0.14       4.7  T
   9    -55.9592387  0.264724E-06  0.343E-03    0.14       4.6  T
  10    -55.9592387  0.787025E-07  0.361E-03    0.14       4.4  T
  11    -55.9592392 -0.518314E-06  0.148E-03    0.14      10.7  T
  12    -55.9592393 -0.982811E-07  0.539E-04    0.14      29.3  T
  13    -55.9592393 -0.136410E-07  0.113E-04    0.14     140.1  T
     SCC iter.                  ...        0 min,  0.056 sec
     gradient                   ...        0 min,  0.005 sec
 * total energy  :   -55.1629681 Eh     change       -0.6362191E-03 Eh
   gradient norm :     0.0085766 Eh/α   predicted    -0.4379010E-03 ( -31.17%)
   displ. norm   :     0.6732618 α      lambda       -0.9381014E-03
   maximum displ.:     0.5422188 α      in ANC's #1, #3, #4, ...

........................................................................
.............................. CYCLE   42 ..............................
........................................................................
   1    -55.9549404 -0.559549E+02  0.357E-01    0.25       0.0  T
[...]
C4-C3-C2-H24=307.95           H25-C3-C2-N1=307.74           H25-C3-C2-H23= 68.22          H25-C3-C2-H24=186.77          
H26-C3-C2-N1=191.19           H26-C3-C2-H23=311.68          H26-C3-C2-H24= 70.23          C5-C4-C3-C2=234.22            
C5-C4-C3-H25=354.65           C5-C4-C3-H26=112.90           H27-C4-C3-C2=113.08           H27-C4-C3-H25=233.51          
H27-C4-C3-H26=351.76          H28-C4-C3-C2=355.71           H28-C4-C3-H25=116.15          H28-C4-C3-H26=234.40          
N6-C5-C4-C3= 51.66            N6-C5-C4-H27=174.23           N6-C5-C4-H28=290.01           H29-C5-C4-C3=291.53           
H29-C5-C4-H27= 54.10          H29-C5-C4-H28=169.87          H30-C5-C4-C3=174.17           H30-C5-C4-H27=296.75          
H30-C5-C4-H28= 52.52          C7-N6-C5-C4=230.71            C7-N6-C5-H29=351.29           C7-N6-C5-H30=109.02           
C13-N6-C5-C4= 84.37           C13-N6-C5-H29=204.94          C13-N6-C5-H30=322.67          C8-C7-N6-C5=189.29            
C8-C7-N6-C13=339.12           C12-C7-N6-C5= 64.49           C12-C7-N6-C13=214.31          H31-C7-N6-C5=305.80           
H31-C7-N6-C13= 95.63          C9-C8-C7-N6=262.02            C9-C8-C7-C12= 24.19           C9-C8-C7-H31=146.34           
C14-C8-C7-N6= 19.84           C14-C8-C7-C12=142.01          C14-C8-C7-H31=264.16          H32-C8-C7-N6=143.88           
H32-C8-C7-C12=266.06          H32-C8-C7-H31= 28.21          C10-C9-C8-C7=290.43           C10-C9-C8-C14=183.61          
C10-C9-C8-H32= 47.24          H33-C9-C8-C7= 63.79           H33-C9-C8-C14=316.96          H33-C9-C8-H32=180.60          
C11-C10-C9-C8= 84.52          C11-C10-C9-H33=313.04         H34-C10-C9-C8=302.26          H34-C10-C9-H33=170.78         

 CMA Distance (Angstroems)
 ---------------------------
R(CMA):  5.5219
           -------------------------------------------------
          |                Final Singlepoint                |
           -------------------------------------------------

          ...................................................
          :                      SETUP                      :
          :.................................................:
          :  # basis functions                 103          :
          :  # atomic orbitals                 102          :
          :  # shells                           60          :
          :  # electrons                       102          :
          :  max. iterations                   250          :
          :  Hamiltonian                  GFN2-xTB          :
          :  restarted?                      false          :
          :  GBSA solvation                  false          :
          :  PC potential                    false          :
          :  electronic temp.          300.0000000     K    :
          :  accuracy                    1.0000000          :
          :  -> integral cutoff          0.2500000E+02      :
          :  -> integral neglect         0.1000000E-07      :
          :  -> SCF convergence          0.1000000E-05 Eh   :
          :  -> wf. convergence          0.1000000E-03 e    :
          :  Broyden damping             0.4000000          :
          ...................................................

 iter      E             dE          RMSdq      gap      omega  full diag
   1    -56.0539466 -0.560539E+02  0.208E-04    1.87       0.0  T
   2    -56.0539466  0.128182E-10  0.185E-04    1.87      85.4  T
   3    -56.0539466 -0.609802E-09  0.135E-04    1.87     117.1  T

   *** convergence criteria satisfied after 3 iterations ***

         #    Occupation            Energy/Eh            Energy/eV
      -------------------------------------------------------------
         1        2.0000           -1.0092925             -27.4642
       ...           ...                  ...                  ...
        45        2.0000           -0.4185316             -11.3888
        46        2.0000           -0.4025301             -10.9534
        47        2.0000           -0.3934469             -10.7062
        48        2.0000           -0.3865480             -10.5185
        49        2.0000           -0.3865255             -10.5179
        50        2.0000           -0.3574799              -9.7275
        51        2.0000           -0.3511217              -9.5545 (HOMO)
        52                         -0.2823023              -7.6818 (LUMO)
        53                         -0.2248410              -6.1182
        54                         -0.2196443              -5.9768
        55                         -0.2118479              -5.7647
        56                         -0.0924823              -2.5166
       ...                                ...                  ...
       102                          0.6892673              18.7559
      -------------------------------------------------------------
                  HL-Gap            0.0688194 Eh            1.8727 eV
             Fermi-level           -0.3167120 Eh           -8.6182 eV

 SCC (total)                   0 d,  0 h,  0 min,  0.021 sec
 SCC setup                      ...        0 min,  0.000 sec (  0.694%)
 Dispersion                     ...        0 min,  0.000 sec (  2.151%)
 classical contributions        ...        0 min,  0.000 sec (  0.194%)
 integral evaluation            ...        0 min,  0.002 sec ( 10.256%)
 iterations                     ...        0 min,  0.012 sec ( 58.094%)
 molecular gradient             ...        0 min,  0.005 sec ( 26.272%)
 printout                       ...        0 min,  0.000 sec (  1.687%)

         :::::::::::::::::::::::::::::::::::::::::::::::::::::
         ::                     SUMMARY                     ::
         :::::::::::::::::::::::::::::::::::::::::::::::::::::
         :: total energy             -55.249131360871 Eh    ::
         :: gradient norm              0.000609774460 Eh/a0 ::
         :: HOMO-LUMO gap              1.872670475686 eV    ::
         ::.................................................::
         :: SCC energy               -56.053946578124 Eh    ::
         :: -> isotropic ES            0.033719342019 Eh    ::
         :: -> anisotropic ES          0.001968644740 Eh    ::
         :: -> anisotropic XC          0.029238799328 Eh    ::
         :: -> dispersion             -0.044975963041 Eh    ::
         :: repulsion energy           0.803514597713 Eh    ::
         :: add. restraining           0.000000000000 Eh    ::
         :: total charge               0.000000000000 e     ::
         :::::::::::::::::::::::::::::::::::::::::::::::::::::

           -------------------------------------------------
          |                Property Printout                |
           -------------------------------------------------

    * Orbital Energies and Occupations

         #    Occupation            Energy/Eh            Energy/eV
      -------------------------------------------------------------
         1        2.0000           -1.0092925             -27.4642
       ...           ...                  ...                  ...
        39        2.0000           -0.4536343             -12.3440
        40        2.0000           -0.4519468             -12.2981
        41        2.0000           -0.4474855             -12.1767
        42        2.0000           -0.4366357             -11.8815
        43        2.0000           -0.4270943             -11.6218
        44        2.0000           -0.4251177             -11.5680
        45        2.0000           -0.4185316             -11.3888
        46        2.0000           -0.4025301             -10.9534
        47        2.0000           -0.3934469             -10.7062
        48        2.0000           -0.3865480             -10.5185
        49        2.0000           -0.3865255             -10.5179
        50        2.0000           -0.3574799              -9.7275
        51        2.0000           -0.3511217              -9.5545 (HOMO)
        52                         -0.2823023              -7.6818 (LUMO)
        53                         -0.2248410              -6.1182
        54                         -0.2196443              -5.9768
        55                         -0.2118479              -5.7647
        56                         -0.0924823              -2.5166
        57                         -0.0503638              -1.3705
        58                         -0.0183895              -0.5004
        59                         -0.0072896              -0.1984
        60                          0.0271989               0.7401
        61                          0.0448354               1.2200
        62                          0.0527415               1.4352
       ...                                ...                  ...
       102                          0.6892673              18.7559
      -------------------------------------------------------------
                  HL-Gap            0.0688194 Eh            1.8727 eV
             Fermi-level           -0.3167120 Eh           -8.6182 eV

     #   Z          covCN         q      C6AA      α(0)
     1   7 N        2.716    -0.304    27.826     7.834
     2   6 C        3.732     0.001    20.648     6.486
     3   6 C        3.799    -0.073    21.891     6.662
     4   6 C        3.801    -0.067    21.777     6.644
     5   6 C        3.740     0.008    20.517     6.463
     6   7 N        2.762    -0.122    23.660     7.224
     7   6 C        3.884     0.046    19.756     6.319
     8   6 C        3.894    -0.006    20.636     6.458
     9   6 C        3.015    -0.042    29.016     8.836
    10   6 C        2.959    -0.065    29.618     8.926
    11   6 C        2.949    -0.020    28.499     8.756
    12   6 C        2.947    -0.049    29.219     8.866
    13   6 C        2.978     0.056    26.728     8.480
    14   6 C        3.015    -0.021    28.508     8.758
    15   6 C        2.916    -0.035    28.868     8.811
    16   6 C        2.921    -0.044    29.102     8.847
    17   6 C        2.922    -0.033    28.815     8.803
    18   6 C        2.914    -0.066    29.644     8.928
    19  17 Cl       0.837    -0.492   115.402    16.434
    20   1 H        0.923     0.327     0.634     1.245
    21   1 H        0.860     0.168     1.287     1.777
    22   1 H        0.860     0.176     1.237     1.742
    23   1 H        0.924     0.051     2.306     2.375
    24   1 H        0.924     0.054     2.275     2.359
    25   1 H        0.924     0.049     2.334     2.389
    26   1 H        0.924     0.038     2.471     2.458
    27   1 H        0.924     0.038     2.481     2.463
    28   1 H        0.924     0.044     2.390     2.418
    29   1 H        0.924     0.038     2.478     2.461
    30   1 H        0.923     0.030     2.591     2.517
    31   1 H        0.922     0.019     2.755     2.596
    32   1 H        0.925     0.041     2.430     2.438
    33   1 H        0.925     0.025     2.658     2.550
    34   1 H        0.925     0.036     2.498     2.472
    35   1 H        0.926     0.040     2.455     2.450
    36   1 H        0.925     0.039     2.469     2.457
    37   1 H        0.926     0.031     2.577     2.510
    38   1 H        0.926     0.031     2.577     2.511
    39   1 H        0.926     0.031     2.566     2.505
    40   1 H        0.926     0.023     2.692     2.566

 Mol. C6AA /au·bohr⁶  :      17762.703035
 Mol. C8AA /au·bohr⁸  :     437816.540319
 Mol. α(0) /au        :        207.793115


Wiberg/Mayer (AO) data.
largest (>0.10) Wiberg bond orders for each atom

 ---------------------------------------------------------------------------
     #   Z sym  total        # sym  WBO       # sym  WBO       # sym  WBO
 ---------------------------------------------------------------------------
     1   7 N    3.261 --     2 C    1.011    21 H    0.952    22 H    0.945
                            20 H    0.221
     2   6 C    3.975 --     1 N    1.011     3 C    1.000    23 H    0.974
                            24 H    0.973
     3   6 C    3.995 --     4 C    1.004     2 C    1.000    26 H    0.978
                            25 H    0.966
     4   6 C    3.994 --     3 C    1.004     5 C    0.996    27 H    0.979
                            28 H    0.970
     5   6 C    3.981 --     6 N    0.998     4 C    0.996    29 H    0.971
                            30 H    0.966
     6   7 N    3.365 --    13 C    1.132     5 C    0.998     7 C    0.974
     7   6 C    3.976 --    12 C    1.018     6 N    0.974    31 H    0.948
                             8 C    0.902
     8   6 C    3.989 --     9 C    1.025    14 C    1.005    32 H    0.962
                             7 C    0.902
     9   6 C    3.957 --    10 C    1.745     8 C    1.025    33 H    0.958
                            12 C    0.117
    10   6 C    3.953 --     9 C    1.745    11 C    1.128    34 H    0.946
    11   6 C    3.982 --    12 C    1.802    10 C    1.128    35 H    0.961
    12   6 C    3.984 --    11 C    1.802     7 C    1.018    36 H    0.958
                             9 C    0.117
    13   6 C    3.972 --    18 C    1.367    14 C    1.294     6 N    1.132
    14   6 C    3.983 --    15 C    1.461    13 C    1.294     8 C    1.005
                            17 C    0.102
    15   6 C    3.991 --    14 C    1.461    16 C    1.403    37 H    0.970
    16   6 C    3.987 --    17 C    1.451    15 C    1.403    38 H    0.972
    17   6 C    3.991 --    16 C    1.451    18 C    1.427    39 H    0.971
                            14 C    0.102
    18   6 C    3.984 --    17 C    1.427    13 C    1.367    40 H    0.965
    19  17 Cl   0.759 --    20 H    0.669
    20   1 H    0.893 --    19 Cl   0.669     1 N    0.221
    21   1 H    0.972 --     1 N    0.952
    22   1 H    0.969 --     1 N    0.945
    23   1 H    0.997 --     2 C    0.974
    24   1 H    0.997 --     2 C    0.973
    25   1 H    0.998 --     3 C    0.966
    26   1 H    0.998 --     3 C    0.978
    27   1 H    0.998 --     4 C    0.979
    28   1 H    0.998 --     4 C    0.970
    29   1 H    0.998 --     5 C    0.971
    30   1 H    0.999 --     5 C    0.966
    31   1 H    1.000 --     7 C    0.948
    32   1 H    0.998 --     8 C    0.962
    33   1 H    0.999 --     9 C    0.958
    34   1 H    0.998 --    10 C    0.946
    35   1 H    0.997 --    11 C    0.961
    36   1 H    0.998 --    12 C    0.958
    37   1 H    0.999 --    15 C    0.970
    38   1 H    0.999 --    16 C    0.972
    39   1 H    0.998 --    17 C    0.971
    40   1 H    0.999 --    18 C    0.965
 ---------------------------------------------------------------------------

Topologies differ in total number of bonds
Writing topology from bond orders to xtbtopo.mol

molecular dipole:
                 x           y           z       tot (Debye)
 q only:        1.611      -2.066       0.027
   full:        1.687      -2.308      -0.164       7.279
molecular quadrupole (traceless):
                xx          xy          yy          xz          yz          zz
 q only:       87.915     -38.815     -75.763       2.457      -3.284     -12.152
  q+dip:       91.580     -48.967     -76.597      -2.962      -7.500     -14.983
   full:       91.031     -49.831     -75.259      -3.548      -5.613     -15.773

           -------------------------------------------------
          |                Geometry Summary                 |
           -------------------------------------------------

      molecular mass/u    :      276.8048741
   center of mass at/Å    :       10.7623004       2.5802956       0.0061397
  moments of inertia/u·Å² :        0.1369363E+04   0.1941325E+04   0.2323246E+04
rotational constants/cm⁻¹ :        0.1231056E-01   0.8683569E-02   0.7256068E-02

 * 37 selected distances

     #   Z          #   Z                                           value/Å
     1   7 N        2   6 C                                       1.4592560
     2   6 C        3   6 C                                       1.5326499
     3   6 C        4   6 C                                       1.5363668 (max)
     4   6 C        5   6 C                                       1.5361993
     5   6 C        6   7 N                                       1.4433564
     6   7 N        7   6 C                                       1.4617101
     8   6 C        9   6 C                                       1.4821570
     9   6 C       10   6 C                                       1.3730322
    11   6 C       12   6 C                                       1.3505714
     6   7 N       13   6 C                                       1.3797467
     8   6 C       14   6 C                                       1.4920804
    13   6 C       14   6 C                                       1.4009787
    14   6 C       15   6 C                                       1.3745669
    15   6 C       16   6 C                                       1.3905725
    16   6 C       17   6 C                                       1.3832786
    13   6 C       18   6 C                                       1.3873328
    17   6 C       18   6 C                                       1.3883335
     1   7 N       21   1 H                                       1.0149597 (min)
     1   7 N       22   1 H                                       1.0163014
     2   6 C       23   1 H                                       1.0920486
     2   6 C       24   1 H                                       1.0926185
     3   6 C       25   1 H                                       1.0926028
     3   6 C       26   1 H                                       1.0902882
     4   6 C       27   1 H                                       1.0906607
     4   6 C       28   1 H                                       1.0907714
     5   6 C       29   1 H                                       1.0917695
     5   6 C       30   1 H                                       1.0994708
     7   6 C       31   1 H                                       1.1076624
     8   6 C       32   1 H                                       1.0894650
     9   6 C       33   1 H                                       1.0890059
    10   6 C       34   1 H                                       1.0817107
    11   6 C       35   1 H                                       1.0810108
    12   6 C       36   1 H                                       1.0834743
    15   6 C       37   1 H                                       1.0796652
    16   6 C       38   1 H                                       1.0788193
    17   6 C       39   1 H                                       1.0798822
    18   6 C       40   1 H                                       1.0790558

 * 4 distinct bonds (by element types)

   Z      Z             #   av. dist./Å        max./Å        min./Å
   1 H    6 C          18     1.0883323     1.1076624     1.0788193
   6 C    6 C          13     1.4329323     1.5363668     1.3505714
   1 H    7 N           2     1.0156305     1.0163014     1.0149597
   6 C    7 N           4     1.4360173     1.4617101     1.3797467


optimized geometry written to: xtbopt.xyz


           -------------------------------------------------
          | TOTAL ENERGY              -55.249131360871 Eh   |
          | GRADIENT NORM               0.000609774460 Eh/α |
          | HOMO-LUMO GAP               1.872670475686 eV   |
           -------------------------------------------------

------------------------------------------------------------------------
 * finished run on 2023/01/23 at 20:46:59.137     
------------------------------------------------------------------------
 total:
 * wall-time:     0 d,  0 h,  0 min,  6.374 sec
 *  cpu-time:     0 d,  0 h, 12 min, 25.864 sec
 * ratio c/w:   117.023 speedup
 SCF:
 * wall-time:     0 d,  0 h,  0 min,  0.214 sec
 *  cpu-time:     0 d,  0 h,  0 min, 25.183 sec
 * ratio c/w:   117.863 speedup
 ANC optimizer:
 * wall-time:     0 d,  0 h,  0 min,  6.129 sec
 *  cpu-time:     0 d,  0 h, 11 min, 56.843 sec
 * ratio c/w:   116.952 speedup

