 Entering Gaussian System
 *********************************************
 Gaussian 98:
 frequency output generated by the xtb code
 *********************************************
                         Standard orientation:
 --------------------------------------------------------------------
  Center     Atomic     Atomic              Coordinates (Angstroms)
  Number     Number      Type              X           Y           Z
 --------------------------------------------------------------------
    1          7             0       -1.500810    0.000018    0.157045
    2          6             0       -0.160982    0.000130   -0.494699
    3          6             0        0.986455    0.755785    0.135705
    4          6             0        0.986217   -0.755925    0.135688
    5          1             0       -1.420906    0.001580    1.182955
    6          1             0       -2.039775   -0.834040   -0.115671
    7          1             0       -2.041136    0.832371   -0.118054
    8          1             0       -0.220636    0.000128   -1.593229
    9          1             0        0.803131    1.280718    1.075385
   10          1             0        1.691815    1.279910   -0.514118
   11          1             0        0.803557   -1.280112    1.075860
   12          1             0        1.690822   -1.280720   -0.514484
 --------------------------------------------------------------------
     1 basis functions        1 primitive gaussians
     1 alpha electrons        1 beta electrons

 Harmonic frequencies (cm**-1), IR intensities (km*mol⁻¹),
 Raman scattering activities (A**4/amu), Raman depolarization ratios,
 reduced masses (AMU), force constants (mDyne/A) and normal coordinates:
                      1                      2                      3
                        a                      a                      a 
 Frequencies --   142.1208               363.9717               378.3926
 Red. masses --     1.6063                 7.6883                 8.4144
 Frc consts  --     0.0000                 0.0000                 0.0000
 IR Inten    --     0.0325                10.9252                11.9188
 Raman Activ --     0.0000                 0.0000                 0.0000
 Depolar     --     0.0000                 0.0000                 0.0000
 Atom AN      X      Y      Z        X      Y      Z        X      Y      Z
   1   7    -0.00   0.01  -0.00     0.00  -0.34   0.00     0.47   0.00   0.15
   2   6    -0.00  -0.13   0.00     0.00   0.42  -0.00     0.05  -0.00  -0.45
   3   6    -0.05   0.05  -0.12     0.36   0.04  -0.12    -0.29   0.01   0.08
   4   6     0.05   0.05   0.12    -0.36   0.04   0.12    -0.29  -0.01   0.08
   5   1     0.00  -0.54   0.00     0.00  -0.22   0.00     0.36   0.00   0.02
   6   1    -0.23   0.29  -0.42     0.15  -0.15  -0.11     0.06   0.00   0.16
   7   1     0.23   0.29   0.42    -0.15  -0.15   0.11     0.07   0.00   0.16
   8   1    -0.00  -0.07   0.00     0.00   0.13  -0.00     0.01  -0.00  -0.12
   9   1    -0.02   0.05  -0.06     0.22   0.11  -0.07    -0.25   0.02  -0.02
  10   1    -0.02  -0.00  -0.06     0.14  -0.14  -0.12     0.04  -0.02   0.14
  11   1     0.02   0.05   0.06    -0.22   0.11   0.07    -0.25  -0.02  -0.02
  12   1     0.02  -0.00   0.06    -0.14  -0.14   0.12     0.04   0.02   0.14
                      4                      5                      6
                        a                      a                      a 
 Frequencies --   794.1712               843.1705               886.8821
 Red. masses --     8.2262                 2.1316                 1.9739
 Frc consts  --     0.0000                 0.0000                 0.0000
 IR Inten    --    13.9141                11.9690                27.9289
 Raman Activ --     0.0000                 0.0000                 0.0000
 Depolar     --     0.0000                 0.0000                 0.0000
 Atom AN      X      Y      Z        X      Y      Z        X      Y      Z
   1   7     0.46   0.00  -0.14    -0.18   0.00   0.00     0.00   0.18  -0.00
   2   6     0.02   0.00   0.40     0.01   0.00  -0.17    -0.00   0.09   0.00
   3   6    -0.26   0.18  -0.09     0.11  -0.05  -0.05     0.08  -0.03  -0.11
   4   6    -0.26  -0.18  -0.09     0.11   0.05  -0.05    -0.08  -0.03   0.11
   5   1    -0.05   0.00  -0.02     0.16  -0.00  -0.02     0.00  -0.14   0.00
   6   1     0.16  -0.00  -0.13    -0.10  -0.00   0.12     0.30  -0.10  -0.14
   7   1     0.16   0.00  -0.13    -0.10   0.00   0.12    -0.30  -0.10   0.14
   8   1     0.07   0.00   0.11     0.08  -0.00  -0.05    -0.00  -0.43   0.00
   9   1     0.10  -0.11   0.09     0.01  -0.43   0.22    -0.33  -0.10  -0.04
  10   1    -0.26   0.18  -0.11    -0.10   0.37   0.16     0.20   0.09   0.25
  11   1     0.10   0.11   0.09     0.01   0.43   0.22     0.33  -0.10   0.04
  12   1    -0.26  -0.18  -0.11    -0.10  -0.37   0.16    -0.20   0.09  -0.25
                      7                      8                      9
                        a                      a                      a 
 Frequencies --   894.7599               903.1566              1002.6429
 Red. masses --     3.6732                 7.2713                 9.0932
 Frc consts  --     0.0000                 0.0000                 0.0000
 IR Inten    --    29.1148                 3.8206                 8.2652
 Raman Activ --     0.0000                 0.0000                 0.0000
 Depolar     --     0.0000                 0.0000                 0.0000
 Atom AN      X      Y      Z        X      Y      Z        X      Y      Z
   1   7     0.00  -0.00  -0.34    -0.00   0.22   0.00     0.33  -0.00  -0.04
   2   6    -0.22   0.00   0.08     0.00   0.30  -0.00    -0.48   0.00  -0.04
   3   6    -0.00  -0.08   0.13    -0.36  -0.25  -0.15     0.06  -0.43   0.05
   4   6    -0.00   0.08   0.13     0.36  -0.25   0.15     0.06   0.43   0.05
   5   1     0.57   0.00  -0.13    -0.00  -0.09   0.00    -0.16   0.00   0.01
   6   1    -0.14  -0.02   0.22     0.28  -0.08  -0.12     0.13   0.01  -0.14
   7   1    -0.14   0.02   0.22    -0.28  -0.08   0.12     0.13  -0.01  -0.14
   8   1     0.15   0.00   0.01    -0.00   0.29  -0.00    -0.24   0.00  -0.00
   9   1     0.27   0.07   0.04    -0.01  -0.01  -0.06     0.06  -0.20   0.07
  10   1    -0.11  -0.13  -0.17    -0.21  -0.07  -0.16     0.03  -0.13   0.03
  11   1     0.27  -0.07   0.04     0.01  -0.01   0.06     0.06   0.20   0.07
  12   1    -0.11   0.13  -0.17     0.21  -0.07   0.16     0.03   0.13   0.03
                     10                     11                     12
                        a                      a                      a 
 Frequencies --  1065.7748              1097.2893              1111.6797
 Red. masses --     5.9915                 4.1648                 3.7970
 Frc consts  --     0.0000                 0.0000                 0.0000
 IR Inten    --    39.4137                 0.3177                 0.9447
 Raman Activ --     0.0000                 0.0000                 0.0000
 Depolar     --     0.0000                 0.0000                 0.0000
 Atom AN      X      Y      Z        X      Y      Z        X      Y      Z
   1   7     0.00   0.29  -0.00    -0.00  -0.08  -0.00     0.00  -0.04  -0.00
   2   6    -0.00  -0.46   0.00     0.00   0.43  -0.00    -0.00   0.12   0.00
   3   6     0.09   0.13   0.22    -0.01  -0.12   0.18    -0.25   0.12  -0.21
   4   6    -0.09   0.13  -0.22     0.01  -0.12  -0.18     0.25   0.12   0.21
   5   1    -0.00  -0.13   0.00     0.00   0.04  -0.00     0.00   0.03  -0.00
   6   1     0.33  -0.10  -0.13    -0.10   0.04   0.03    -0.03   0.01  -0.00
   7   1    -0.33  -0.10   0.13     0.10   0.04  -0.03     0.03   0.01   0.00
   8   1    -0.00  -0.18   0.00    -0.00  -0.71  -0.00    -0.00  -0.27   0.00
   9   1     0.28   0.04   0.10     0.03   0.09  -0.01     0.36  -0.33   0.22
  10   1    -0.13   0.01  -0.13    -0.24   0.03  -0.16     0.16  -0.09   0.10
  11   1    -0.28   0.04  -0.10    -0.03   0.09   0.01    -0.36  -0.33  -0.23
  12   1     0.13   0.01   0.13     0.24   0.03   0.16    -0.17  -0.09  -0.10
                     13                     14                     15
                        a                      a                      a 
 Frequencies --  1122.1974              1131.4611              1152.2075
 Red. masses --     3.5957                 5.7261                 3.7338
 Frc consts  --     0.0000                 0.0000                 0.0000
 IR Inten    --    15.4257                13.8134                 1.4284
 Raman Activ --     0.0000                 0.0000                 0.0000
 Depolar     --     0.0000                 0.0000                 0.0000
 Atom AN      X      Y      Z        X      Y      Z        X      Y      Z
   1   7    -0.07  -0.00   0.14    -0.05   0.00   0.21    -0.00  -0.01  -0.00
   2   6     0.15   0.00  -0.20     0.23  -0.00  -0.44     0.00   0.00   0.00
   3   6    -0.24   0.12  -0.04    -0.01  -0.15   0.21     0.25  -0.05  -0.24
   4   6    -0.24  -0.12  -0.04    -0.01   0.15   0.21    -0.25  -0.05   0.24
   5   1    -0.12   0.00   0.04    -0.23  -0.00   0.07     0.00   0.01  -0.00
   6   1     0.02  -0.00  -0.04     0.02   0.02  -0.06    -0.02   0.00   0.01
   7   1     0.03   0.00  -0.04     0.02  -0.02  -0.06     0.02   0.00  -0.01
   8   1     0.15  -0.00  -0.06     0.11   0.00  -0.12     0.00   0.08   0.00
   9   1     0.42  -0.17   0.19     0.13   0.07   0.01     0.03  -0.29   0.08
  10   1     0.23  -0.25   0.09    -0.37   0.05  -0.28    -0.28   0.44  -0.08
  11   1     0.42   0.17   0.19     0.13  -0.08   0.01    -0.03  -0.29  -0.08
  12   1     0.23   0.25   0.09    -0.37  -0.05  -0.28     0.28   0.44   0.08
                     16                     17                     18
                        a                      a                      a 
 Frequencies --  1247.8562              1336.9266              1377.1974
 Red. masses --     4.5261                 6.4167                 3.2212
 Frc consts  --     0.0000                 0.0000                 0.0000
 IR Inten    --     5.8572                15.9294               204.8543
 Raman Activ --     0.0000                 0.0000                 0.0000
 Depolar     --     0.0000                 0.0000                 0.0000
 Atom AN      X      Y      Z        X      Y      Z        X      Y      Z
   1   7    -0.07   0.00   0.10    -0.03  -0.00  -0.16     0.36  -0.00  -0.14
   2   6     0.12   0.00   0.23     0.57   0.00   0.18    -0.14   0.00  -0.03
   3   6    -0.09  -0.30  -0.15    -0.12  -0.19  -0.04     0.03   0.06  -0.00
   4   6    -0.09   0.30  -0.15    -0.12   0.19  -0.04     0.03  -0.06  -0.00
   5   1     0.01  -0.00   0.02    -0.04  -0.00  -0.03    -0.53  -0.00   0.04
   6   1     0.01  -0.00  -0.01    -0.11  -0.00   0.18    -0.38   0.16   0.29
   7   1     0.01   0.00  -0.01    -0.11   0.01   0.18    -0.38  -0.16   0.29
   8   1     0.74  -0.00   0.04    -0.48   0.00   0.09     0.18  -0.00  -0.02
   9   1    -0.18  -0.10  -0.07    -0.10  -0.18   0.03     0.01   0.02  -0.00
  10   1     0.01  -0.13  -0.03    -0.04  -0.18  -0.11     0.03   0.02   0.02
  11   1    -0.18   0.10  -0.07    -0.10   0.18   0.03     0.01  -0.02  -0.00
  12   1     0.01   0.13  -0.03    -0.04   0.18  -0.11     0.03  -0.02   0.02
                     19                     20                     21
                        a                      a                      a 
 Frequencies --  1421.3518              1430.1684              1442.1907
 Red. masses --     1.6601                 1.6459                 1.9966
 Frc consts  --     0.0000                 0.0000                 0.0000
 IR Inten    --    92.5801                77.8955                 0.8231
 Raman Activ --     0.0000                 0.0000                 0.0000
 Depolar     --     0.0000                 0.0000                 0.0000
 Atom AN      X      Y      Z        X      Y      Z        X      Y      Z
   1   7     0.00  -0.21   0.00    -0.10  -0.00  -0.18     0.00  -0.06   0.00
   2   6    -0.00  -0.04   0.00    -0.06  -0.00  -0.04     0.00  -0.00   0.00
   3   6    -0.02  -0.05  -0.01     0.01   0.01   0.01     0.10   0.18   0.05
   4   6     0.02  -0.05   0.01     0.01  -0.00   0.01    -0.10   0.18  -0.05
   5   1    -0.00   0.70  -0.00    -0.30  -0.00   0.00     0.00   0.19  -0.00
   6   1     0.06   0.08  -0.43     0.36  -0.38   0.39     0.02   0.02  -0.12
   7   1    -0.06   0.08   0.43     0.36   0.38   0.39    -0.02   0.02   0.12
   8   1    -0.00   0.01   0.00     0.07   0.00  -0.02    -0.00   0.02   0.00
   9   1     0.08   0.09  -0.04     0.01   0.03  -0.01    -0.31  -0.32   0.13
  10   1     0.01   0.09   0.09    -0.00   0.03   0.01    -0.05  -0.32  -0.33
  11   1    -0.08   0.09   0.04     0.01  -0.03  -0.01     0.31  -0.32  -0.13
  12   1    -0.01   0.09  -0.09    -0.00  -0.03   0.02     0.05  -0.32   0.33
                     22                     23                     24
                        a                      a                      a 
 Frequencies --  1474.2316              2912.0146              2973.4727
 Red. masses --     4.2552                 1.8227                 1.5414
 Frc consts  --     0.0000                 0.0000                 0.0000
 IR Inten    --     6.4613                 0.6674                 3.0561
 Raman Activ --     0.0000                 0.0000                 0.0000
 Depolar     --     0.0000                 0.0000                 0.0000
 Atom AN      X      Y      Z        X      Y      Z        X      Y      Z
   1   7     0.00   0.00   0.02     0.00  -0.00   0.00     0.00  -0.00  -0.00
   2   6    -0.19   0.00  -0.09    -0.02   0.00  -0.27     0.01   0.00   0.00
   3   6     0.16   0.31   0.09    -0.01   0.01   0.02    -0.07  -0.12  -0.02
   4   6     0.16  -0.31   0.09    -0.01  -0.01   0.02    -0.10   0.14   0.00
   5   1     0.00  -0.00   0.00    -0.00  -0.00  -0.03    -0.00  -0.00   0.00
   6   1     0.03  -0.02  -0.01     0.00   0.00   0.00    -0.00  -0.00  -0.00
   7   1     0.03   0.02  -0.01     0.00  -0.00   0.00    -0.00   0.00  -0.00
   8   1     0.07  -0.00  -0.03     0.05   0.00   0.96     0.00  -0.00   0.01
   9   1    -0.27  -0.28   0.15     0.01  -0.02  -0.05    -0.08   0.18   0.36
  10   1    -0.02  -0.28  -0.31     0.02   0.02  -0.02     0.31   0.22  -0.30
  11   1    -0.27   0.28   0.15     0.01   0.02  -0.05    -0.08  -0.18   0.36
  12   1    -0.02   0.28  -0.31     0.02  -0.02  -0.02     0.40  -0.28  -0.38
                     25                     26                     27
                        a                      a                      a 
 Frequencies --  2974.8146              2979.8552              2993.4049
 Red. masses --     1.6378                 1.9281                 2.0980
 Frc consts  --     0.0000                 0.0000                 0.0000
 IR Inten    --     0.2947                 3.2668                 3.1776
 Raman Activ --     0.0000                 0.0000                 0.0000
 Depolar     --     0.0000                 0.0000                 0.0000
 Atom AN      X      Y      Z        X      Y      Z        X      Y      Z
   1   7    -0.00  -0.00   0.00     0.00  -0.00  -0.00    -0.00  -0.00   0.00
   2   6    -0.00   0.00   0.00     0.00   0.00   0.00     0.00   0.00  -0.03
   3   6     0.12   0.12  -0.07    -0.06   0.06   0.19     0.10  -0.02  -0.20
   4   6    -0.10   0.10   0.07     0.06   0.07  -0.18     0.10   0.02  -0.20
   5   1     0.00   0.00  -0.00     0.00   0.00   0.00    -0.00   0.00  -0.00
   6   1     0.00   0.00   0.00    -0.00   0.00  -0.00    -0.00  -0.00  -0.00
   7   1    -0.00   0.00  -0.00     0.00   0.00  -0.00    -0.00   0.00  -0.00
   8   1    -0.00  -0.00  -0.00    -0.00   0.00  -0.00     0.01  -0.00   0.09
   9   1     0.05  -0.09  -0.20     0.11  -0.31  -0.56    -0.08   0.26   0.45
  10   1    -0.45  -0.33   0.43     0.12   0.10  -0.10    -0.26  -0.20   0.23
  11   1    -0.03  -0.05   0.13    -0.11  -0.32   0.57    -0.08  -0.27   0.47
  12   1     0.39  -0.28  -0.37    -0.09   0.08   0.07    -0.26   0.20   0.23
                     28                     29                     30
                        a                      a                      a 
 Frequencies --  3214.5088              3224.6863              3241.6150
 Red. masses --     2.0482                 1.9342                 1.3682
 Frc consts  --     0.0000                 0.0000                 0.0000
 IR Inten    --    88.1780                82.1455                31.4236
 Raman Activ --     0.0000                 0.0000                 0.0000
 Depolar     --     0.0000                 0.0000                 0.0000
 Atom AN      X      Y      Z        X      Y      Z        X      Y      Z
   1   7     0.00   0.28   0.00    -0.16   0.00  -0.21     0.07  -0.00  -0.15
   2   6     0.00   0.00   0.00    -0.01   0.00  -0.00     0.01  -0.00  -0.01
   3   6    -0.00   0.00  -0.00     0.00   0.00   0.00     0.00   0.00   0.00
   4   6     0.00   0.00   0.00     0.00  -0.00   0.00     0.00  -0.00   0.00
   5   1    -0.00   0.03  -0.01     0.04   0.00   0.51     0.09   0.00   0.82
   6   1    -0.36  -0.55  -0.20     0.28   0.47   0.14    -0.19  -0.31  -0.12
   7   1     0.35  -0.53   0.20     0.29  -0.49   0.15    -0.19   0.31  -0.12
   8   1    -0.00  -0.00  -0.00     0.00  -0.00   0.01     0.00   0.00   0.02
   9   1    -0.00  -0.00  -0.00    -0.00   0.00   0.00     0.00  -0.00  -0.00
  10   1    -0.00  -0.00   0.00     0.00   0.00  -0.00    -0.00  -0.00   0.00
  11   1     0.00  -0.00   0.00    -0.00  -0.00   0.00     0.00   0.00  -0.00
  12   1     0.00  -0.00  -0.00     0.00  -0.00  -0.00    -0.00   0.00   0.00
