      -----------------------------------------------------------      
     |                   =====================                   |     
     |                           x T B                           |     
     |                   =====================                   |     
     |                         S. Grimme                         |     
     |          Mulliken Center for Theoretical Chemistry        |     
     |                    University of Bonn                     |     
      -----------------------------------------------------------      

   * xtb version 6.5.1 (fef0646) compiled by 'conda@b96dff2e9fd6' on 2023-01-04

   xtb is free software: you can redistribute it and/or modify it under
   the terms of the GNU Lesser General Public License as published by
   the Free Software Foundation, either version 3 of the License, or
   (at your option) any later version.
   
   xtb is distributed in the hope that it will be useful,
   but WITHOUT ANY WARRANTY; without even the implied warranty of
   MERCHANTABILITY or FITNESS FOR A PARTICULAR PURPOSE.  See the
   GNU Lesser General Public License for more details.
   
   Cite this work as:
   * C. Bannwarth, E. Caldeweyher, S. Ehlert, A. Hansen, P. Pracht,
     J. Seibert, S. Spicher, S. Grimme, WIREs Comput. Mol. Sci., 2020, 11,
     e01493. DOI: 10.1002/wcms.1493
   
   for GFN2-xTB:
   * C. Bannwarth, S. Ehlert and S. Grimme., J. Chem. Theory Comput., 2019,
     15, 1652-1671. DOI: 10.1021/acs.jctc.8b01176
   for GFN1-xTB:
   * S. Grimme, C. Bannwarth, P. Shushkov, J. Chem. Theory Comput., 2017,
     13, 1989-2009. DOI: 10.1021/acs.jctc.7b00118
   for GFN0-xTB:
   * P. Pracht, E. Caldeweyher, S. Ehlert, S. Grimme, ChemRxiv, 2019, preprint.
     DOI: 10.26434/chemrxiv.8326202.v1
   for GFN-FF:
   * S. Spicher and S. Grimme, Angew. Chem. Int. Ed., 2020, 59, 15665-15673.
     DOI: 10.1002/anie.202004239
   
   for ALPB and GBSA implicit solvation:
   * S. Ehlert, M. Stahn, S. Spicher, S. Grimme, J. Chem. Theory Comput.,
     2021, 17, 4250-4261. DOI: 10.1021/acs.jctc.1c00471
   
   for DFT-D4:
   * E. Caldeweyher, C. Bannwarth and S. Grimme, J. Chem. Phys., 2017,
     147, 034112. DOI: 10.1063/1.4993215
   * E. Caldeweyher, S. Ehlert, A. Hansen, H. Neugebauer, S. Spicher,
     C. Bannwarth and S. Grimme, J. Chem. Phys., 2019, 150, 154122.
     DOI: 10.1063/1.5090222
   * E. Caldeweyher, J.-M. Mewes, S. Ehlert and S. Grimme, Phys. Chem. Chem. Phys.
     2020, 22, 8499-8512. DOI: 10.1039/D0CP00502A
   
   for sTDA-xTB:
   * S. Grimme and C. Bannwarth, J. Chem. Phys., 2016, 145, 054103.
     DOI: 10.1063/1.4959605
   
   in the mass-spec context:
   * V. Asgeirsson, C. Bauer and S. Grimme, Chem. Sci., 2017, 8, 4879.
     DOI: 10.1039/c7sc00601b
   * J. Koopman and S. Grimme, ACS Omega 2019, 4, 12, 15120-15133.
     DOI: 10.1021/acsomega.9b02011
   
   for metadynamics refer to:
   * S. Grimme, J. Chem. Theory Comput., 2019, 155, 2847-2862
     DOI: 10.1021/acs.jctc.9b00143
   
   for SPH calculations refer to:
   * S. Spicher and S. Grimme, J. Chem. Theory Comput., 2021, 17, 1701-1714
     DOI: 10.1021/acs.jctc.0c01306
   
   with help from (in alphabetical order)
   P. Atkinson, C. Bannwarth, F. Bohle, G. Brandenburg, E. Caldeweyher
   M. Checinski, S. Dohm, S. Ehlert, S. Ehrlich, I. Gerasimov, C. Hölzer
   A. Katbashev, J. Koopman, C. Lavigne, S. Lehtola, F. März, M. Müller,
   F. Musil, H. Neugebauer, J. Pisarek, C. Plett, P. Pracht, F. Pultar,
   J. Seibert, P. Shushkov, S. Spicher, M. Stahn, M. Steiner, T. Strunk,
   J. Stückrath, T. Rose, and J. Unsleber
   
 * started run on 2023/01/24 at 14:57:21.071     

           -------------------------------------------------
          |                Calculation Setup                |
           -------------------------------------------------

          program call               : xtb init.xyz --opt -c 0 -u 0 -P 16 --alpb water
          hostname                   : gpg-woodward
          coordinate file            : init.xyz
          omp threads                :                    16

   ID    Z sym.   atoms
    1    7 N      1
    2    6 C      2-19
    3   16 S      20-23
    4   17 Cl     24
    5    1 H      25-40

molecular fragmentation (1/2 indicates fragments):
1111111111111111111111121111111111111111
# atoms in fragment 1/2:    39     1
 fragment masses (1/2) :      374.59       35.45
CMA distance (Bohr)    :  20.212
constraining FC (au)   :  0.0500

           -------------------------------------------------
          |                 G F N 2 - x T B                 |
           -------------------------------------------------

        Reference                      10.1021/acs.jctc.8b01176
      * Hamiltonian:
        H0-scaling (s, p, d)           1.850000    2.230000    2.230000
        zeta-weighting                 0.500000
      * Dispersion:
        s8                             2.700000
        a1                             0.520000
        a2                             5.000000
        s9                             5.000000
      * Repulsion:
        kExp                           1.500000    1.000000
        rExp                           1.000000
      * Coulomb:
        alpha                          2.000000
        third order                    shell-resolved
        anisotropic                    true
        a3                             3.000000
        a5                             4.000000
        cn-shift                       1.200000
        cn-exp                         4.000000
        max-rad                        5.000000

      * Solvation model:               ALPB
        Solvent                        water
        Parameter file                 internal GFN2-xTB/ALPB
        Dielectric constant                8.0200E+01
        Reference state                gsolv [1 M gas/solution]
        Free energy shift                  1.0808E-03 Eh       6.7819E-01 kcal/mol
        Temperature                        2.9815E+02 K
        Density                            1.0000E+00 kg/L
        Solvent mass                       1.8000E+01 g/mol
        Interaction kernel             P16
        Born radius scaling (c1)           1.4744E+00
        Born radii integrator          GBOBC
        Born offset                        0.0000E+00 a0       0.0000E+00 AA
        H-bond correction              true
        Ion screening                  false
        Surface tension                    1.0000E-05 Eh       1.5569E+01 dyn/cm
        Grid points                               230 per atom

          ...................................................
          :                      SETUP                      :
          :.................................................:
          :  # basis functions                 142          :
          :  # atomic orbitals                 137          :
          :  # shells                           69          :
          :  # electrons                       124          :
          :  max. iterations                   250          :
          :  Hamiltonian                  GFN2-xTB          :
          :  restarted?                      false          :
          :  GBSA solvation                   true          :
          :  PC potential                    false          :
          :  electronic temp.          300.0000000     K    :
          :  accuracy                    1.0000000          :
          :  -> integral cutoff          0.2500000E+02      :
          :  -> integral neglect         0.1000000E-07      :
          :  -> SCF convergence          0.1000000E-05 Eh   :
          :  -> wf. convergence          0.1000000E-03 e    :
          :  Broyden damping             0.4000000          :
          ...................................................

 iter      E             dE          RMSdq      gap      omega  full diag
   1    -67.9497878 -0.679498E+02  0.423E+00    2.00       0.0  T
   2    -68.0372361 -0.874483E-01  0.237E+00    2.06       1.0  T
   3    -68.0333958  0.384032E-02  0.107E+00    2.07       1.0  T
   4    -68.0424783 -0.908248E-02  0.598E-01    2.06       1.0  T
   5    -68.0479865 -0.550821E-02  0.251E-01    2.06       1.0  T
   6    -68.0484193 -0.432838E-03  0.185E-01    2.06       1.0  T
   7    -68.0488505 -0.431180E-03  0.108E-01    2.05       1.0  T
   8    -68.0489828 -0.132281E-03  0.546E-02    2.05       1.0  T
   9    -68.0490298 -0.470252E-04  0.200E-02    2.05       1.0  T
  10    -68.0490324 -0.260728E-05  0.124E-02    2.05       1.3  T
  11    -68.0490340 -0.155637E-05  0.558E-03    2.05       2.8  T
  12    -68.0490343 -0.306362E-06  0.277E-03    2.05       5.7  T
  13    -68.0490343 -0.265647E-07  0.141E-03    2.05      11.2  T
  14    -68.0490343 -0.123354E-07  0.593E-04    2.05      26.6  T
  15    -68.0490343 -0.541409E-08  0.286E-04    2.05      55.4  T

   *** convergence criteria satisfied after 15 iterations ***

         #    Occupation            Energy/Eh            Energy/eV
      -------------------------------------------------------------
         1        2.0000           -1.0098658             -27.4798
       ...           ...                  ...                  ...
        56        2.0000           -0.4015593             -10.9270
        57        2.0000           -0.4012657             -10.9190
        58        2.0000           -0.4005074             -10.8984
        59        2.0000           -0.4001019             -10.8873
        60        2.0000           -0.3954498             -10.7607
        61        2.0000           -0.3805352             -10.3549
        62        2.0000           -0.3592718              -9.7763 (HOMO)
        63                         -0.2839483              -7.7266 (LUMO)
        64                         -0.2583804              -7.0309
        65                         -0.2365485              -6.4368
        66                         -0.2146899              -5.8420
        67                         -0.2084576              -5.6724
       ...                                ...                  ...
       137                          0.7168978              19.5078
      -------------------------------------------------------------
                  HL-Gap            0.0753235 Eh            2.0497 eV
             Fermi-level           -0.3216100 Eh           -8.7515 eV

 SCC (total)                   0 d,  0 h,  0 min,  0.285 sec
 SCC setup                      ...        0 min,  0.001 sec (  0.245%)
 Dispersion                     ...        0 min,  0.001 sec (  0.317%)
 classical contributions        ...        0 min,  0.000 sec (  0.027%)
 integral evaluation            ...        0 min,  0.005 sec (  1.750%)
 iterations                     ...        0 min,  0.266 sec ( 93.411%)
 molecular gradient             ...        0 min,  0.010 sec (  3.422%)
 printout                       ...        0 min,  0.002 sec (  0.692%)

         :::::::::::::::::::::::::::::::::::::::::::::::::::::
         ::                     SUMMARY                     ::
         :::::::::::::::::::::::::::::::::::::::::::::::::::::
         :: total energy             -67.158552437981 Eh    ::
         :: total w/o Gsasa/hb       -67.155043847991 Eh    ::
         :: gradient norm              0.080642518887 Eh/a0 ::
         :: HOMO-LUMO gap              2.049656447612 eV    ::
         ::.................................................::
         :: SCC energy               -68.049034302977 Eh    ::
         :: -> isotropic ES            0.111584438055 Eh    ::
         :: -> anisotropic ES         -0.030017807424 Eh    ::
         :: -> anisotropic XC          0.021417936467 Eh    ::
         :: -> dispersion             -0.049818915018 Eh    ::
         :: -> Gsolv                  -0.061850073325 Eh    ::
         ::    -> Gelec               -0.058341483334 Eh    ::
         ::    -> Gsasa                0.002433355297 Eh    ::
         ::    -> Ghb                 -0.007022704985 Eh    ::
         ::    -> Gshift               0.001080759698 Eh    ::
         :: repulsion energy           0.891237427127 Eh    ::
         :: add. restraining           0.000000000000 Eh    ::
         :: total charge              -0.000000000000 e     ::
         :::::::::::::::::::::::::::::::::::::::::::::::::::::

      ----------------------------------------------------------- 
     |                   =====================                   |
     |                        A N C O P T                        |
     |                   =====================                   |
     |               Approximate Normal Coordinate               |
     |                Rational Function Optimizer                |
      ----------------------------------------------------------- 

          ...................................................
          :                      SETUP                      :
          :.................................................:
          :   optimization level            normal          :
          :   max. optcycles                   200          :
          :   ANC micro-cycles                  20          :
          :   degrees of freedom               114          :
          :.................................................:
          :   RF solver                   davidson          :
          :   write xtbopt.log                true          :
          :   linear?                        false          :
          :   energy convergence         0.5000000E-05 Eh   :
          :   grad. convergence          0.1000000E-02 Eh/α :
          :   maximium RF displ.         1.0000000          :
          :   Hlow (freq-cutoff)         0.1000000E-01      :
          :   Hmax (freq-cutoff)         5.0000000          :
          :   S6 in model hess.         20.0000000          :
          ...................................................

generating ANC from model Hessian ...
Using Lindh-Hessian (1995)
 Shifting diagonal of input Hessian by    1.0027904252163067E-002
 Lowest  eigenvalues of input Hessian
    0.010000    0.000000    0.000000    0.000000    0.000000    0.000000
    0.000000    0.010183    0.010331    0.010566    0.010878    0.011464
    0.011776    0.012279    0.012754    0.014310    0.014783    0.016184
 Highest eigenvalues
    1.797266    1.827256    1.831291    1.908059    1.932488    1.948650


........................................................................
.............................. CYCLE    1 ..............................
........................................................................
   1    -68.0490343 -0.680490E+02  0.136E-04    2.05       0.0  T
   2    -68.0490343 -0.134946E-09  0.992E-05    2.05     159.4  T
   3    -68.0490343 -0.190070E-09  0.598E-05    2.05     264.2  T
     SCC iter.                  ...        0 min,  0.053 sec
     gradient                   ...        0 min,  0.010 sec
 * total energy  :   -67.1585524 Eh     change       -0.5563692E-09 Eh
   gradient norm :     0.0806431 Eh/α   predicted     0.0000000E+00 (-100.00%)
   displ. norm   :     0.3218111 α      lambda       -0.1102776E-01
   maximum displ.:     0.1924708 α      in ANC's #26, #14, #23, ...

........................................................................
.............................. CYCLE    2 ..............................
........................................................................
   1    -68.0862690 -0.680863E+02  0.170E-01    1.99       0.0  T
   2    -68.0863946 -0.125662E-03  0.101E-01    1.99       1.0  T
   3    -68.0863861  0.849574E-05  0.448E-02    1.99       1.0  T
   4    -68.0864064 -0.202461E-04  0.234E-02    2.00       1.0  T
   5    -68.0864151 -0.870784E-05  0.733E-03    2.00       2.2  T
   6    -68.0864153 -0.225568E-06  0.443E-03    1.99       3.6  T
   7    -68.0864156 -0.249166E-06  0.211E-03    1.99       7.5  T
   8    -68.0864156 -0.268564E-07  0.107E-03    1.99      14.7  T
   9    -68.0864156 -0.699110E-08  0.649E-04    1.99      24.4  T
  10    -68.0864156 -0.449343E-08  0.371E-04    1.99      42.6  T
     SCC iter.                  ...        0 min,  0.185 sec
     gradient                   ...        0 min,  0.009 sec
 * total energy  :   -67.1662429 Eh     change       -0.7690493E-02 Eh
   gradient norm :     0.0429443 Eh/α   predicted    -0.6088516E-02 ( -20.83%)
   displ. norm   :     0.2803946 α      lambda       -0.4244211E-02
   maximum displ.:     0.1127589 α      in ANC's #13, #14, #26, ...

........................................................................
.............................. CYCLE    3 ..............................
........................................................................
   1    -68.1068067 -0.681068E+02  0.138E-01    1.92       0.0  T
   2    -68.1068827 -0.759312E-04  0.776E-02    1.93       1.0  T
   3    -68.1068786  0.410450E-05  0.338E-02    1.93       1.0  T
   4    -68.1068886 -0.100468E-04  0.181E-02    1.93       1.0  T
   5    -68.1068937 -0.509500E-05  0.566E-03    1.93       2.8  T
   6    -68.1068937 -0.273975E-07  0.345E-03    1.93       4.6  T
   7    -68.1068939 -0.201529E-06  0.172E-03    1.93       9.2  T
   8    -68.1068939 -0.187648E-07  0.948E-04    1.93      16.7  T
   9    -68.1068939 -0.817573E-08  0.516E-04    1.93      30.7  T
     SCC iter.                  ...        0 min,  0.160 sec
     gradient                   ...        0 min,  0.010 sec
 * total energy  :   -67.1688103 Eh     change       -0.2567378E-02 Eh
   gradient norm :     0.0133239 Eh/α   predicted    -0.2290509E-02 ( -10.78%)
   displ. norm   :     0.2171559 α      lambda       -0.8239805E-03
   maximum displ.:     0.1210969 α      in ANC's #13, #6, #12, ...

........................................................................
.............................. CYCLE    4 ..............................
........................................................................
   1    -68.1064622 -0.681065E+02  0.919E-02    1.89       0.0  T
   2    -68.1064712 -0.900342E-05  0.506E-02    1.89       1.0  T
   3    -68.1064693  0.188303E-05  0.146E-02    1.89       1.1  T
   4    -68.1064716 -0.222641E-05  0.782E-03    1.89       2.0  T
   5    -68.1064727 -0.111994E-05  0.318E-03    1.89       5.0  T
   6    -68.1064727 -0.418899E-07  0.202E-03    1.89       7.8  T
   7    -68.1064728 -0.388765E-07  0.142E-03    1.89      11.2  T
   8    -68.1064728 -0.222124E-07  0.574E-04    1.89      27.5  T
   9    -68.1064728 -0.420144E-08  0.292E-04    1.89      54.2  T
     SCC iter.                  ...        0 min,  0.161 sec
     gradient                   ...        0 min,  0.009 sec
 * total energy  :   -67.1694188 Eh     change       -0.6084586E-03 Eh
   gradient norm :     0.0055094 Eh/α   predicted    -0.4314459E-03 ( -29.09%)
   displ. norm   :     0.3305077 α      lambda       -0.6963254E-03
   maximum displ.:     0.1933617 α      in ANC's #13, #6, #12, ...

........................................................................
.............................. CYCLE    5 ..............................
........................................................................
   1    -68.1025039 -0.681025E+02  0.131E-01    1.86       0.0  T
   2    -68.1025100 -0.606507E-05  0.738E-02    1.86       1.0  T
   3    -68.1025067  0.321525E-05  0.163E-02    1.86       1.0  T
   4    -68.1025110 -0.425836E-05  0.871E-03    1.86       1.8  T
   5    -68.1025121 -0.108529E-05  0.376E-03    1.86       4.2  T
   6    -68.1025122 -0.801382E-07  0.253E-03    1.86       6.3  T
   7    -68.1025122 -0.466294E-07  0.180E-03    1.86       8.8  T
   8    -68.1025123 -0.443326E-07  0.480E-04    1.86      32.9  T
   9    -68.1025123 -0.190988E-08  0.293E-04    1.86      54.0  T
     SCC iter.                  ...        0 min,  0.160 sec
     gradient                   ...        0 min,  0.010 sec
 * total energy  :   -67.1699160 Eh     change       -0.4972166E-03 Eh
   gradient norm :     0.0096325 Eh/α   predicted    -0.3862004E-03 ( -22.33%)
   displ. norm   :     0.3311032 α      lambda       -0.4851757E-03
   maximum displ.:     0.1943852 α      in ANC's #13, #6, #12, ...

........................................................................
.............................. CYCLE    6 ..............................
........................................................................
   1    -68.0993824 -0.680994E+02  0.128E-01    1.84       0.0  T
   2    -68.0993852 -0.288265E-05  0.724E-02    1.84       1.0  T
   3    -68.0993841  0.109642E-05  0.126E-02    1.84       1.3  T
   4    -68.0993860 -0.188958E-05  0.753E-03    1.84       2.1  T
   5    -68.0993868 -0.787359E-06  0.297E-03    1.84       5.3  T
   6    -68.0993869 -0.525767E-07  0.231E-03    1.84       6.9  T
   7    -68.0993869 -0.545590E-07  0.117E-03    1.84      13.5  T
   8    -68.0993870 -0.194852E-07  0.376E-04    1.84      42.1  T
   9    -68.0993870 -0.116347E-08  0.226E-04    1.84      69.9  T
     SCC iter.                  ...        0 min,  0.161 sec
     gradient                   ...        0 min,  0.010 sec
 * total energy  :   -67.1702985 Eh     change       -0.3825412E-03 Eh
   gradient norm :     0.0129494 Eh/α   predicted    -0.2691831E-03 ( -29.63%)
   displ. norm   :     0.3979403 α      lambda       -0.6017592E-03
   maximum displ.:     0.2284290 α      in ANC's #13, #6, #4, ...

........................................................................
.............................. CYCLE    7 ..............................
........................................................................
   1    -68.0979870 -0.680980E+02  0.152E-01    1.83       0.0  T
   2    -68.0979914 -0.437154E-05  0.859E-02    1.83       1.0  T
   3    -68.0979913  0.672299E-07  0.134E-02    1.83       1.2  T
   4    -68.0979921 -0.824855E-06  0.868E-03    1.83       1.8  T
   5    -68.0979934 -0.125345E-05  0.354E-03    1.83       4.5  T
   6    -68.0979935 -0.893595E-07  0.269E-03    1.83       5.9  T
   7    -68.0979935 -0.651815E-07  0.150E-03    1.83      10.6  T
   8    -68.0979936 -0.318215E-07  0.480E-04    1.83      32.9  T
   9    -68.0979936 -0.303385E-08  0.253E-04    1.83      62.6  T
     SCC iter.                  ...        0 min,  0.165 sec
     gradient                   ...        0 min,  0.009 sec
 * total energy  :   -67.1707681 Eh     change       -0.4695249E-03 Eh
   gradient norm :     0.0120116 Eh/α   predicted    -0.3485271E-03 ( -25.77%)
   displ. norm   :     0.3896256 α      lambda       -0.5906301E-03
   maximum displ.:     0.2234787 α      in ANC's #6, #13, #4, ...

........................................................................
.............................. CYCLE    8 ..............................
........................................................................
   1    -68.1005105 -0.681005E+02  0.147E-01    1.84       0.0  T
   2    -68.1005158 -0.532067E-05  0.830E-02    1.83       1.0  T
   3    -68.1005166 -0.799942E-06  0.125E-02    1.83       1.3  T
   4    -68.1005169 -0.287881E-06  0.756E-03    1.83       2.1  T
   5    -68.1005177 -0.818484E-06  0.375E-03    1.83       4.2  T
   6    -68.1005179 -0.115679E-06  0.270E-03    1.83       5.9  T
   7    -68.1005179 -0.585120E-07  0.175E-03    1.83       9.1  T
   8    -68.1005180 -0.421604E-07  0.489E-04    1.83      32.4  T
   9    -68.1005180 -0.405524E-08  0.236E-04    1.83      67.1  T
     SCC iter.                  ...        0 min,  0.163 sec
     gradient                   ...        0 min,  0.009 sec
 * total energy  :   -67.1711980 Eh     change       -0.4299157E-03 Eh
   gradient norm :     0.0073275 Eh/α   predicted    -0.3401496E-03 ( -20.88%)
   displ. norm   :     0.3280719 α      lambda       -0.3422986E-03
   maximum displ.:     0.1927274 α      in ANC's #6, #13, #4, ...

........................................................................
.............................. CYCLE    9 ..............................
........................................................................
   1    -68.1038223 -0.681038E+02  0.122E-01    1.83       0.0  T
   2    -68.1038253 -0.293343E-05  0.687E-02    1.83       1.0  T
   3    -68.1038260 -0.708617E-06  0.984E-03    1.83       1.6  T
   4    -68.1038260  0.576550E-08  0.583E-03    1.83       2.7  T
   5    -68.1038265 -0.574561E-06  0.293E-03    1.83       5.4  T
   6    -68.1038266 -0.651225E-07  0.219E-03    1.83       7.2  T
   7    -68.1038266 -0.444337E-07  0.122E-03    1.83      12.9  T
   8    -68.1038267 -0.220982E-07  0.342E-04    1.83      46.2  T
   9    -68.1038267 -0.144388E-08  0.194E-04    1.83      81.4  T
     SCC iter.                  ...        0 min,  0.108 sec
     gradient                   ...        0 min,  0.009 sec
 * total energy  :   -67.1714531 Eh     change       -0.2551429E-03 Eh
   gradient norm :     0.0052569 Eh/α   predicted    -0.1895737E-03 ( -25.70%)
   displ. norm   :     0.3444255 α      lambda       -0.2573394E-03
   maximum displ.:     0.2061962 α      in ANC's #6, #4, #13, ...

........................................................................
.............................. CYCLE   10 ..............................
........................................................................
   1    -68.1059611 -0.681060E+02  0.126E-01    1.83       0.0  T
   2    -68.1059637 -0.267228E-05  0.715E-02    1.83       1.0  T
   3    -68.1059642 -0.459959E-06  0.102E-02    1.83       1.5  T
   4    -68.1059642 -0.245505E-07  0.652E-03    1.83       2.4  T
   5    -68.1059650 -0.811076E-06  0.272E-03    1.83       5.8  T
   6    -68.1059651 -0.435072E-07  0.211E-03    1.83       7.5  T
   7    -68.1059651 -0.496826E-07  0.941E-04    1.83      16.8  T
   8    -68.1059651 -0.133107E-07  0.354E-04    1.83      44.7  T
     SCC iter.                  ...        0 min,  0.142 sec
     gradient                   ...        0 min,  0.009 sec
 * total energy  :   -67.1716548 Eh     change       -0.2016547E-03 Eh
   gradient norm :     0.0054421 Eh/α   predicted    -0.1439697E-03 ( -28.61%)
   displ. norm   :     0.3753082 α      lambda       -0.2758961E-03
   maximum displ.:     0.2197276 α      in ANC's #6, #4, #2, ...

........................................................................
.............................. CYCLE   11 ..............................
........................................................................
   1    -68.1089772 -0.681090E+02  0.136E-01    1.83       0.0  T
   2    -68.1089802 -0.299770E-05  0.767E-02    1.83       1.0  T
   3    -68.1089802  0.126709E-07  0.111E-02    1.83       1.4  T
   4    -68.1089806 -0.422399E-06  0.686E-03    1.83       2.3  T
   5    -68.1089815 -0.854637E-06  0.235E-03    1.83       6.7  T
   6    -68.1089815 -0.392791E-07  0.182E-03    1.83       8.7  T
   7    -68.1089815 -0.326561E-07  0.879E-04    1.83      18.0  T
   8    -68.1089815 -0.115638E-07  0.379E-04    1.83      41.8  T
     SCC iter.                  ...        0 min,  0.143 sec
     gradient                   ...        0 min,  0.009 sec
 * total energy  :   -67.1718759 Eh     change       -0.2211382E-03 Eh
   gradient norm :     0.0053134 Eh/α   predicted    -0.1573829E-03 ( -28.83%)
   displ. norm   :     0.5953120 α      lambda       -0.3675287E-03
   maximum displ.:     0.3619603 α      in ANC's #6, #4, #2, ...

........................................................................
.............................. CYCLE   12 ..............................
........................................................................
   1    -68.1037455 -0.681037E+02  0.223E-01    1.80       0.0  T
   2    -68.1037540 -0.844143E-05  0.125E-01    1.80       1.0  T
   3    -68.1037519  0.206304E-05  0.198E-02    1.80       1.0  T
   4    -68.1037556 -0.373274E-05  0.105E-02    1.80       1.5  T
   5    -68.1037571 -0.148297E-05  0.289E-03    1.80       5.5  T
   6    -68.1037572 -0.800344E-07  0.214E-03    1.80       7.4  T
   7    -68.1037572 -0.364240E-07  0.128E-03    1.80      12.3  T
   8    -68.1037572 -0.216129E-07  0.587E-04    1.80      26.9  T
   9    -68.1037573 -0.254200E-08  0.340E-04    1.80      46.5  T
     SCC iter.                  ...        0 min,  0.161 sec
     gradient                   ...        0 min,  0.009 sec
 * total energy  :   -67.1721060 Eh     change       -0.2300482E-03 Eh
   gradient norm :     0.0103541 Eh/α   predicted    -0.2489086E-03 (   8.20%)
   displ. norm   :     0.4571106 α      lambda       -0.6053939E-03
   maximum displ.:     0.2704663 α      in ANC's #4, #6, #2, ...

........................................................................
.............................. CYCLE   13 ..............................
........................................................................
   1    -68.1076155 -0.681076E+02  0.169E-01    1.80       0.0  T
   2    -68.1076216 -0.607204E-05  0.952E-02    1.80       1.0  T
   3    -68.1076175  0.414464E-05  0.181E-02    1.80       1.0  T
   4    -68.1076231 -0.559945E-05  0.838E-03    1.80       1.9  T
   5    -68.1076237 -0.629723E-06  0.258E-03    1.80       6.1  T
   6    -68.1076238 -0.117770E-06  0.127E-03    1.80      12.5  T
   7    -68.1076238 -0.129198E-07  0.841E-04    1.80      18.8  T
   8    -68.1076238 -0.541684E-08  0.400E-04    1.80      39.5  T
     SCC iter.                  ...        0 min,  0.145 sec
     gradient                   ...        0 min,  0.008 sec
 * total energy  :   -67.1725094 Eh     change       -0.4034551E-03 Eh
   gradient norm :     0.0068316 Eh/α   predicted    -0.3659472E-03 (  -9.30%)
   displ. norm   :     0.5731987 α      lambda       -0.3873136E-03
   maximum displ.:     0.3490954 α      in ANC's #4, #6, #2, ...

........................................................................
.............................. CYCLE   14 ..............................
........................................................................
   1    -68.1018459 -0.681018E+02  0.215E-01    1.78       0.0  T
   2    -68.1018533 -0.744107E-05  0.121E-01    1.78       1.0  T
   3    -68.1018521  0.121078E-05  0.182E-02    1.78       1.0  T
   4    -68.1018542 -0.209490E-05  0.986E-03    1.78       1.6  T
   5    -68.1018559 -0.162842E-05  0.207E-03    1.78       7.6  T
   6    -68.1018559 -0.472210E-07  0.143E-03    1.78      11.0  T
   7    -68.1018559 -0.149211E-07  0.870E-04    1.78      18.2  T
   8    -68.1018559 -0.798050E-08  0.454E-04    1.78      34.8  T
     SCC iter.                  ...        0 min,  0.148 sec
     gradient                   ...        0 min,  0.010 sec
 * total energy  :   -67.1727938 Eh     change       -0.2844420E-03 Eh
   gradient norm :     0.0098727 Eh/α   predicted    -0.2572884E-03 (  -9.55%)
   displ. norm   :     0.4513529 α      lambda       -0.5265667E-03
   maximum displ.:     0.2608100 α      in ANC's #4, #13, #2, ...

........................................................................
.............................. CYCLE   15 ..............................
........................................................................
   1    -68.1030605 -0.681031E+02  0.175E-01    1.77       0.0  T
   2    -68.1030667 -0.621055E-05  0.990E-02    1.77       1.0  T
   3    -68.1030652  0.156097E-05  0.181E-02    1.77       1.0  T
   4    -68.1030690 -0.388771E-05  0.103E-02    1.77       1.5  T
   5    -68.1030701 -0.105621E-05  0.482E-03    1.77       3.3  T
   6    -68.1030703 -0.181345E-06  0.368E-03    1.77       4.3  T
   7    -68.1030704 -0.138424E-06  0.189E-03    1.77       8.4  T
   8    -68.1030705 -0.500944E-07  0.553E-04    1.77      28.6  T
   9    -68.1030705 -0.217064E-08  0.326E-04    1.77      48.4  T
     SCC iter.                  ...        0 min,  0.157 sec
     gradient                   ...        0 min,  0.008 sec
 * total energy  :   -67.1731061 Eh     change       -0.3122210E-03 Eh
   gradient norm :     0.0076565 Eh/α   predicted    -0.3169245E-03 (   1.51%)
   displ. norm   :     0.4613167 α      lambda       -0.3031110E-03
   maximum displ.:     0.2869339 α      in ANC's #4, #6, #2, ...

........................................................................
.............................. CYCLE   16 ..............................
........................................................................
   1    -68.0977105 -0.680977E+02  0.175E-01    1.76       0.0  T
   2    -68.0977161 -0.564258E-05  0.992E-02    1.76       1.0  T
   3    -68.0977110  0.513154E-05  0.187E-02    1.76       1.0  T
   4    -68.0977179 -0.689887E-05  0.860E-03    1.76       1.8  T
   5    -68.0977185 -0.574165E-06  0.310E-03    1.76       5.1  T
   6    -68.0977186 -0.170014E-06  0.177E-03    1.76       8.9  T
   7    -68.0977187 -0.175744E-07  0.117E-03    1.76      13.5  T
   8    -68.0977187 -0.177205E-07  0.515E-04    1.76      30.7  T
   9    -68.0977187 -0.201636E-08  0.326E-04    1.76      48.6  T
     SCC iter.                  ...        0 min,  0.156 sec
     gradient                   ...        0 min,  0.009 sec
 * total energy  :   -67.1732165 Eh     change       -0.1104611E-03 Eh
   gradient norm :     0.0112473 Eh/α   predicted    -0.1838281E-03 (  66.42%)
   displ. norm   :     0.1533653 α      lambda       -0.3432418E-03
   maximum displ.:     0.0741577 α      in ANC's #4, #11, #13, ...

........................................................................
.............................. CYCLE   17 ..............................
........................................................................
   1    -68.1056278 -0.681056E+02  0.586E-02    1.77       0.0  T
   2    -68.1056296 -0.175668E-05  0.331E-02    1.77       1.0  T
   3    -68.1056265  0.305232E-05  0.123E-02    1.77       1.3  T
   4    -68.1056305 -0.397663E-05  0.377E-03    1.77       4.2  T
   5    -68.1056305 -0.502233E-07  0.213E-03    1.77       7.4  T
   6    -68.1056306 -0.568853E-07  0.130E-03    1.77      12.1  T
   7    -68.1056306 -0.134221E-07  0.897E-04    1.77      17.6  T
   8    -68.1056306 -0.821838E-08  0.364E-04    1.77      43.4  T
     SCC iter.                  ...        0 min,  0.147 sec
     gradient                   ...        0 min,  0.009 sec
 * total energy  :   -67.1733926 Eh     change       -0.1761169E-03 Eh
   gradient norm :     0.0080634 Eh/α   predicted    -0.1756580E-03 (  -0.26%)
   displ. norm   :     0.2697046 α      lambda       -0.2503859E-03
   maximum displ.:     0.1652170 α      in ANC's #4, #6, #2, ...

........................................................................
.............................. CYCLE   18 ..............................
........................................................................
   1    -68.1074955 -0.681075E+02  0.900E-02    1.78       0.0  T
   2    -68.1074983 -0.282685E-05  0.510E-02    1.78       1.0  T
   3    -68.1074942  0.410117E-05  0.144E-02    1.78       1.1  T
   4    -68.1074995 -0.524798E-05  0.468E-03    1.78       3.4  T
   5    -68.1074995 -0.431184E-07  0.233E-03    1.78       6.8  T
   6    -68.1074996 -0.109152E-06  0.963E-04    1.78      16.4  T
   7    -68.1074996 -0.537841E-08  0.704E-04    1.78      22.5  T
     SCC iter.                  ...        0 min,  0.121 sec
     gradient                   ...        0 min,  0.008 sec
 * total energy  :   -67.1734968 Eh     change       -0.1041043E-03 Eh
   gradient norm :     0.0092842 Eh/α   predicted    -0.1343006E-03 (  29.01%)
   displ. norm   :     0.3201652 α      lambda       -0.2354106E-03
   maximum displ.:     0.1970462 α      in ANC's #4, #6, #2, ...

........................................................................
.............................. CYCLE   19 ..............................
........................................................................
   1    -68.1063213 -0.681063E+02  0.107E-01    1.77       0.0  T
   2    -68.1063240 -0.269870E-05  0.602E-02    1.77       1.0  T
   3    -68.1063228  0.116227E-05  0.108E-02    1.77       1.5  T
   4    -68.1063245 -0.164755E-05  0.533E-03    1.77       3.0  T
   5    -68.1063248 -0.308500E-06  0.201E-03    1.77       7.9  T
   6    -68.1063248 -0.698998E-07  0.108E-03    1.77      14.6  T
   7    -68.1063249 -0.866640E-08  0.777E-04    1.77      20.4  T
   8    -68.1063249 -0.622089E-08  0.356E-04    1.77      44.4  T
     SCC iter.                  ...        0 min,  0.139 sec
     gradient                   ...        0 min,  0.009 sec
 * total energy  :   -67.1736530 Eh     change       -0.1562336E-03 Eh
   gradient norm :     0.0052458 Eh/α   predicted    -0.1297759E-03 ( -16.93%)
   displ. norm   :     0.4082243 α      lambda       -0.1911354E-03
   maximum displ.:     0.2489327 α      in ANC's #4, #6, #2, ...

........................................................................
.............................. CYCLE   20 ..............................
........................................................................
   1    -68.1033178 -0.681033E+02  0.136E-01    1.77       0.0  T
   2    -68.1033225 -0.465813E-05  0.763E-02    1.76       1.0  T
   3    -68.1033205  0.194416E-05  0.138E-02    1.76       1.1  T
   4    -68.1033230 -0.246431E-05  0.721E-03    1.76       2.2  T
   5    -68.1033237 -0.745311E-06  0.259E-03    1.76       6.1  T
   6    -68.1033238 -0.636977E-07  0.155E-03    1.76      10.2  T
   7    -68.1033238 -0.201039E-07  0.114E-03    1.76      13.9  T
   8    -68.1033238 -0.135825E-07  0.488E-04    1.76      32.4  T
   9    -68.1033238 -0.311775E-08  0.247E-04    1.76      64.1  T
     SCC iter.                  ...        0 min,  0.155 sec
     gradient                   ...        0 min,  0.008 sec
 * total energy  :   -67.1737439 Eh     change       -0.9088332E-04 Eh
   gradient norm :     0.0077598 Eh/α   predicted    -0.1114974E-03 (  22.68%)
   displ. norm   :     0.1996038 α      lambda       -0.1842250E-03
   maximum displ.:     0.0772872 α      in ANC's #3, #11, #5, ...
 * RMSD in coord.:     0.9195919 α      energy gain  -0.1519143E-01 Eh

generating ANC from model Hessian ...
Using Lindh-Hessian (1995)
 Shifting diagonal of input Hessian by    1.0067279847666121E-002
 Lowest  eigenvalues of input Hessian
    0.010000    0.000000    0.000000    0.000000    0.000000    0.000000
    0.000000    0.010174    0.010447    0.010564    0.010715    0.011356
    0.011655    0.012200    0.012968    0.014575    0.015391    0.015698
 Highest eigenvalues
    1.851991    1.894236    1.923239    1.990290    2.008962    2.036424


........................................................................
.............................. CYCLE   21 ..............................
........................................................................
   1    -68.1112500 -0.681112E+02  0.526E-02    1.78       0.0  T
   2    -68.1112526 -0.264298E-05  0.300E-02    1.78       1.0  T
   3    -68.1112510  0.160064E-05  0.106E-02    1.78       1.5  T
   4    -68.1112534 -0.239836E-05  0.444E-03    1.78       3.6  T
   5    -68.1112536 -0.181178E-06  0.266E-03    1.78       5.9  T
   6    -68.1112537 -0.624607E-07  0.176E-03    1.78       9.0  T
   7    -68.1112537 -0.275480E-07  0.118E-03    1.78      13.4  T
   8    -68.1112537 -0.168241E-07  0.396E-04    1.78      39.9  T
   9    -68.1112537 -0.241440E-08  0.161E-04    1.78      97.9  T
     SCC iter.                  ...        0 min,  0.154 sec
     gradient                   ...        0 min,  0.010 sec
 * total energy  :   -67.1737852 Eh     change       -0.4137563E-04 Eh
   gradient norm :     0.0090955 Eh/α   predicted     0.0000000E+00 (-100.00%)
   displ. norm   :     0.0488441 α      lambda       -0.1112784E-03
   maximum displ.:     0.0211587 α      in ANC's #14, #13, #11, ...

........................................................................
.............................. CYCLE   22 ..............................
........................................................................
   1    -68.1095624 -0.681096E+02  0.270E-02    1.78       0.0  T
   2    -68.1095631 -0.698606E-06  0.155E-02    1.78       1.0  T
   3    -68.1095627  0.401462E-06  0.501E-03    1.78       3.2  T
   4    -68.1095633 -0.571199E-06  0.159E-03    1.78       9.9  T
   5    -68.1095633 -0.140097E-07  0.822E-04    1.78      19.2  T
   6    -68.1095633 -0.100018E-07  0.404E-04    1.78      39.1  T
     SCC iter.                  ...        0 min,  0.105 sec
     gradient                   ...        0 min,  0.010 sec
 * total energy  :   -67.1738782 Eh     change       -0.9299841E-04 Eh
   gradient norm :     0.0035226 Eh/α   predicted    -0.7021202E-04 ( -24.50%)
   displ. norm   :     0.0633168 α      lambda       -0.5465393E-04
   maximum displ.:     0.0259852 α      in ANC's #14, #13, #6, ...

........................................................................
.............................. CYCLE   23 ..............................
........................................................................
   1    -68.1084819 -0.681085E+02  0.265E-02    1.77       0.0  T
   2    -68.1084823 -0.401195E-06  0.150E-02    1.77       1.1  T
   3    -68.1084819  0.410196E-06  0.475E-03    1.77       3.3  T
   4    -68.1084825 -0.558900E-06  0.186E-03    1.77       8.5  T
   5    -68.1084825 -0.230479E-07  0.104E-03    1.77      15.2  T
   6    -68.1084825 -0.126382E-07  0.668E-04    1.77      23.7  T
   7    -68.1084825 -0.336740E-08  0.463E-04    1.77      34.1  T
     SCC iter.                  ...        0 min,  0.124 sec
     gradient                   ...        0 min,  0.010 sec
 * total energy  :   -67.1739164 Eh     change       -0.3813484E-04 Eh
   gradient norm :     0.0018410 Eh/α   predicted    -0.2744272E-04 ( -28.04%)
   displ. norm   :     0.1362078 α      lambda       -0.4023717E-04
   maximum displ.:     0.0485446 α      in ANC's #13, #6, #14, ...

........................................................................
.............................. CYCLE   24 ..............................
........................................................................
   1    -68.1075221 -0.681075E+02  0.533E-02    1.76       0.0  T
   2    -68.1075230 -0.896172E-06  0.303E-02    1.77       1.0  T
   3    -68.1075219  0.113277E-05  0.824E-03    1.77       1.9  T
   4    -68.1075234 -0.157747E-05  0.376E-03    1.77       4.2  T
   5    -68.1075235 -0.109744E-06  0.198E-03    1.77       8.0  T
   6    -68.1075236 -0.323328E-07  0.144E-03    1.77      11.0  T
   7    -68.1075236 -0.199198E-07  0.876E-04    1.77      18.0  T
   8    -68.1075236 -0.959861E-08  0.216E-04    1.77      73.2  T
     SCC iter.                  ...        0 min,  0.137 sec
     gradient                   ...        0 min,  0.009 sec
 * total energy  :   -67.1739551 Eh     change       -0.3874485E-04 Eh
   gradient norm :     0.0038332 Eh/α   predicted    -0.2035026E-04 ( -47.48%)
   displ. norm   :     0.0948425 α      lambda       -0.3430509E-04
   maximum displ.:     0.0354781 α      in ANC's #3, #4, #1, ...

........................................................................
.............................. CYCLE   25 ..............................
........................................................................
   1    -68.1076926 -0.681077E+02  0.345E-02    1.76       0.0  T
   2    -68.1076928 -0.276134E-06  0.197E-02    1.76       1.0  T
   3    -68.1076927  0.165386E-06  0.439E-03    1.76       3.6  T
   4    -68.1076930 -0.315525E-06  0.251E-03    1.76       6.3  T
   5    -68.1076930 -0.612865E-07  0.133E-03    1.76      11.9  T
   6    -68.1076931 -0.122112E-07  0.989E-04    1.76      16.0  T
   7    -68.1076931 -0.103098E-07  0.480E-04    1.76      32.9  T
     SCC iter.                  ...        0 min,  0.121 sec
     gradient                   ...        0 min,  0.009 sec
 * total energy  :   -67.1739848 Eh     change       -0.2967582E-04 Eh
   gradient norm :     0.0034389 Eh/α   predicted    -0.1730750E-04 ( -41.68%)
   displ. norm   :     0.2364776 α      lambda       -0.7463281E-04
   maximum displ.:     0.0934809 α      in ANC's #4, #3, #1, ...

........................................................................
.............................. CYCLE   26 ..............................
........................................................................
   1    -68.1080011 -0.681080E+02  0.824E-02    1.76       0.0  T
   2    -68.1080026 -0.149186E-05  0.470E-02    1.76       1.0  T
   3    -68.1080019  0.665179E-06  0.999E-03    1.76       1.6  T
   4    -68.1080034 -0.148129E-05  0.599E-03    1.76       2.6  T
   5    -68.1080038 -0.358858E-06  0.316E-03    1.76       5.0  T
   6    -68.1080038 -0.741678E-07  0.239E-03    1.76       6.6  T
   7    -68.1080039 -0.651158E-07  0.961E-04    1.76      16.5  T
   8    -68.1080039 -0.144908E-07  0.264E-04    1.76      60.0  T
     SCC iter.                  ...        0 min,  0.142 sec
     gradient                   ...        0 min,  0.010 sec
 * total energy  :   -67.1740341 Eh     change       -0.4929173E-04 Eh
   gradient norm :     0.0032163 Eh/α   predicted    -0.3940718E-04 ( -20.05%)
   displ. norm   :     0.1355964 α      lambda       -0.3236947E-04
   maximum displ.:     0.0622738 α      in ANC's #4, #3, #2, ...

........................................................................
.............................. CYCLE   27 ..............................
........................................................................
   1    -68.1084920 -0.681085E+02  0.434E-02    1.77       0.0  T
   2    -68.1084923 -0.359932E-06  0.247E-02    1.77       1.0  T
   3    -68.1084920  0.309130E-06  0.523E-03    1.77       3.0  T
   4    -68.1084925 -0.490394E-06  0.286E-03    1.77       5.5  T
   5    -68.1084926 -0.816576E-07  0.136E-03    1.77      11.6  T
   6    -68.1084926 -0.129727E-07  0.105E-03    1.77      15.1  T
   7    -68.1084926 -0.121961E-07  0.439E-04    1.77      36.0  T
   8    -68.1084926 -0.288607E-08  0.152E-04    1.77     104.1  T
     SCC iter.                  ...        0 min,  0.142 sec
     gradient                   ...        0 min,  0.009 sec
 * total energy  :   -67.1740608 Eh     change       -0.2673555E-04 Eh
   gradient norm :     0.0028850 Eh/α   predicted    -0.1648666E-04 ( -38.33%)
   displ. norm   :     0.1999486 α      lambda       -0.5736711E-04
   maximum displ.:     0.0969845 α      in ANC's #4, #7, #3, ...

........................................................................
.............................. CYCLE   28 ..............................
........................................................................
   1    -68.1093603 -0.681094E+02  0.589E-02    1.77       0.0  T
   2    -68.1093611 -0.722416E-06  0.333E-02    1.77       1.0  T
   3    -68.1093601  0.950804E-06  0.754E-03    1.77       2.1  T
   4    -68.1093613 -0.122627E-05  0.347E-03    1.77       4.6  T
   5    -68.1093614 -0.119397E-06  0.137E-03    1.77      11.6  T
   6    -68.1093615 -0.126549E-07  0.102E-03    1.77      15.5  T
   7    -68.1093615 -0.867337E-08  0.673E-04    1.77      23.5  T
   8    -68.1093615 -0.535387E-08  0.239E-04    1.77      66.2  T
     SCC iter.                  ...        0 min,  0.139 sec
     gradient                   ...        0 min,  0.009 sec
 * total energy  :   -67.1741066 Eh     change       -0.4575700E-04 Eh
   gradient norm :     0.0021906 Eh/α   predicted    -0.2983087E-04 ( -34.81%)
   displ. norm   :     0.2703094 α      lambda       -0.6063513E-04
   maximum displ.:     0.1308569 α      in ANC's #4, #7, #2, ...

........................................................................
.............................. CYCLE   29 ..............................
........................................................................
   1    -68.1091879 -0.681092E+02  0.777E-02    1.77       0.0  T
   2    -68.1091890 -0.111432E-05  0.439E-02    1.77       1.0  T
   3    -68.1091880  0.101447E-05  0.863E-03    1.77       1.8  T
   4    -68.1091893 -0.128802E-05  0.440E-03    1.77       3.6  T
   5    -68.1091896 -0.248401E-06  0.143E-03    1.77      11.0  T
   6    -68.1091896 -0.117469E-07  0.107E-03    1.77      14.8  T
   7    -68.1091896 -0.828436E-08  0.738E-04    1.77      21.4  T
   8    -68.1091896 -0.681516E-08  0.276E-04    1.77      57.4  T
     SCC iter.                  ...        0 min,  0.136 sec
     gradient                   ...        0 min,  0.010 sec
 * total energy  :   -67.1741571 Eh     change       -0.5051027E-04 Eh
   gradient norm :     0.0027910 Eh/α   predicted    -0.3253340E-04 ( -35.59%)
   displ. norm   :     0.3379398 α      lambda       -0.6714448E-04
   maximum displ.:     0.1619934 α      in ANC's #4, #7, #2, ...

........................................................................
.............................. CYCLE   30 ..............................
........................................................................
   1    -68.1084670 -0.681085E+02  0.936E-02    1.77       0.0  T
   2    -68.1084684 -0.141144E-05  0.529E-02    1.77       1.0  T
   3    -68.1084678  0.565585E-06  0.879E-03    1.77       1.8  T
   4    -68.1084686 -0.769854E-06  0.520E-03    1.77       3.0  T
   5    -68.1084690 -0.437174E-06  0.168E-03    1.77       9.4  T
   6    -68.1084690 -0.193817E-07  0.129E-03    1.77      12.3  T
   7    -68.1084690 -0.141902E-07  0.787E-04    1.77      20.1  T
   8    -68.1084690 -0.816112E-08  0.296E-04    1.77      53.4  T
     SCC iter.                  ...        0 min,  0.137 sec
     gradient                   ...        0 min,  0.008 sec
 * total energy  :   -67.1742144 Eh     change       -0.5735129E-04 Eh
   gradient norm :     0.0037373 Eh/α   predicted    -0.3740939E-04 ( -34.77%)
   displ. norm   :     0.5130769 α      lambda       -0.9680182E-04
   maximum displ.:     0.2434720 α      in ANC's #4, #7, #2, ...

........................................................................
.............................. CYCLE   31 ..............................
........................................................................
   1    -68.1070580 -0.681071E+02  0.137E-01    1.77       0.0  T
   2    -68.1070607 -0.278420E-05  0.774E-02    1.77       1.0  T
   3    -68.1070603  0.453989E-06  0.116E-02    1.77       1.4  T
   4    -68.1070611 -0.781531E-06  0.718E-03    1.77       2.2  T
   5    -68.1070620 -0.925142E-06  0.239E-03    1.77       6.6  T
   6    -68.1070620 -0.470917E-07  0.184E-03    1.77       8.6  T
   7    -68.1070621 -0.353186E-07  0.875E-04    1.77      18.1  T
   8    -68.1070621 -0.992458E-08  0.401E-04    1.77      39.4  T
     SCC iter.                  ...        0 min,  0.133 sec
     gradient                   ...        0 min,  0.009 sec
 * total energy  :   -67.1742908 Eh     change       -0.7635974E-04 Eh
   gradient norm :     0.0047441 Eh/α   predicted    -0.6114442E-04 ( -19.93%)
   displ. norm   :     0.4432648 α      lambda       -0.8995253E-04
   maximum displ.:     0.2046369 α      in ANC's #4, #2, #7, ...

........................................................................
.............................. CYCLE   32 ..............................
........................................................................
   1    -68.1070832 -0.681071E+02  0.111E-01    1.77       0.0  T
   2    -68.1070851 -0.182418E-05  0.627E-02    1.77       1.0  T
   3    -68.1070852 -0.126094E-06  0.878E-03    1.77       1.8  T
   4    -68.1070852 -0.173197E-07  0.560E-03    1.77       2.8  T
   5    -68.1070859 -0.664535E-06  0.187E-03    1.77       8.5  T
   6    -68.1070859 -0.189985E-07  0.144E-03    1.77      11.0  T
   7    -68.1070859 -0.228365E-07  0.671E-04    1.77      23.6  T
   8    -68.1070859 -0.600699E-08  0.341E-04    1.77      46.4  T
     SCC iter.                  ...        0 min,  0.135 sec
     gradient                   ...        0 min,  0.009 sec
 * total energy  :   -67.1743602 Eh     change       -0.6938970E-04 Eh
   gradient norm :     0.0043675 Eh/α   predicted    -0.5381410E-04 ( -22.45%)
   displ. norm   :     0.4304031 α      lambda       -0.9171159E-04
   maximum displ.:     0.1936119 α      in ANC's #2, #4, #3, ...

........................................................................
.............................. CYCLE   33 ..............................
........................................................................
   1    -68.1068689 -0.681069E+02  0.108E-01    1.76       0.0  T
   2    -68.1068711 -0.217869E-05  0.614E-02    1.76       1.0  T
   3    -68.1068707  0.406591E-06  0.102E-02    1.76       1.5  T
   4    -68.1068717 -0.959983E-06  0.634E-03    1.76       2.5  T
   5    -68.1068722 -0.578095E-06  0.266E-03    1.76       6.0  T
   6    -68.1068723 -0.448833E-07  0.204E-03    1.76       7.7  T
   7    -68.1068723 -0.422187E-07  0.115E-03    1.76      13.8  T
   8    -68.1068723 -0.175978E-07  0.386E-04    1.76      40.9  T
   9    -68.1068724 -0.126582E-08  0.239E-04    1.76      66.2  T
     SCC iter.                  ...        0 min,  0.152 sec
     gradient                   ...        0 min,  0.010 sec
 * total energy  :   -67.1744328 Eh     change       -0.7265497E-04 Eh
   gradient norm :     0.0037788 Eh/α   predicted    -0.5435114E-04 ( -25.19%)
   displ. norm   :     0.3772168 α      lambda       -0.1366347E-03
   maximum displ.:     0.1876668 α      in ANC's #2, #3, #4, ...

........................................................................
.............................. CYCLE   34 ..............................
........................................................................
   1    -68.1126615 -0.681127E+02  0.908E-02    1.77       0.0  T
   2    -68.1126647 -0.318581E-05  0.511E-02    1.77       1.0  T
   3    -68.1126627  0.197427E-05  0.125E-02    1.77       1.3  T
   4    -68.1126655 -0.281333E-05  0.616E-03    1.77       2.6  T
   5    -68.1126659 -0.399040E-06  0.289E-03    1.77       5.5  T
   6    -68.1126660 -0.646008E-07  0.198E-03    1.77       8.0  T
   7    -68.1126660 -0.352150E-07  0.134E-03    1.77      11.8  T
   8    -68.1126661 -0.213695E-07  0.427E-04    1.77      37.0  T
   9    -68.1126661 -0.218111E-08  0.244E-04    1.77      64.7  T
     SCC iter.                  ...        0 min,  0.150 sec
     gradient                   ...        0 min,  0.010 sec
 * total energy  :   -67.1744737 Eh     change       -0.4080918E-04 Eh
   gradient norm :     0.0059992 Eh/α   predicted    -0.7804893E-04 (  91.25%)
   displ. norm   :     0.4928589 α      lambda       -0.1418880E-03
   maximum displ.:     0.2241326 α      in ANC's #2, #3, #4, ...

........................................................................
.............................. CYCLE   35 ..............................
........................................................................
   1    -68.1074008 -0.681074E+02  0.129E-01    1.76       0.0  T
   2    -68.1074046 -0.382681E-05  0.737E-02    1.76       1.0  T
   3    -68.1074004  0.423871E-05  0.162E-02    1.76       1.0  T
   4    -68.1074066 -0.619131E-05  0.759E-03    1.76       2.1  T
   5    -68.1074069 -0.335275E-06  0.393E-03    1.76       4.0  T
   6    -68.1074071 -0.192377E-06  0.278E-03    1.76       5.7  T
   7    -68.1074072 -0.820686E-07  0.122E-03    1.76      13.0  T
   8    -68.1074072 -0.205701E-07  0.464E-04    1.76      34.1  T
   9    -68.1074072 -0.102894E-08  0.249E-04    1.76      63.4  T
     SCC iter.                  ...        0 min,  0.154 sec
     gradient                   ...        0 min,  0.009 sec
 * total energy  :   -67.1745517 Eh     change       -0.7806761E-04 Eh
   gradient norm :     0.0061402 Eh/α   predicted    -0.8818100E-04 (  12.95%)
   displ. norm   :     0.1069633 α      lambda       -0.4711416E-04
   maximum displ.:     0.0581620 α      in ANC's #2, #3, #1, ...

........................................................................
.............................. CYCLE   36 ..............................
........................................................................
   1    -68.1078573 -0.681079E+02  0.222E-02    1.77       0.0  T
   2    -68.1078575 -0.189810E-06  0.127E-02    1.77       1.2  T
   3    -68.1078574  0.134944E-06  0.325E-03    1.77       4.9  T
   4    -68.1078576 -0.221581E-06  0.164E-03    1.77       9.6  T
   5    -68.1078576 -0.210289E-07  0.912E-04    1.77      17.3  T
   6    -68.1078576 -0.663935E-08  0.649E-04    1.77      24.4  T
     SCC iter.                  ...        0 min,  0.105 sec
     gradient                   ...        0 min,  0.009 sec
 * total energy  :   -67.1745934 Eh     change       -0.4171310E-04 Eh
   gradient norm :     0.0045324 Eh/α   predicted    -0.2383186E-04 ( -42.87%)
   displ. norm   :     0.3707536 α      lambda       -0.1372607E-03
   maximum displ.:     0.2033940 α      in ANC's #2, #3, #1, ...

........................................................................
.............................. CYCLE   37 ..............................
........................................................................
   1    -68.1100466 -0.681100E+02  0.727E-02    1.78       0.0  T
   2    -68.1100487 -0.209344E-05  0.416E-02    1.78       1.0  T
   3    -68.1100474  0.136831E-05  0.114E-02    1.78       1.4  T
   4    -68.1100499 -0.255386E-05  0.624E-03    1.78       2.5  T
   5    -68.1100502 -0.324757E-06  0.348E-03    1.78       4.5  T
   6    -68.1100503 -0.914037E-07  0.249E-03    1.78       6.3  T
   7    -68.1100504 -0.653396E-07  0.128E-03    1.78      12.3  T
   8    -68.1100504 -0.213494E-07  0.403E-04    1.78      39.2  T
   9    -68.1100504 -0.236770E-08  0.215E-04    1.78      73.7  T
     SCC iter.                  ...        0 min,  0.153 sec
     gradient                   ...        0 min,  0.009 sec
 * total energy  :   -67.1746888 Eh     change       -0.9533719E-04 Eh
   gradient norm :     0.0024951 Eh/α   predicted    -0.7807124E-04 ( -18.11%)
   displ. norm   :     0.5180782 α      lambda       -0.8315490E-04
   maximum displ.:     0.2732411 α      in ANC's #2, #3, #1, ...

........................................................................
.............................. CYCLE   38 ..............................
........................................................................
   1    -68.1084161 -0.681084E+02  0.105E-01    1.79       0.0  T
   2    -68.1084188 -0.266296E-05  0.602E-02    1.79       1.0  T
   3    -68.1084189 -0.157132E-06  0.115E-02    1.79       1.4  T
   4    -68.1084202 -0.122209E-05  0.795E-03    1.79       2.0  T
   5    -68.1084210 -0.803392E-06  0.400E-03    1.79       4.0  T
   6    -68.1084211 -0.891676E-07  0.286E-03    1.79       5.5  T
   7    -68.1084212 -0.116920E-06  0.932E-04    1.79      17.0  T
   8    -68.1084212 -0.113155E-07  0.419E-04    1.79      37.7  T
     SCC iter.                  ...        0 min,  0.134 sec
     gradient                   ...        0 min,  0.009 sec
 * total energy  :   -67.1747522 Eh     change       -0.6338411E-04 Eh
   gradient norm :     0.0040398 Eh/α   predicted    -0.5274223E-04 ( -16.79%)
   displ. norm   :     0.4864622 α      lambda       -0.9664839E-04
   maximum displ.:     0.2706375 α      in ANC's #2, #3, #1, ...

........................................................................
.............................. CYCLE   39 ..............................
........................................................................
   1    -68.1093033 -0.681093E+02  0.898E-02    1.79       0.0  T
   2    -68.1093059 -0.257554E-05  0.517E-02    1.79       1.0  T
   3    -68.1093063 -0.424610E-06  0.118E-02    1.79       1.3  T
   4    -68.1093076 -0.134479E-05  0.846E-03    1.79       1.9  T
   5    -68.1093085 -0.851681E-06  0.445E-03    1.79       3.6  T
   6    -68.1093086 -0.155295E-06  0.271E-03    1.79       5.8  T
   7    -68.1093087 -0.890894E-07  0.928E-04    1.79      17.0  T
   8    -68.1093087 -0.155957E-07  0.389E-04    1.79      40.6  T
     SCC iter.                  ...        0 min,  0.136 sec
     gradient                   ...        0 min,  0.009 sec
 * total energy  :   -67.1748301 Eh     change       -0.7793074E-04 Eh
   gradient norm :     0.0043706 Eh/α   predicted    -0.5976352E-04 ( -23.31%)
   displ. norm   :     0.4900689 α      lambda       -0.1243357E-03
   maximum displ.:     0.2835329 α      in ANC's #2, #3, #1, ...

........................................................................
.............................. CYCLE   40 ..............................
........................................................................
   1    -68.1110583 -0.681111E+02  0.862E-02    1.79       0.0  T
   2    -68.1110608 -0.253920E-05  0.496E-02    1.79       1.0  T
   3    -68.1110615 -0.713145E-06  0.116E-02    1.79       1.4  T
   4    -68.1110626 -0.104604E-05  0.849E-03    1.79       1.9  T
   5    -68.1110635 -0.885513E-06  0.454E-03    1.79       3.5  T
   6    -68.1110636 -0.161543E-06  0.290E-03    1.79       5.5  T
   7    -68.1110637 -0.101716E-06  0.840E-04    1.79      18.8  T
   8    -68.1110638 -0.132972E-07  0.367E-04    1.79      43.0  T
     SCC iter.                  ...        0 min,  0.139 sec
     gradient                   ...        0 min,  0.010 sec
 * total energy  :   -67.1749337 Eh     change       -0.1035946E-03 Eh
   gradient norm :     0.0036212 Eh/α   predicted    -0.7710101E-04 ( -25.57%)
   displ. norm   :     0.6933655 α      lambda       -0.1599502E-03
   maximum displ.:     0.4002917 α      in ANC's #2, #3, #1, ...

........................................................................
.............................. CYCLE   41 ..............................
........................................................................
   1    -68.1096293 -0.681096E+02  0.124E-01    1.79       0.0  T
   2    -68.1096343 -0.501334E-05  0.715E-02    1.79       1.0  T
   3    -68.1096337  0.664916E-06  0.176E-02    1.79       1.0  T
   4    -68.1096383 -0.464927E-05  0.117E-02    1.79       1.4  T
   5    -68.1096396 -0.131902E-05  0.640E-03    1.79       2.5  T
   6    -68.1096399 -0.290773E-06  0.457E-03    1.79       3.5  T
   7    -68.1096402 -0.289996E-06  0.107E-03    1.79      14.8  T
   8    -68.1096402 -0.162398E-07  0.524E-04    1.79      30.2  T
   9    -68.1096402 -0.525745E-09  0.255E-04    1.79      62.1  T
     SCC iter.                  ...        0 min,  0.155 sec
     gradient                   ...        0 min,  0.010 sec
 * total energy  :   -67.1750591 Eh     change       -0.1253782E-03 Eh
   gradient norm :     0.0042660 Eh/α   predicted    -0.1184289E-03 (  -5.54%)
   displ. norm   :     0.4815089 α      lambda       -0.2342930E-03
   maximum displ.:     0.2717732 α      in ANC's #2, #3, #6, ...

........................................................................
.............................. CYCLE   42 ..............................
........................................................................
   1    -68.1144602 -0.681145E+02  0.117E-01    1.78       0.0  T
   2    -68.1144655 -0.537079E-05  0.675E-02    1.78       1.0  T
   3    -68.1144627  0.279441E-05  0.177E-02    1.78       1.0  T
   4    -68.1144687 -0.594961E-05  0.102E-02    1.78       1.5  T
   5    -68.1144696 -0.868353E-06  0.602E-03    1.78       2.6  T
   6    -68.1144698 -0.287957E-06  0.430E-03    1.78       3.7  T
   7    -68.1144701 -0.208341E-06  0.204E-03    1.78       7.7  T
   8    -68.1144701 -0.577120E-07  0.585E-04    1.78      27.0  T
   9    -68.1144701 -0.370433E-08  0.316E-04    1.78      50.1  T
     SCC iter.                  ...        0 min,  0.155 sec
     gradient                   ...        0 min,  0.010 sec
 * total energy  :   -67.1751075 Eh     change       -0.4841866E-04 Eh
   gradient norm :     0.0087513 Eh/α   predicted    -0.1443093E-03 ( 198.04%)
   displ. norm   :     0.5082014 α      lambda       -0.2655316E-03
   maximum displ.:     0.2928891 α      in ANC's #2, #3, #6, ...
 * RMSD in coord.:     1.0898108 α      energy gain  -0.1363613E-02 Eh

generating ANC from model Hessian ...
Using Lindh-Hessian (1995)
 Shifting diagonal of input Hessian by    1.0023781297998422E-002
 Lowest  eigenvalues of input Hessian
    0.010000    0.000000    0.000000    0.000000    0.000000    0.000000
    0.000000    0.010185    0.010342    0.010620    0.010675    0.011019
    0.011583    0.012073    0.012931    0.014498    0.015275    0.015684
 Highest eigenvalues
    1.849885    1.903019    1.908787    1.988199    2.011175    2.035864


........................................................................
.............................. CYCLE   43 ..............................
........................................................................
   1    -68.1089356 -0.681089E+02  0.958E-02    1.78       0.0  T
   2    -68.1089389 -0.323424E-05  0.549E-02    1.78       1.0  T
   3    -68.1089387  0.121013E-06  0.108E-02    1.78       1.5  T
   4    -68.1089404 -0.160806E-05  0.643E-03    1.78       2.5  T
   5    -68.1089407 -0.326924E-06  0.376E-03    1.78       4.2  T
   6    -68.1089408 -0.111795E-06  0.266E-03    1.78       5.9  T
   7    -68.1089409 -0.654304E-07  0.152E-03    1.78      10.4  T
   8    -68.1089409 -0.351645E-07  0.478E-04    1.78      33.1  T
   9    -68.1089409 -0.246142E-08  0.260E-04    1.78      60.7  T
     SCC iter.                  ...        0 min,  0.155 sec
     gradient                   ...        0 min,  0.009 sec
 * total energy  :   -67.1752379 Eh     change       -0.1303997E-03 Eh
   gradient norm :     0.0068401 Eh/α   predicted     0.0000000E+00 (-100.00%)
   displ. norm   :     0.0502227 α      lambda       -0.9354696E-04
   maximum displ.:     0.0244520 α      in ANC's #6, #3, #11, ...

........................................................................
.............................. CYCLE   44 ..............................
........................................................................
   1    -68.1104306 -0.681104E+02  0.207E-02    1.78       0.0  T
   2    -68.1104309 -0.326990E-06  0.118E-02    1.78       1.3  T
   3    -68.1104308  0.135289E-06  0.311E-03    1.78       5.1  T
   4    -68.1104310 -0.184188E-06  0.133E-03    1.78      11.9  T
   5    -68.1104310 -0.233148E-07  0.618E-04    1.78      25.6  T
   6    -68.1104310 -0.288574E-08  0.356E-04    1.78      44.4  T
     SCC iter.                  ...        0 min,  0.101 sec
     gradient                   ...        0 min,  0.010 sec
 * total energy  :   -67.1753130 Eh     change       -0.7510702E-04 Eh
   gradient norm :     0.0031889 Eh/α   predicted    -0.5320297E-04 ( -29.16%)
   displ. norm   :     0.0793201 α      lambda       -0.6197211E-04
   maximum displ.:     0.0459574 α      in ANC's #6, #3, #11, ...

........................................................................
.............................. CYCLE   45 ..............................
........................................................................
   1    -68.1114077 -0.681114E+02  0.255E-02    1.79       0.0  T
   2    -68.1114080 -0.302318E-06  0.146E-02    1.79       1.1  T
   3    -68.1114078  0.237085E-06  0.366E-03    1.79       4.3  T
   4    -68.1114081 -0.308855E-06  0.152E-03    1.79      10.4  T
   5    -68.1114081 -0.294734E-07  0.763E-04    1.79      20.7  T
   6    -68.1114081 -0.386471E-08  0.488E-04    1.79      32.4  T
     SCC iter.                  ...        0 min,  0.104 sec
     gradient                   ...        0 min,  0.009 sec
 * total energy  :   -67.1753551 Eh     change       -0.4213553E-04 Eh
   gradient norm :     0.0012643 Eh/α   predicted    -0.3118392E-04 ( -25.99%)
   displ. norm   :     0.1375405 α      lambda       -0.3575775E-04
   maximum displ.:     0.0808535 α      in ANC's #6, #3, #8, ...

........................................................................
.............................. CYCLE   46 ..............................
........................................................................
   1    -68.1115679 -0.681116E+02  0.416E-02    1.79       0.0  T
   2    -68.1115683 -0.404143E-06  0.237E-02    1.79       1.0  T
   3    -68.1115680  0.366675E-06  0.478E-03    1.79       3.3  T
   4    -68.1115685 -0.493498E-06  0.211E-03    1.79       7.5  T
   5    -68.1115685 -0.498362E-07  0.894E-04    1.79      17.7  T
   6    -68.1115685 -0.610093E-08  0.594E-04    1.79      26.6  T
     SCC iter.                  ...        0 min,  0.102 sec
     gradient                   ...        0 min,  0.010 sec
 * total energy  :   -67.1753953 Eh     change       -0.4015305E-04 Eh
   gradient norm :     0.0032930 Eh/α   predicted    -0.1814492E-04 ( -54.81%)
   displ. norm   :     0.1216476 α      lambda       -0.4408684E-04
   maximum displ.:     0.0691739 α      in ANC's #6, #3, #8, ...

........................................................................
.............................. CYCLE   47 ..............................
........................................................................
   1    -68.1111621 -0.681112E+02  0.362E-02    1.79       0.0  T
   2    -68.1111623 -0.233561E-06  0.206E-02    1.79       1.0  T
   3    -68.1111621  0.192772E-06  0.371E-03    1.79       4.3  T
   4    -68.1111624 -0.276010E-06  0.171E-03    1.79       9.3  T
   5    -68.1111624 -0.311527E-07  0.614E-04    1.79      25.8  T
   6    -68.1111624 -0.256951E-08  0.427E-04    1.79      37.0  T
     SCC iter.                  ...        0 min,  0.100 sec
     gradient                   ...        0 min,  0.010 sec
 * total energy  :   -67.1754357 Eh     change       -0.4037517E-04 Eh
   gradient norm :     0.0033836 Eh/α   predicted    -0.2237020E-04 ( -44.59%)
   displ. norm   :     0.2726207 α      lambda       -0.9495119E-04
   maximum displ.:     0.1521710 α      in ANC's #6, #3, #8, ...

........................................................................
.............................. CYCLE   48 ..............................
........................................................................
   1    -68.1099104 -0.681099E+02  0.799E-02    1.79       0.0  T
   2    -68.1099115 -0.115966E-05  0.453E-02    1.79       1.0  T
   3    -68.1099107  0.878508E-06  0.811E-03    1.79       1.9  T
   4    -68.1099119 -0.128686E-05  0.378E-03    1.79       4.2  T
   5    -68.1099121 -0.150229E-06  0.130E-03    1.79      12.2  T
   6    -68.1099121 -0.106630E-07  0.923E-04    1.79      17.1  T
   7    -68.1099121 -0.556278E-08  0.588E-04    1.79      26.9  T
     SCC iter.                  ...        0 min,  0.118 sec
     gradient                   ...        0 min,  0.008 sec
 * total energy  :   -67.1755128 Eh     change       -0.7718633E-04 Eh
   gradient norm :     0.0033401 Eh/α   predicted    -0.5100942E-04 ( -33.91%)
   displ. norm   :     0.3121781 α      lambda       -0.8945518E-04
   maximum displ.:     0.1746913 α      in ANC's #6, #3, #8, ...

........................................................................
.............................. CYCLE   49 ..............................
........................................................................
   1    -68.1084947 -0.681085E+02  0.905E-02    1.78       0.0  T
   2    -68.1084962 -0.147560E-05  0.514E-02    1.78       1.0  T
   3    -68.1084952  0.974237E-06  0.899E-03    1.78       1.8  T
   4    -68.1084967 -0.150223E-05  0.438E-03    1.78       3.6  T
   5    -68.1084969 -0.202348E-06  0.160E-03    1.78       9.9  T
   6    -68.1084969 -0.161043E-07  0.117E-03    1.78      13.5  T
   7    -68.1084969 -0.101121E-07  0.730E-04    1.78      21.7  T
   8    -68.1084969 -0.721660E-08  0.309E-04    1.78      51.2  T
     SCC iter.                  ...        0 min,  0.136 sec
     gradient                   ...        0 min,  0.009 sec
 * total energy  :   -67.1755711 Eh     change       -0.5822867E-04 Eh
   gradient norm :     0.0045108 Eh/α   predicted    -0.4908766E-04 ( -15.70%)
   displ. norm   :     0.1477772 α      lambda       -0.6112154E-04
   maximum displ.:     0.0917965 α      in ANC's #3, #6, #8, ...

........................................................................
.............................. CYCLE   50 ..............................
........................................................................
   1    -68.1091672 -0.681092E+02  0.427E-02    1.78       0.0  T
   2    -68.1091675 -0.344298E-06  0.242E-02    1.78       1.0  T
   3    -68.1091675 -0.201643E-07  0.358E-03    1.78       4.4  T
   4    -68.1091676 -0.602217E-07  0.231E-03    1.78       6.9  T
   5    -68.1091677 -0.896085E-07  0.956E-04    1.78      16.5  T
   6    -68.1091677 -0.530630E-08  0.714E-04    1.78      22.2  T
     SCC iter.                  ...        0 min,  0.104 sec
     gradient                   ...        0 min,  0.010 sec
 * total energy  :   -67.1756236 Eh     change       -0.5248686E-04 Eh
   gradient norm :     0.0035165 Eh/α   predicted    -0.3122881E-04 ( -40.50%)
   displ. norm   :     0.2550945 α      lambda       -0.1153303E-03
   maximum displ.:     0.1644330 α      in ANC's #3, #6, #8, ...

........................................................................
.............................. CYCLE   51 ..............................
........................................................................
   1    -68.1109080 -0.681109E+02  0.723E-02    1.77       0.0  T
   2    -68.1109090 -0.104222E-05  0.409E-02    1.77       1.0  T
   3    -68.1109093 -0.221336E-06  0.601E-03    1.77       2.6  T
   4    -68.1109093 -0.191840E-07  0.405E-03    1.77       3.9  T
   5    -68.1109096 -0.304727E-06  0.180E-03    1.77       8.8  T
   6    -68.1109096 -0.196046E-07  0.130E-03    1.77      12.2  T
   7    -68.1109096 -0.174293E-07  0.608E-04    1.77      26.0  T
   8    -68.1109096 -0.562031E-08  0.267E-04    1.77      59.2  T
     SCC iter.                  ...        0 min,  0.139 sec
     gradient                   ...        0 min,  0.010 sec
 * total energy  :   -67.1757096 Eh     change       -0.8608327E-04 Eh
   gradient norm :     0.0028588 Eh/α   predicted    -0.6142022E-04 ( -28.65%)
   displ. norm   :     0.3431764 α      lambda       -0.8686020E-04
   maximum displ.:     0.2168311 α      in ANC's #3, #6, #8, ...

........................................................................
.............................. CYCLE   52 ..............................
........................................................................
   1    -68.1104500 -0.681104E+02  0.966E-02    1.77       0.0  T
   2    -68.1104516 -0.157624E-05  0.549E-02    1.77       1.0  T
   3    -68.1104521 -0.492847E-06  0.714E-03    1.77       2.2  T
   4    -68.1104519  0.116076E-06  0.462E-03    1.77       3.4  T
   5    -68.1104524 -0.468403E-06  0.211E-03    1.77       7.5  T
   6    -68.1104524 -0.221746E-07  0.152E-03    1.77      10.4  T
   7    -68.1104525 -0.320325E-07  0.546E-04    1.77      29.0  T
   8    -68.1104525 -0.303483E-08  0.306E-04    1.77      51.6  T
     SCC iter.                  ...        0 min,  0.139 sec
     gradient                   ...        0 min,  0.009 sec
 * total energy  :   -67.1757811 Eh     change       -0.7148363E-04 Eh
   gradient norm :     0.0037147 Eh/α   predicted    -0.4854541E-04 ( -32.09%)
   displ. norm   :     0.3345241 α      lambda       -0.8509324E-04
   maximum displ.:     0.2176623 α      in ANC's #3, #6, #1, ...

........................................................................
.............................. CYCLE   53 ..............................
........................................................................
   1    -68.1105447 -0.681105E+02  0.915E-02    1.77       0.0  T
   2    -68.1105462 -0.150090E-05  0.521E-02    1.77       1.0  T
   3    -68.1105467 -0.447979E-06  0.741E-03    1.77       2.1  T
   4    -68.1105467  0.207282E-07  0.532E-03    1.77       3.0  T
   5    -68.1105472 -0.522824E-06  0.243E-03    1.77       6.5  T
   6    -68.1105472 -0.388195E-07  0.155E-03    1.77      10.2  T
   7    -68.1105472 -0.320641E-07  0.603E-04    1.77      26.2  T
   8    -68.1105473 -0.542629E-08  0.319E-04    1.77      49.5  T
     SCC iter.                  ...        0 min,  0.139 sec
     gradient                   ...        0 min,  0.010 sec
 * total energy  :   -67.1758531 Eh     change       -0.7200370E-04 Eh
   gradient norm :     0.0033773 Eh/α   predicted    -0.4731181E-04 ( -34.29%)
   displ. norm   :     0.3385633 α      lambda       -0.8597229E-04
   maximum displ.:     0.2247891 α      in ANC's #3, #6, #1, ...

........................................................................
.............................. CYCLE   54 ..............................
........................................................................
   1    -68.1107938 -0.681108E+02  0.900E-02    1.77       0.0  T
   2    -68.1107954 -0.157346E-05  0.514E-02    1.77       1.0  T
   3    -68.1107956 -0.138468E-06  0.849E-03    1.77       1.9  T
   4    -68.1107960 -0.484344E-06  0.593E-03    1.77       2.7  T
   5    -68.1107966 -0.514699E-06  0.278E-03    1.77       5.7  T
   6    -68.1107966 -0.477538E-07  0.187E-03    1.77       8.4  T
   7    -68.1107966 -0.445491E-07  0.720E-04    1.77      22.0  T
   8    -68.1107967 -0.906844E-08  0.322E-04    1.77      49.0  T
     SCC iter.                  ...        0 min,  0.139 sec
     gradient                   ...        0 min,  0.008 sec
 * total energy  :   -67.1759252 Eh     change       -0.7206043E-04 Eh
   gradient norm :     0.0024067 Eh/α   predicted    -0.4791655E-04 ( -33.51%)
   displ. norm   :     0.3390673 α      lambda       -0.8141858E-04
   maximum displ.:     0.2287645 α      in ANC's #3, #6, #1, ...

........................................................................
.............................. CYCLE   55 ..............................
........................................................................
   1    -68.1109797 -0.681110E+02  0.879E-02    1.77       0.0  T
   2    -68.1109813 -0.159742E-05  0.503E-02    1.77       1.0  T
   3    -68.1109814 -0.784110E-07  0.890E-03    1.77       1.8  T
   4    -68.1109821 -0.658947E-06  0.618E-03    1.77       2.6  T
   5    -68.1109826 -0.524041E-06  0.302E-03    1.77       5.2  T
   6    -68.1109826 -0.563619E-07  0.210E-03    1.77       7.5  T
   7    -68.1109827 -0.567607E-07  0.727E-04    1.77      21.7  T
   8    -68.1109827 -0.916302E-08  0.320E-04    1.77      49.4  T
     SCC iter.                  ...        0 min,  0.137 sec
     gradient                   ...        0 min,  0.009 sec
 * total energy  :   -67.1759924 Eh     change       -0.6725171E-04 Eh
   gradient norm :     0.0019666 Eh/α   predicted    -0.4539025E-04 ( -32.51%)
   displ. norm   :     0.4888904 α      lambda       -0.7333945E-04
   maximum displ.:     0.3322387 α      in ANC's #3, #6, #1, ...

........................................................................
.............................. CYCLE   56 ..............................
........................................................................
   1    -68.1111121 -0.681111E+02  0.123E-01    1.78       0.0  T
   2    -68.1111155 -0.342066E-05  0.702E-02    1.78       1.0  T
   3    -68.1111162 -0.653740E-06  0.129E-02    1.78       1.2  T
   4    -68.1111172 -0.104198E-05  0.938E-03    1.78       1.7  T
   5    -68.1111185 -0.126794E-05  0.477E-03    1.78       3.3  T
   6    -68.1111186 -0.157257E-06  0.319E-03    1.78       5.0  T
   7    -68.1111188 -0.131794E-06  0.947E-04    1.78      16.7  T
   8    -68.1111188 -0.150313E-07  0.442E-04    1.78      35.8  T
     SCC iter.                  ...        0 min,  0.137 sec
     gradient                   ...        0 min,  0.010 sec
 * total energy  :   -67.1760710 Eh     change       -0.7855790E-04 Eh
   gradient norm :     0.0026713 Eh/α   predicted    -0.4056725E-04 ( -48.36%)
   displ. norm   :     0.1950979 α      lambda       -0.4048053E-04
   maximum displ.:     0.1322915 α      in ANC's #3, #6, #1, ...

[...]
H29-C2-N1-H27= 67.73          C4-C3-C2-N1= 68.90            C4-C3-C2-H28=189.27           C4-C3-C2-H29=308.58           
H30-C3-C2-N1=306.99           H30-C3-C2-H28= 67.37          H30-C3-C2-H29=186.68          H31-C3-C2-N1=188.65           
H31-C3-C2-H28=309.03          H31-C3-C2-H29= 68.34          C5-C4-C3-C2= 96.42            C5-C4-C3-H30=218.20           
C5-C4-C3-H31=336.69           S23-C4-C3-C2=278.85           S23-C4-C3-H30= 40.63          S23-C4-C3-H31=159.13          
C6-C5-C4-C3=182.40            C6-C5-C4-S23=  0.16           H32-C5-C4-C3=  2.53           H32-C5-C4-S23=180.29          
C7-C6-C5-C4=  0.17            C7-C6-C5-H32=180.04           H33-C6-C5-C4=180.23           H33-C6-C5-H32=  0.10          
C8-C7-C6-C5=179.55            C8-C7-C6-H33=359.49           S23-C7-C6-C5=359.58           S23-C7-C6-H33=179.52          
C9-C8-C7-C6=179.08            C9-C8-C7-S23=359.06           S22-C8-C7-C6=358.91           S22-C8-C7-S23=178.88          
C10-C9-C8-C7=179.89           C10-C9-C8-S22=  0.05          H34-C9-C8-C7=359.94           H34-C9-C8-S22=180.10          
C11-C10-C9-C8=359.90          C11-C10-C9-H34=179.86         H35-C10-C9-C8=180.01          H35-C10-C9-H34=359.97         

 CMA Distance (Angstroems)
 ---------------------------
R(CMA):  9.3759
           -------------------------------------------------
          |                Final Singlepoint                |
           -------------------------------------------------

          ...................................................
          :                      SETUP                      :
          :.................................................:
          :  # basis functions                 142          :
          :  # atomic orbitals                 137          :
          :  # shells                           69          :
          :  # electrons                       124          :
          :  max. iterations                   250          :
          :  Hamiltonian                  GFN2-xTB          :
          :  restarted?                      false          :
          :  GBSA solvation                   true          :
          :  PC potential                    false          :
          :  electronic temp.          300.0000000     K    :
          :  accuracy                    1.0000000          :
          :  -> integral cutoff          0.2500000E+02      :
          :  -> integral neglect         0.1000000E-07      :
          :  -> SCF convergence          0.1000000E-05 Eh   :
          :  -> wf. convergence          0.1000000E-03 e    :
          :  Broyden damping             0.4000000          :
          ...................................................

 iter      E             dE          RMSdq      gap      omega  full diag
   1    -68.1120920 -0.681121E+02  0.265E-04    1.77       0.0  T
   2    -68.1120920 -0.372353E-09  0.216E-04    1.77      73.1  T
   3    -68.1120920 -0.241343E-09  0.177E-04    1.77      89.4  T

   *** convergence criteria satisfied after 3 iterations ***

         #    Occupation            Energy/Eh            Energy/eV
      -------------------------------------------------------------
         1        2.0000           -1.0042755             -27.3277
       ...           ...                  ...                  ...
        56        2.0000           -0.4018799             -10.9357
        57        2.0000           -0.4015460             -10.9266
        58        2.0000           -0.3989321             -10.8555
        59        2.0000           -0.3982738             -10.8376
        60        2.0000           -0.3981762             -10.8349
        61        2.0000           -0.3824440             -10.4068
        62        2.0000           -0.3572773              -9.7220 (HOMO)
        63                         -0.2921785              -7.9506 (LUMO)
        64                         -0.2636775              -7.1750
        65                         -0.2342435              -6.3741
        66                         -0.2212156              -6.0196
        67                         -0.2165095              -5.8915
       ...                                ...                  ...
       137                          0.7025207              19.1166
      -------------------------------------------------------------
                  HL-Gap            0.0650988 Eh            1.7714 eV
             Fermi-level           -0.3247279 Eh           -8.8363 eV

 SCC (total)                   0 d,  0 h,  0 min,  0.070 sec
 SCC setup                      ...        0 min,  0.000 sec (  0.715%)
 Dispersion                     ...        0 min,  0.001 sec (  0.981%)
 classical contributions        ...        0 min,  0.000 sec (  0.091%)
 integral evaluation            ...        0 min,  0.004 sec (  5.806%)
 iterations                     ...        0 min,  0.052 sec ( 75.169%)
 molecular gradient             ...        0 min,  0.010 sec ( 13.987%)
 printout                       ...        0 min,  0.002 sec (  2.750%)

         :::::::::::::::::::::::::::::::::::::::::::::::::::::
         ::                     SUMMARY                     ::
         :::::::::::::::::::::::::::::::::::::::::::::::::::::
         :: total energy             -67.176344769146 Eh    ::
         :: total w/o Gsasa/hb       -67.172667153605 Eh    ::
         :: gradient norm              0.000405816221 Eh/a0 ::
         :: HOMO-LUMO gap              1.771428088782 eV    ::
         ::.................................................::
         :: SCC energy               -68.112092008979 Eh    ::
         :: -> isotropic ES            0.124353998304 Eh    ::
         :: -> anisotropic ES         -0.035602069670 Eh    ::
         :: -> anisotropic XC          0.021399834318 Eh    ::
         :: -> dispersion             -0.049961502251 Eh    ::
         :: -> Gsolv                  -0.071587075518 Eh    ::
         ::    -> Gelec               -0.067909459976 Eh    ::
         ::    -> Gsasa                0.001825620818 Eh    ::
         ::    -> Ghb                 -0.006583996058 Eh    ::
         ::    -> Gshift               0.001080759698 Eh    ::
         :: repulsion energy           0.936430591969 Eh    ::
         :: add. restraining           0.000000000000 Eh    ::
         :: total charge               0.000000000000 e     ::
         :::::::::::::::::::::::::::::::::::::::::::::::::::::

           -------------------------------------------------
          |                Property Printout                |
           -------------------------------------------------

    * Orbital Energies and Occupations

         #    Occupation            Energy/Eh            Energy/eV
      -------------------------------------------------------------
         1        2.0000           -1.0042755             -27.3277
       ...           ...                  ...                  ...
        50        2.0000           -0.4451241             -12.1124
        51        2.0000           -0.4432777             -12.0622
        52        2.0000           -0.4390331             -11.9467
        53        2.0000           -0.4140859             -11.2679
        54        2.0000           -0.4045739             -11.0090
        55        2.0000           -0.4037304             -10.9861
        56        2.0000           -0.4018799             -10.9357
        57        2.0000           -0.4015460             -10.9266
        58        2.0000           -0.3989321             -10.8555
        59        2.0000           -0.3982738             -10.8376
        60        2.0000           -0.3981762             -10.8349
        61        2.0000           -0.3824440             -10.4068
        62        2.0000           -0.3572773              -9.7220 (HOMO)
        63                         -0.2921785              -7.9506 (LUMO)
        64                         -0.2636775              -7.1750
        65                         -0.2342435              -6.3741
        66                         -0.2212156              -6.0196
        67                         -0.2165095              -5.8915
        68                         -0.2086825              -5.6785
        69                         -0.2068135              -5.6277
        70                         -0.2001764              -5.4471
        71                         -0.1837354              -4.9997
        72                         -0.1646582              -4.4806
        73                         -0.1533775              -4.1736
       ...                                ...                  ...
       137                          0.7025207              19.1166
      -------------------------------------------------------------
                  HL-Gap            0.0650988 Eh            1.7714 eV
             Fermi-level           -0.3247279 Eh           -8.8363 eV

     #   Z          covCN         q      C6AA      α(0)
     1   7 N        3.483    -0.164    24.535     7.357
     2   6 C        3.733    -0.025    21.114     6.558
     3   6 C        3.825    -0.092    22.232     6.710
     4   6 C        2.985     0.028    27.377     8.583
     5   6 C        3.107    -0.059    29.314     8.871
     6   6 C        3.112    -0.053    29.164     8.847
     7   6 C        3.021     0.010    27.771     8.644
     8   6 C        3.027     0.022    27.499     8.602
     9   6 C        3.093    -0.055    29.259     8.866
    10   6 C        3.095    -0.053    29.190     8.855
    11   6 C        3.023     0.018    27.592     8.616
    12   6 C        3.024     0.019    27.562     8.612
    13   6 C        3.096    -0.053    29.199     8.856
    14   6 C        3.097    -0.053    29.199     8.856
    15   6 C        3.022     0.019    27.550     8.610
    16   6 C        3.024     0.017    27.604     8.618
    17   6 C        3.108    -0.055    29.213     8.855
    18   6 C        3.107    -0.047    29.030     8.828
    19   6 C        2.940    -0.024    28.609     8.772
    20  16 S        2.327    -0.043   142.816    20.114
    21  16 S        2.345    -0.058   143.452    20.158
    22  16 S        2.342    -0.067   143.844    20.186
    23  16 S        2.363    -0.037   142.597    20.098
    24  17 Cl       0.055    -0.946   124.852    17.006
    25   1 H        0.912     0.298     0.715     1.323
    26   1 H        0.859     0.303     0.703     1.314
    27   1 H        0.859     0.286     0.756     1.362
    28   1 H        0.925     0.114     1.665     2.018
    29   1 H        0.925     0.100     1.787     2.091
    30   1 H        0.925     0.100     1.782     2.087
    31   1 H        0.925     0.095     1.831     2.116
    32   1 H        0.926     0.054     2.268     2.355
    33   1 H        0.926     0.036     2.501     2.473
    34   1 H        0.926     0.058     2.226     2.333
    35   1 H        0.926     0.047     2.352     2.398
    36   1 H        0.926     0.049     2.338     2.391
    37   1 H        0.926     0.050     2.314     2.379
    38   1 H        0.926     0.048     2.344     2.394
    39   1 H        0.926     0.053     2.288     2.366
    40   1 H        0.927     0.063     2.166     2.301

 Mol. C6AA /au·bohr⁶  :      32395.068339
 Mol. C8AA /au·bohr⁸  :    1026627.011014
 Mol. α(0) /au        :        291.778632


Wiberg/Mayer (AO) data.
largest (>0.10) Wiberg bond orders for each atom

 ---------------------------------------------------------------------------
     #   Z sym  total        # sym  WBO       # sym  WBO       # sym  WBO
 ---------------------------------------------------------------------------
     1   7 N    3.647 --     2 C    0.974    26 H    0.893    27 H    0.888
                            25 H    0.828
     2   6 C    3.928 --     3 C    0.988     1 N    0.974    29 H    0.968
                            28 H    0.963
     3   6 C    3.984 --     4 C    1.027     2 C    0.988    30 H    0.959
                            31 H    0.958
     4   6 C    3.923 --     5 C    1.573    23 S    1.150     3 C    1.027
     5   6 C    3.984 --     4 C    1.573     6 C    1.303    32 H    0.962
     6   6 C    3.970 --     7 C    1.504     5 C    1.303    33 H    0.961
     7   6 C    3.953 --     6 C    1.504     8 C    1.167    23 S    1.113
     8   6 C    3.926 --     9 C    1.478     7 C    1.167    22 S    1.116
     9   6 C    3.981 --     8 C    1.478    10 C    1.340    34 H    0.960
    10   6 C    3.972 --    11 C    1.475     9 C    1.340    35 H    0.960
    11   6 C    3.936 --    10 C    1.475    12 C    1.175    22 S    1.113
    12   6 C    3.937 --    13 C    1.474    11 C    1.175    21 S    1.115
    13   6 C    3.971 --    12 C    1.474    14 C    1.340    36 H    0.961
    14   6 C    3.984 --    15 C    1.481    13 C    1.340    37 H    0.960
    15   6 C    3.930 --    14 C    1.481    16 C    1.164    21 S    1.118
    16   6 C    3.951 --    17 C    1.505    15 C    1.164    20 S    1.122
    17   6 C    3.969 --    16 C    1.505    18 C    1.300    38 H    0.961
    18   6 C    3.986 --    19 C    1.605    17 C    1.300    39 H    0.963
    19   6 C    3.921 --    18 C    1.605    20 S    1.191    40 H    0.968
    20  16 S    2.595 --    19 C    1.191    16 C    1.122
    21  16 S    2.555 --    15 C    1.118    12 C    1.115
    22  16 S    2.551 --     8 C    1.116    11 C    1.113
    23  16 S    2.579 --     4 C    1.150     7 C    1.113
    24  17 Cl   0.104
    25   1 H    0.911 --     1 N    0.828
    26   1 H    0.908 --     1 N    0.893
    27   1 H    0.918 --     1 N    0.888
    28   1 H    0.986 --     2 C    0.963
    29   1 H    0.990 --     2 C    0.968
    30   1 H    0.989 --     3 C    0.959
    31   1 H    0.990 --     3 C    0.958
    32   1 H    0.997 --     5 C    0.962
    33   1 H    0.998 --     6 C    0.961
    34   1 H    0.996 --     9 C    0.960
    35   1 H    0.997 --    10 C    0.960
    36   1 H    0.997 --    13 C    0.961
    37   1 H    0.997 --    14 C    0.960
    38   1 H    0.998 --    17 C    0.961
    39   1 H    0.997 --    18 C    0.963
    40   1 H    0.996 --    19 C    0.968
 ---------------------------------------------------------------------------

Topologies differ in total number of bonds
Writing topology from bond orders to xtbtopo.mol

molecular dipole:
                 x           y           z       tot (Debye)
 q only:        2.753       1.640       4.457
   full:        2.878       1.580       3.605      12.395
molecular quadrupole (traceless):
                xx          xy          yy          xz          yz          zz
 q only:       26.312      -6.542     -13.172      19.480      -6.270     -13.140
  q+dip:       38.238      -4.368     -18.114       8.960      -5.102     -20.124
   full:       38.599      -3.525     -20.491      10.738      -3.468     -18.107

           -------------------------------------------------
          |                Geometry Summary                 |
           -------------------------------------------------

      molecular mass/u    :      410.0390886
   center of mass at/Å    :        9.2474317       1.8448519      -2.0656036
  moments of inertia/u·Å² :        0.1112637E+04   0.1192927E+05   0.1243026E+05
rotational constants/cm⁻¹ :        0.1515106E-01   0.1413132E-02   0.1356177E-02

 * 41 selected distances

     #   Z          #   Z                                           value/Å
     1   7 N        2   6 C                                       1.4729708
     2   6 C        3   6 C                                       1.5330960
     4   6 C        5   6 C                                       1.3627426
     5   6 C        6   6 C                                       1.4063391
     6   6 C        7   6 C                                       1.3716550
     7   6 C        8   6 C                                       1.4233738
     8   6 C        9   6 C                                       1.3748940
     9   6 C       10   6 C                                       1.3980499
    10   6 C       11   6 C                                       1.3749825
    11   6 C       12   6 C                                       1.4212149
    12   6 C       13   6 C                                       1.3752782
    13   6 C       14   6 C                                       1.3981651
    14   6 C       15   6 C                                       1.3742415
    15   6 C       16   6 C                                       1.4245385
    16   6 C       17   6 C                                       1.3718712
    17   6 C       18   6 C                                       1.4071089
    18   6 C       19   6 C                                       1.3588875
    16   6 C       20  16 S                                       1.7426723
    19   6 C       20  16 S                                       1.7195481
    12   6 C       21  16 S                                       1.7435088
    15   6 C       21  16 S                                       1.7421541
     8   6 C       22  16 S                                       1.7441976 (max)
    11   6 C       22  16 S                                       1.7428574
     4   6 C       23  16 S                                       1.7418069
     7   6 C       23  16 S                                       1.7357196
     1   7 N       25   1 H                                       1.0517771
     1   7 N       26   1 H                                       1.0222134 (min)
     1   7 N       27   1 H                                       1.0256120
     2   6 C       28   1 H                                       1.0885584
     2   6 C       29   1 H                                       1.0896208
     3   6 C       30   1 H                                       1.0897401
     3   6 C       31   1 H                                       1.0890595
     5   6 C       32   1 H                                       1.0747410
     6   6 C       33   1 H                                       1.0758003
     9   6 C       34   1 H                                       1.0756642
    10   6 C       35   1 H                                       1.0755297
    13   6 C       36   1 H                                       1.0756408
    14   6 C       37   1 H                                       1.0755494
    17   6 C       38   1 H                                       1.0753704
    18   6 C       39   1 H                                       1.0742907
    19   6 C       40   1 H                                       1.0710126

 * 5 distinct bonds (by element types)

   Z      Z             #   av. dist./Å        max./Å        min./Å
   1 H    6 C          13     1.0792752     1.0897401     1.0710126
   6 C    6 C          16     1.3985274     1.5330960     1.3588875
   1 H    7 N           3     1.0332008     1.0517771     1.0222134
   6 C    7 N           1     1.4729708     1.4729708     1.4729708
   6 C   16 S           8     1.7390581     1.7441976     1.7195481


optimized geometry written to: xtbopt.xyz


           -------------------------------------------------
          | TOTAL ENERGY              -67.176344769146 Eh   |
          | GRADIENT NORM               0.000405816221 Eh/α |
          | HOMO-LUMO GAP               1.771428088782 eV   |
           -------------------------------------------------

------------------------------------------------------------------------
 * finished run on 2023/01/24 at 14:57:32.015     
------------------------------------------------------------------------
 total:
 * wall-time:     0 d,  0 h,  0 min, 10.944 sec
 *  cpu-time:     0 d,  0 h, 25 min, 56.665 sec
 * ratio c/w:   142.238 speedup
 SCF:
 * wall-time:     0 d,  0 h,  0 min,  0.285 sec
 *  cpu-time:     0 d,  0 h,  0 min, 40.428 sec
 * ratio c/w:   141.718 speedup
 ANC optimizer:
 * wall-time:     0 d,  0 h,  0 min, 10.636 sec
 *  cpu-time:     0 d,  0 h, 25 min, 13.129 sec
 * ratio c/w:   142.267 speedup

