40
 energy: -67.176344769146 gnorm: 0.000405816221 xtb: 6.5.1 (fef0646)
N            3.22354438120801       -0.31207161144673        0.56353053391578
C            2.73895968745454        0.95953687001492        1.12729641856436
C            3.79993103996156        1.60416728526832        2.02683767031780
C            4.96990272022703        2.09024420340760        1.24166992216491
C            5.21759316635100        3.34653415571130        0.77535229420898
C            6.40052245179501        3.44260826123588        0.02087414737361
C            7.06937436712469        2.25114940068594       -0.09954145696117
C            8.28198304712537        1.97099491543904       -0.79025578861028
C            8.95158370576776        0.77424267479823       -0.88900943724335
C           10.12008408136377        0.85410873342403       -1.65240419623239
C           10.36318049948035        2.11177262312943       -2.15216621792829
C           11.44514422335460        2.54895137979007       -2.96338786342471
C           11.67214373640205        3.80152887515449       -3.48387871695042
C           12.84271706587911        3.88395726020563       -4.24402927640384
C           13.53264310085883        2.69770234409195       -4.31710994879085
C           14.75657754703507        2.42517906865991       -4.99314627071102
C           15.45985003367242        1.24847215207196       -5.04605133958924
C           16.63922989553462        1.34451495180728       -5.80749337203407
C           16.82970218543202        2.58463180779453       -6.32941811392792
S           15.56728494605065        3.67130080203407       -5.90245387949392
S           12.71211986019496        1.44468760611026       -3.42728067239610
S            9.11682365138231        3.22823846596457       -1.66467255475114
S            6.22648345572001        0.99086901119054        0.74541431105614
Cl           1.27114822067672       -1.23880479260155       -1.58250431130531
H            2.54320306998809       -0.67593982392523       -0.15129142749954
H            3.33934041653473       -1.02189623543552        1.28993280481540
H            4.12303535978670       -0.17635560911120        0.08984615930196
H            1.83423921183028        0.76483211712587        1.70047177098138
H            2.48486524802131        1.62756132904074        0.30482902213463
H            4.13136275378340        0.88348888156373        2.77403842671577
H            3.34954355918956        2.45248054612859        2.54022453291699
H            4.57340297550947        4.18533011513166        0.96642369923915
H            6.76461818554422        4.35085969361909       -0.42618253098870
H            8.60293589297055       -0.12990520196454       -0.42208905046579
H           10.77676397985357        0.02395992360311       -1.84316181346679
H           11.00425955797697        4.62749801019887       -3.31444264704795
H           13.18497836879576        4.78059577422986       -4.72952169746036
H           15.12943258494707        0.35339394791981       -4.54998628695768
H           17.31761973196483        0.52553571157959       -5.95967946513980
H           17.63388203323517        2.93744437639309       -6.94251337790121
