      -----------------------------------------------------------      
     |                   =====================                   |     
     |                           x T B                           |     
     |                   =====================                   |     
     |                         S. Grimme                         |     
     |          Mulliken Center for Theoretical Chemistry        |     
     |                    University of Bonn                     |     
      -----------------------------------------------------------      

   * xtb version 6.5.1 (fef0646) compiled by 'conda@b96dff2e9fd6' on 2023-01-04

   xtb is free software: you can redistribute it and/or modify it under
   the terms of the GNU Lesser General Public License as published by
   the Free Software Foundation, either version 3 of the License, or
   (at your option) any later version.
   
   xtb is distributed in the hope that it will be useful,
   but WITHOUT ANY WARRANTY; without even the implied warranty of
   MERCHANTABILITY or FITNESS FOR A PARTICULAR PURPOSE.  See the
   GNU Lesser General Public License for more details.
   
   Cite this work as:
   * C. Bannwarth, E. Caldeweyher, S. Ehlert, A. Hansen, P. Pracht,
     J. Seibert, S. Spicher, S. Grimme, WIREs Comput. Mol. Sci., 2020, 11,
     e01493. DOI: 10.1002/wcms.1493
   
   for GFN2-xTB:
   * C. Bannwarth, S. Ehlert and S. Grimme., J. Chem. Theory Comput., 2019,
     15, 1652-1671. DOI: 10.1021/acs.jctc.8b01176
   for GFN1-xTB:
   * S. Grimme, C. Bannwarth, P. Shushkov, J. Chem. Theory Comput., 2017,
     13, 1989-2009. DOI: 10.1021/acs.jctc.7b00118
   for GFN0-xTB:
   * P. Pracht, E. Caldeweyher, S. Ehlert, S. Grimme, ChemRxiv, 2019, preprint.
     DOI: 10.26434/chemrxiv.8326202.v1
   for GFN-FF:
   * S. Spicher and S. Grimme, Angew. Chem. Int. Ed., 2020, 59, 15665-15673.
     DOI: 10.1002/anie.202004239
   
   for ALPB and GBSA implicit solvation:
   * S. Ehlert, M. Stahn, S. Spicher, S. Grimme, J. Chem. Theory Comput.,
     2021, 17, 4250-4261. DOI: 10.1021/acs.jctc.1c00471
   
   for DFT-D4:
   * E. Caldeweyher, C. Bannwarth and S. Grimme, J. Chem. Phys., 2017,
     147, 034112. DOI: 10.1063/1.4993215
   * E. Caldeweyher, S. Ehlert, A. Hansen, H. Neugebauer, S. Spicher,
     C. Bannwarth and S. Grimme, J. Chem. Phys., 2019, 150, 154122.
     DOI: 10.1063/1.5090222
   * E. Caldeweyher, J.-M. Mewes, S. Ehlert and S. Grimme, Phys. Chem. Chem. Phys.
     2020, 22, 8499-8512. DOI: 10.1039/D0CP00502A
   
   for sTDA-xTB:
   * S. Grimme and C. Bannwarth, J. Chem. Phys., 2016, 145, 054103.
     DOI: 10.1063/1.4959605
   
   in the mass-spec context:
   * V. Asgeirsson, C. Bauer and S. Grimme, Chem. Sci., 2017, 8, 4879.
     DOI: 10.1039/c7sc00601b
   * J. Koopman and S. Grimme, ACS Omega 2019, 4, 12, 15120-15133.
     DOI: 10.1021/acsomega.9b02011
   
   for metadynamics refer to:
   * S. Grimme, J. Chem. Theory Comput., 2019, 155, 2847-2862
     DOI: 10.1021/acs.jctc.9b00143
   
   for SPH calculations refer to:
   * S. Spicher and S. Grimme, J. Chem. Theory Comput., 2021, 17, 1701-1714
     DOI: 10.1021/acs.jctc.0c01306
   
   with help from (in alphabetical order)
   P. Atkinson, C. Bannwarth, F. Bohle, G. Brandenburg, E. Caldeweyher
   M. Checinski, S. Dohm, S. Ehlert, S. Ehrlich, I. Gerasimov, C. Hölzer
   A. Katbashev, J. Koopman, C. Lavigne, S. Lehtola, F. März, M. Müller,
   F. Musil, H. Neugebauer, J. Pisarek, C. Plett, P. Pracht, F. Pultar,
   J. Seibert, P. Shushkov, S. Spicher, M. Stahn, M. Steiner, T. Strunk,
   J. Stückrath, T. Rose, and J. Unsleber
   
 * started run on 2023/01/23 at 19:16:36.531     

           -------------------------------------------------
          |                Calculation Setup                |
           -------------------------------------------------

          program call               : xtb init.xyz --opt -c 0 -u 0 -P 16 --input xtb.inp
          hostname                   : gpg-woodward
          coordinate file            : init.xyz
          omp threads                :                    16

   ID    Z sym.   atoms
    1    7 N      1, 16, 19
    2    6 C      2-15, 17, 18, 20-25
    3   16 S      26-29
    4   17 Cl     30
    5    1 H      31-48

molecular fragmentation (1/2 indicates fragments):
111111111111111111111111111112111111111111111111
# atoms in fragment 1/2:    47     1
 fragment masses (1/2) :      452.66       35.45
CMA distance (Bohr)    :  20.696
constraining FC (au)   :  0.0500

           -------------------------------------------------
          |                 G F N 2 - x T B                 |
           -------------------------------------------------

        Reference                      10.1021/acs.jctc.8b01176
      * Hamiltonian:
        H0-scaling (s, p, d)           1.850000    2.230000    2.230000
        zeta-weighting                 0.500000
      * Dispersion:
        s8                             2.700000
        a1                             0.520000
        a2                             5.000000
        s9                             5.000000
      * Repulsion:
        kExp                           1.500000    1.000000
        rExp                           1.000000
      * Coulomb:
        alpha                          2.000000
        third order                    shell-resolved
        anisotropic                    true
        a3                             3.000000
        a5                             4.000000
        cn-shift                       1.200000
        cn-exp                         4.000000
        max-rad                        5.000000


          ...................................................
          :                      SETUP                      :
          :.................................................:
          :  # basis functions                 168          :
          :  # atomic orbitals                 163          :
          :  # shells                           83          :
          :  # electrons                       152          :
          :  max. iterations                   250          :
          :  Hamiltonian                  GFN2-xTB          :
          :  restarted?                      false          :
          :  GBSA solvation                  false          :
          :  PC potential                    false          :
          :  electronic temp.          300.0000000     K    :
          :  accuracy                    1.0000000          :
          :  -> integral cutoff          0.2500000E+02      :
          :  -> integral neglect         0.1000000E-07      :
          :  -> SCF convergence          0.1000000E-05 Eh   :
          :  -> wf. convergence          0.1000000E-03 e    :
          :  Broyden damping             0.4000000          :
          ...................................................

 iter      E             dE          RMSdq      gap      omega  full diag
   1    -83.4353597 -0.834354E+02  0.474E+00    2.13       0.0  T
   2    -83.5421232 -0.106763E+00  0.300E+00    2.12       1.0  T
   3    -83.4914320  0.506912E-01  0.212E+00    1.43       1.0  T
   4    -83.6258842 -0.134452E+00  0.779E-01    1.03       1.0  T
   5    -83.6375275 -0.116433E-01  0.340E-01    0.79       1.0  T
   6    -83.6404826 -0.295509E-02  0.196E-01    0.81       1.0  T
   7    -83.6408766 -0.394003E-03  0.126E-01    0.82       1.0  T
   8    -83.6410911 -0.214535E-03  0.900E-02    0.82       1.0  T
   9    -83.6412144 -0.123240E-03  0.472E-02    0.82       1.0  T
  10    -83.6412694 -0.549694E-04  0.187E-02    0.82       1.0  T
  11    -83.6412738 -0.443876E-05  0.971E-03    0.81       1.5  T
  12    -83.6412748 -0.102671E-05  0.439E-03    0.81       3.3  T
  13    -83.6412752 -0.423167E-06  0.191E-03    0.81       7.5  T
  14    -83.6412753 -0.304473E-07  0.102E-03    0.81      14.2  T
  15    -83.6412753 -0.158133E-07  0.457E-04    0.81      31.6  T
  16    -83.6412753 -0.262382E-08  0.276E-04    0.81      52.2  T

   *** convergence criteria satisfied after 16 iterations ***

         #    Occupation            Energy/Eh            Energy/eV
      -------------------------------------------------------------
         1        2.0000           -0.9534217             -25.9439
       ...           ...                  ...                  ...
        70        2.0000           -0.4167171             -11.3394
        71        2.0000           -0.4105691             -11.1722
        72        2.0000           -0.4044136             -11.0047
        73        2.0000           -0.3895430             -10.6000
        74        2.0000           -0.3537236              -9.6253
        75        2.0000           -0.3418397              -9.3019
        76        2.0000           -0.3417071              -9.2983 (HOMO)
        77        0.0000           -0.3118519              -8.4859 (LUMO)
        78                         -0.2948520              -8.0233
        79                         -0.2795485              -7.6069
        80                         -0.2540483              -6.9130
        81                         -0.2463135              -6.7025
       ...                                ...                  ...
       163                          1.0950275              29.7972
      -------------------------------------------------------------
                  HL-Gap            0.0298552 Eh            0.8124 eV
             Fermi-level           -0.3264822 Eh           -8.8840 eV

 SCC (total)                   0 d,  0 h,  0 min,  0.382 sec
 SCC setup                      ...        0 min,  0.001 sec (  0.138%)
 Dispersion                     ...        0 min,  0.002 sec (  0.491%)
 classical contributions        ...        0 min,  0.000 sec (  0.042%)
 integral evaluation            ...        0 min,  0.014 sec (  3.655%)
 iterations                     ...        0 min,  0.339 sec ( 88.781%)
 molecular gradient             ...        0 min,  0.025 sec (  6.539%)
 printout                       ...        0 min,  0.001 sec (  0.307%)

         :::::::::::::::::::::::::::::::::::::::::::::::::::::
         ::                     SUMMARY                     ::
         :::::::::::::::::::::::::::::::::::::::::::::::::::::
         :: total energy             -82.472007955885 Eh    ::
         :: gradient norm              0.107740430874 Eh/a0 ::
         :: HOMO-LUMO gap              0.812400942774 eV    ::
         ::.................................................::
         :: SCC energy               -83.641275288410 Eh    ::
         :: -> isotropic ES            0.108259145930 Eh    ::
         :: -> anisotropic ES         -0.014678564670 Eh    ::
         :: -> anisotropic XC          0.053091489348 Eh    ::
         :: -> dispersion             -0.064395087809 Eh    ::
         :: repulsion energy           1.169674626052 Eh    ::
         :: add. restraining           0.000000000000 Eh    ::
         :: total charge               0.000000000000 e     ::
         :::::::::::::::::::::::::::::::::::::::::::::::::::::

      ----------------------------------------------------------- 
     |                   =====================                   |
     |                        A N C O P T                        |
     |                   =====================                   |
     |               Approximate Normal Coordinate               |
     |                Rational Function Optimizer                |
      ----------------------------------------------------------- 

          ...................................................
          :                      SETUP                      :
          :.................................................:
          :   optimization level            normal          :
          :   max. optcycles                   200          :
          :   ANC micro-cycles                  20          :
          :   degrees of freedom               138          :
          :.................................................:
          :   RF solver                   davidson          :
          :   write xtbopt.log                true          :
          :   linear?                        false          :
          :   energy convergence         0.5000000E-05 Eh   :
          :   grad. convergence          0.1000000E-02 Eh/α :
          :   maximium RF displ.         1.0000000          :
          :   Hlow (freq-cutoff)         0.1000000E-01      :
          :   Hmax (freq-cutoff)         5.0000000          :
          :   S6 in model hess.         20.0000000          :
          ...................................................

generating ANC from model Hessian ...
Using Lindh-Hessian (1995)
 Shifting diagonal of input Hessian by    9.9573556908378342E-003
 Lowest  eigenvalues of input Hessian
    0.000000    0.000000    0.000000    0.000000    0.000000    0.000000
    0.010000    0.010040    0.010219    0.010338    0.010471    0.010490
    0.010649    0.011091    0.011273    0.011671    0.011974    0.012748
 Highest eigenvalues
    1.825277    1.850738    1.898943    1.940649    2.523520    2.530730


........................................................................
.............................. CYCLE    1 ..............................
........................................................................
   1    -83.6412753 -0.836413E+02  0.125E-04    0.81       0.0  T
   2    -83.6412753  0.591172E-11  0.108E-04    0.81     134.1  T
   3    -83.6412753 -0.357346E-09  0.666E-05    0.81     216.6  T
     SCC iter.                  ...        0 min,  0.078 sec
     gradient                   ...        0 min,  0.031 sec
 * total energy  :   -82.4720080 Eh     change       -0.1775035E-08 Eh
   gradient norm :     0.1077398 Eh/α   predicted     0.0000000E+00 (-100.00%)
   displ. norm   :     0.4013613 α      lambda       -0.2263516E-01
   maximum displ.:     0.1162530 α      in ANC's #35, #78, #36, ...

........................................................................
.............................. CYCLE    2 ..............................
........................................................................
   1    -83.7037958 -0.837038E+02  0.263E-01    0.89       0.0  T
   2    -83.7040587 -0.262859E-03  0.163E-01    0.95       1.0  T
   3    -83.7038358  0.222805E-03  0.100E-01    1.02       1.0  T
   4    -83.7041492 -0.313332E-03  0.382E-02    1.05       1.0  T
   5    -83.7041841 -0.348781E-04  0.215E-02    1.06       1.0  T
   6    -83.7041950 -0.109576E-04  0.137E-02    1.06       1.1  T
   7    -83.7041972 -0.217977E-05  0.887E-03    1.06       1.6  T
   8    -83.7041983 -0.111238E-05  0.554E-03    1.06       2.6  T
   9    -83.7041987 -0.428258E-06  0.328E-03    1.06       4.4  T
  10    -83.7041990 -0.309738E-06  0.102E-03    1.06      14.1  T
  11    -83.7041991 -0.125480E-07  0.606E-04    1.06      23.8  T
  12    -83.7041991 -0.341160E-08  0.294E-04    1.06      49.1  T
     SCC iter.                  ...        0 min,  0.246 sec
     gradient                   ...        0 min,  0.039 sec
 * total energy  :   -82.4879474 Eh     change       -0.1593943E-01 Eh
   gradient norm :     0.0613906 Eh/α   predicted    -0.1315064E-01 ( -17.50%)
   displ. norm   :     0.4302401 α      lambda       -0.1168275E-01
   maximum displ.:     0.1258357 α      in ANC's #26, #36, #23, ...

........................................................................
.............................. CYCLE    3 ..............................
........................................................................
   1    -83.7368706 -0.837369E+02  0.245E-01    1.02       0.0  T
   2    -83.7371431 -0.272523E-03  0.149E-01    1.08       1.0  T
   3    -83.7370209  0.122150E-03  0.784E-02    1.15       1.0  T
   4    -83.7371906 -0.169642E-03  0.371E-02    1.18       1.0  T
   5    -83.7372260 -0.353975E-04  0.188E-02    1.19       1.0  T
   6    -83.7372324 -0.645261E-05  0.127E-02    1.19       1.1  T
   7    -83.7372346 -0.212092E-05  0.819E-03    1.19       1.8  T
   8    -83.7372354 -0.882194E-06  0.528E-03    1.19       2.7  T
   9    -83.7372359 -0.457355E-06  0.331E-03    1.19       4.4  T
  10    -83.7372362 -0.271418E-06  0.106E-03    1.19      13.6  T
  11    -83.7372362 -0.120807E-07  0.671E-04    1.19      21.5  T
  12    -83.7372362 -0.578292E-08  0.319E-04    1.19      45.2  T
     SCC iter.                  ...        0 min,  0.366 sec
     gradient                   ...        0 min,  0.041 sec
 * total energy  :   -82.4954006 Eh     change       -0.7453185E-02 Eh
   gradient norm :     0.0386039 Eh/α   predicted    -0.6922676E-02 (  -7.12%)
   displ. norm   :     0.3877650 α      lambda       -0.5322554E-02
   maximum displ.:     0.1332859 α      in ANC's #14, #18, #4, ...

........................................................................
.............................. CYCLE    4 ..............................
........................................................................
   1    -83.7361051 -0.837361E+02  0.363E-01    1.19       0.0  T
   2    -83.7363981 -0.293026E-03  0.203E-01    1.26       1.0  T
   3    -83.7363452  0.529297E-04  0.600E-02    1.37       1.0  T
   4    -83.7364313 -0.861083E-04  0.335E-02    1.37       1.0  T
   5    -83.7364624 -0.311747E-04  0.176E-02    1.38       1.0  T
   6    -83.7364649 -0.244013E-05  0.133E-02    1.38       1.1  T
   7    -83.7364676 -0.276033E-05  0.834E-03    1.38       1.7  T
   8    -83.7364690 -0.139210E-05  0.500E-03    1.38       2.9  T
   9    -83.7364694 -0.318015E-06  0.298E-03    1.38       4.8  T
  10    -83.7364697 -0.305867E-06  0.941E-04    1.38      15.3  T
  11    -83.7364697 -0.130321E-07  0.616E-04    1.38      23.4  T
     SCC iter.                  ...        0 min,  0.344 sec
     gradient                   ...        0 min,  0.034 sec
 * total energy  :   -82.4976544 Eh     change       -0.2253817E-02 Eh
   gradient norm :     0.0440913 Eh/α   predicted    -0.3061442E-02 (  35.83%)
   displ. norm   :     0.4076180 α      lambda       -0.5740976E-02
   maximum displ.:     0.1398533 α      in ANC's #4, #19, #11, ...

........................................................................
.............................. CYCLE    5 ..............................
........................................................................
   1    -83.7416984 -0.837417E+02  0.442E-01    1.42       0.0  T
   2    -83.7421012 -0.402756E-03  0.247E-01    1.52       1.0  T
   3    -83.7420188  0.823928E-04  0.712E-02    1.66       1.0  T
   4    -83.7421482 -0.129389E-03  0.421E-02    1.67       1.0  T
   5    -83.7422019 -0.537717E-04  0.220E-02    1.67       1.0  T
   6    -83.7422049 -0.301791E-05  0.175E-02    1.68       1.0  T
   7    -83.7422110 -0.604462E-05  0.108E-02    1.68       1.3  T
   8    -83.7422135 -0.250334E-05  0.661E-03    1.68       2.2  T
   9    -83.7422143 -0.809127E-06  0.319E-03    1.68       4.5  T
  10    -83.7422146 -0.324669E-06  0.105E-03    1.68      13.7  T
  11    -83.7422146 -0.125427E-07  0.715E-04    1.68      20.2  T
  12    -83.7422146 -0.486820E-08  0.495E-04    1.68      29.2  T
     SCC iter.                  ...        0 min,  0.383 sec
     gradient                   ...        0 min,  0.039 sec
 * total energy  :   -82.5003126 Eh     change       -0.2658229E-02 Eh
   gradient norm :     0.0381330 Eh/α   predicted    -0.3347430E-02 (  25.93%)
   displ. norm   :     0.2944332 α      lambda       -0.3340750E-02
   maximum displ.:     0.1388077 α      in ANC's #9, #15, #7, ...

........................................................................
.............................. CYCLE    6 ..............................
........................................................................
   1    -83.7393373 -0.837393E+02  0.318E-01    1.68       0.0  T
   2    -83.7394428 -0.105501E-03  0.177E-01    1.72       1.0  T
   3    -83.7392960  0.146759E-03  0.630E-02    1.76       1.0  T
   4    -83.7394760 -0.180035E-03  0.163E-02    1.77       1.0  T
   5    -83.7394832 -0.713892E-05  0.759E-03    1.77       1.9  T
   6    -83.7394847 -0.147585E-05  0.417E-03    1.77       3.5  T
   7    -83.7394849 -0.270641E-06  0.215E-03    1.77       6.7  T
   8    -83.7394850 -0.447833E-07  0.155E-03    1.77       9.3  T
   9    -83.7394850 -0.271908E-07  0.106E-03    1.77      13.6  T
  10    -83.7394850 -0.171254E-07  0.500E-04    1.77      28.9  T
  11    -83.7394850 -0.506051E-08  0.312E-04    1.77      46.3  T
     SCC iter.                  ...        0 min,  0.356 sec
     gradient                   ...        0 min,  0.038 sec
 * total energy  :   -82.5019921 Eh     change       -0.1679515E-02 Eh
   gradient norm :     0.0310425 Eh/α   predicted    -0.1815194E-02 (   8.08%)
   displ. norm   :     0.3162621 α      lambda       -0.3501597E-02
   maximum displ.:     0.1406041 α      in ANC's #13, #5, #3, ...

........................................................................
.............................. CYCLE    7 ..............................
........................................................................
   1    -83.7413307 -0.837413E+02  0.203E-01    1.82       0.0  T
   2    -83.7415282 -0.197423E-03  0.113E-01    1.90       1.0  T
   3    -83.7415090  0.191545E-04  0.422E-02    1.90       1.0  T
   4    -83.7415280 -0.189932E-04  0.273E-02    1.90       1.0  T
   5    -83.7415545 -0.265269E-04  0.992E-03    1.90       1.5  T
   6    -83.7415554 -0.912377E-06  0.742E-03    1.90       1.9  T
   7    -83.7415562 -0.789591E-06  0.515E-03    1.90       2.8  T
   8    -83.7415568 -0.529179E-06  0.351E-03    1.91       4.1  T
   9    -83.7415570 -0.192695E-06  0.245E-03    1.90       5.9  T
  10    -83.7415571 -0.184287E-06  0.816E-04    1.90      17.7  T
  11    -83.7415572 -0.146506E-07  0.463E-04    1.91      31.2  T
     SCC iter.                  ...        0 min,  0.355 sec
     gradient                   ...        0 min,  0.040 sec
 * total energy  :   -82.5043094 Eh     change       -0.2317268E-02 Eh
   gradient norm :     0.0355795 Eh/α   predicted    -0.1925922E-02 ( -16.89%)
   displ. norm   :     0.4031070 α      lambda       -0.3259939E-02
   maximum displ.:     0.1346247 α      in ANC's #5, #15, #3, ...

........................................................................
.............................. CYCLE    8 ..............................
........................................................................
   1    -83.7376599 -0.837377E+02  0.217E-01    1.91       0.0  T
   2    -83.7380448 -0.384902E-03  0.124E-01    1.90       1.0  T
   3    -83.7380901 -0.453559E-04  0.612E-02    1.90       1.0  T
   4    -83.7380861  0.398780E-05  0.480E-02    1.90       1.0  T
   5    -83.7381397 -0.535316E-04  0.312E-02    1.90       1.0  T
   6    -83.7381485 -0.885008E-05  0.239E-02    1.90       1.0  T
   7    -83.7381664 -0.179319E-04  0.120E-02    1.90       1.2  T
   8    -83.7381702 -0.373214E-05  0.629E-03    1.90       2.3  T
   9    -83.7381708 -0.646448E-06  0.312E-03    1.90       4.6  T
  10    -83.7381711 -0.332194E-06  0.112E-03    1.90      12.8  T
  11    -83.7381712 -0.116845E-07  0.768E-04    1.90      18.8  T
  12    -83.7381712 -0.618581E-08  0.496E-04    1.90      29.1  T
     SCC iter.                  ...        0 min,  0.388 sec
     gradient                   ...        0 min,  0.038 sec
 * total energy  :   -82.5052050 Eh     change       -0.8956377E-03 Eh
   gradient norm :     0.0259039 Eh/α   predicted    -0.1894839E-02 ( 111.56%)
   displ. norm   :     0.1957674 α      lambda       -0.2647697E-02
   maximum displ.:     0.0884249 α      in ANC's #35, #11, #36, ...

........................................................................
.............................. CYCLE    9 ..............................
........................................................................
   1    -83.7383679 -0.837384E+02  0.120E-01    1.91       0.0  T
   2    -83.7383984 -0.305070E-04  0.719E-02    1.90       1.0  T
   3    -83.7383823  0.160915E-04  0.343E-02    1.91       1.0  T
   4    -83.7384169 -0.345868E-04  0.211E-02    1.90       1.0  T
   5    -83.7384238 -0.689114E-05  0.151E-02    1.90       1.0  T
   6    -83.7384269 -0.315178E-05  0.117E-02    1.90       1.2  T
   7    -83.7384302 -0.323876E-05  0.698E-03    1.90       2.1  T
   8    -83.7384313 -0.114814E-05  0.335E-03    1.90       4.3  T
   9    -83.7384317 -0.330167E-06  0.121E-03    1.90      11.9  T
  10    -83.7384317 -0.479466E-07  0.518E-04    1.90      27.8  T
  11    -83.7384317 -0.240330E-08  0.296E-04    1.90      48.8  T
     SCC iter.                  ...        0 min,  0.350 sec
     gradient                   ...        0 min,  0.036 sec
 * total energy  :   -82.5063447 Eh     change       -0.1139708E-02 Eh
   gradient norm :     0.0142300 Eh/α   predicted    -0.1374590E-02 (  20.61%)
   displ. norm   :     0.1599629 α      lambda       -0.5230260E-03
   maximum displ.:     0.0490890 α      in ANC's #6, #15, #9, ...

........................................................................
.............................. CYCLE   10 ..............................
........................................................................
   1    -83.7423261 -0.837423E+02  0.696E-02    1.90       0.0  T
   2    -83.7423343 -0.816704E-05  0.394E-02    1.90       1.0  T
   3    -83.7423217  0.125279E-04  0.191E-02    1.90       1.0  T
   4    -83.7423368 -0.150602E-04  0.638E-03    1.90       2.3  T
   5    -83.7423376 -0.830460E-06  0.388E-03    1.90       3.7  T
   6    -83.7423379 -0.232258E-06  0.289E-03    1.90       5.0  T
   7    -83.7423380 -0.136908E-06  0.198E-03    1.90       7.3  T
   8    -83.7423381 -0.749599E-07  0.136E-03    1.90      10.6  T
   9    -83.7423381 -0.453704E-07  0.692E-04    1.90      20.9  T
  10    -83.7423381 -0.143951E-07  0.266E-04    1.90      54.3  T
     SCC iter.                  ...        0 min,  0.325 sec
     gradient                   ...        0 min,  0.045 sec
 * total energy  :   -82.5067225 Eh     change       -0.3777950E-03 Eh
   gradient norm :     0.0054115 Eh/α   predicted    -0.2682118E-03 ( -29.01%)
   displ. norm   :     0.2908623 α      lambda       -0.4418312E-03
   maximum displ.:     0.0974248 α      in ANC's #6, #3, #4, ...

........................................................................
.............................. CYCLE   11 ..............................
........................................................................
   1    -83.7444661 -0.837445E+02  0.933E-02    1.89       0.0  T
   2    -83.7444810 -0.149553E-04  0.526E-02    1.89       1.0  T
   3    -83.7444750  0.605164E-05  0.169E-02    1.89       1.0  T
   4    -83.7444826 -0.766363E-05  0.938E-03    1.88       1.5  T
   5    -83.7444850 -0.234115E-05  0.501E-03    1.89       2.9  T
   6    -83.7444853 -0.316169E-06  0.392E-03    1.89       3.7  T
   7    -83.7444856 -0.298839E-06  0.263E-03    1.89       5.5  T
   8    -83.7444857 -0.106712E-06  0.189E-03    1.89       7.6  T
   9    -83.7444858 -0.109774E-06  0.762E-04    1.89      18.9  T
  10    -83.7444858 -0.186593E-07  0.301E-04    1.89      47.9  T
     SCC iter.                  ...        0 min,  0.319 sec
     gradient                   ...        0 min,  0.043 sec
 * total energy  :   -82.5070222 Eh     change       -0.2996333E-03 Eh
   gradient norm :     0.0053213 Eh/α   predicted    -0.2396057E-03 ( -20.03%)
   displ. norm   :     0.2766301 α      lambda       -0.2697698E-03
   maximum displ.:     0.1169014 α      in ANC's #6, #3, #4, ...

........................................................................
.............................. CYCLE   12 ..............................
........................................................................
   1    -83.7433265 -0.837433E+02  0.790E-02    1.88       0.0  T
   2    -83.7433300 -0.346388E-05  0.447E-02    1.88       1.0  T
   3    -83.7433284  0.162079E-05  0.869E-03    1.88       1.7  T
   4    -83.7433304 -0.201930E-05  0.468E-03    1.88       3.1  T
   5    -83.7433309 -0.515816E-06  0.202E-03    1.88       7.2  T
   6    -83.7433310 -0.111041E-06  0.113E-03    1.88      12.8  T
   7    -83.7433310 -0.276294E-07  0.741E-04    1.88      19.5  T
   8    -83.7433310 -0.589779E-08  0.563E-04    1.88      25.6  T
     SCC iter.                  ...        0 min,  0.258 sec
     gradient                   ...        0 min,  0.048 sec
 * total energy  :   -82.5072343 Eh     change       -0.2121533E-03 Eh
   gradient norm :     0.0068491 Eh/α   predicted    -0.1452087E-03 ( -31.55%)
   displ. norm   :     0.4244094 α      lambda       -0.4019822E-03
   maximum displ.:     0.1979907 α      in ANC's #6, #4, #3, ...

........................................................................
.............................. CYCLE   13 ..............................
........................................................................
   1    -83.7420373 -0.837420E+02  0.122E-01    1.87       0.0  T
   2    -83.7420415 -0.427545E-05  0.690E-02    1.87       1.0  T
   3    -83.7420345  0.704384E-05  0.150E-02    1.87       1.0  T
   4    -83.7420424 -0.788204E-05  0.709E-03    1.87       2.0  T
   5    -83.7420432 -0.825401E-06  0.333E-03    1.87       4.3  T
   6    -83.7420436 -0.391871E-06  0.138E-03    1.87      10.5  T
   7    -83.7420436 -0.276055E-07  0.982E-04    1.87      14.7  T
   8    -83.7420436 -0.622619E-08  0.644E-04    1.87      22.4  T
     SCC iter.                  ...        0 min,  0.262 sec
     gradient                   ...        0 min,  0.055 sec
 * total energy  :   -82.5075474 Eh     change       -0.3131117E-03 Eh
   gradient norm :     0.0078629 Eh/α   predicted    -0.2371984E-03 ( -24.24%)
   displ. norm   :     0.4424890 α      lambda       -0.4466854E-03
   maximum displ.:     0.2204889 α      in ANC's #6, #4, #3, ...

........................................................................
.............................. CYCLE   14 ..............................
........................................................................
   1    -83.7395222 -0.837395E+02  0.126E-01    1.86       0.0  T
   2    -83.7395258 -0.368868E-05  0.722E-02    1.86       1.0  T
   3    -83.7395084  0.174306E-04  0.211E-02    1.86       1.0  T
   4    -83.7395273 -0.188507E-04  0.795E-03    1.86       1.8  T
   5    -83.7395282 -0.960359E-06  0.357E-03    1.86       4.0  T
   6    -83.7395286 -0.329353E-06  0.211E-03    1.86       6.8  T
   7    -83.7395286 -0.565197E-07  0.160E-03    1.86       9.0  T
   8    -83.7395286 -0.283496E-07  0.105E-03    1.86      13.7  T
   9    -83.7395287 -0.246419E-07  0.554E-04    1.86      26.1  T
  10    -83.7395287 -0.664917E-08  0.308E-04    1.86      46.9  T
     SCC iter.                  ...        0 min,  0.322 sec
     gradient                   ...        0 min,  0.049 sec
 * total energy  :   -82.5079009 Eh     change       -0.3534190E-03 Eh
   gradient norm :     0.0093819 Eh/α   predicted    -0.2670780E-03 ( -24.43%)
   displ. norm   :     0.4498111 α      lambda       -0.5080163E-03
   maximum displ.:     0.2325121 α      in ANC's #6, #4, #3, ...

........................................................................
.............................. CYCLE   15 ..............................
........................................................................
   1    -83.7395932 -0.837396E+02  0.135E-01    1.85       0.0  T
   2    -83.7396006 -0.741350E-05  0.768E-02    1.85       1.0  T
   3    -83.7395872  0.133711E-04  0.201E-02    1.85       1.0  T
   4    -83.7396014 -0.141703E-04  0.946E-03    1.85       1.5  T
   5    -83.7396034 -0.201562E-05  0.391E-03    1.85       3.7  T
   6    -83.7396036 -0.226978E-06  0.271E-03    1.85       5.3  T
   7    -83.7396037 -0.117050E-06  0.197E-03    1.85       7.3  T
   8    -83.7396038 -0.507694E-07  0.133E-03    1.85      10.8  T
   9    -83.7396038 -0.337768E-07  0.695E-04    1.85      20.8  T
  10    -83.7396038 -0.129286E-07  0.395E-04    1.85      36.5  T
     SCC iter.                  ...        0 min,  0.323 sec
     gradient                   ...        0 min,  0.041 sec
 * total energy  :   -82.5082973 Eh     change       -0.3964094E-03 Eh
   gradient norm :     0.0093045 Eh/α   predicted    -0.3054029E-03 ( -22.96%)
   displ. norm   :     0.4850580 α      lambda       -0.4701510E-03
   maximum displ.:     0.2485879 α      in ANC's #6, #3, #4, ...

........................................................................
.............................. CYCLE   16 ..............................
........................................................................
   1    -83.7384017 -0.837384E+02  0.146E-01    1.84       0.0  T
   2    -83.7384083 -0.665170E-05  0.829E-02    1.84       1.0  T
   3    -83.7384016  0.679054E-05  0.169E-02    1.84       1.0  T
   4    -83.7384085 -0.698088E-05  0.929E-03    1.84       1.6  T
   5    -83.7384105 -0.201629E-05  0.351E-03    1.84       4.1  T
   6    -83.7384108 -0.260688E-06  0.226E-03    1.84       6.4  T
   7    -83.7384109 -0.658538E-07  0.163E-03    1.84       8.9  T
   8    -83.7384109 -0.219225E-07  0.116E-03    1.84      12.5  T
   9    -83.7384109 -0.300629E-07  0.559E-04    1.84      25.8  T
  10    -83.7384109 -0.718707E-08  0.309E-04    1.84      46.7  T
     SCC iter.                  ...        0 min,  0.319 sec
     gradient                   ...        0 min,  0.040 sec
 * total energy  :   -82.5086625 Eh     change       -0.3652167E-03 Eh
   gradient norm :     0.0089068 Eh/α   predicted    -0.2903871E-03 ( -20.49%)
   displ. norm   :     0.4202046 α      lambda       -0.5141865E-03
   maximum displ.:     0.2146029 α      in ANC's #6, #3, #4, ...

........................................................................
.............................. CYCLE   17 ..............................
........................................................................
   1    -83.7464671 -0.837465E+02  0.126E-01    1.84       0.0  T
   2    -83.7464790 -0.119219E-04  0.713E-02    1.84       1.0  T
   3    -83.7464737  0.530299E-05  0.163E-02    1.84       1.0  T
   4    -83.7464792 -0.550798E-05  0.930E-03    1.84       1.6  T
   5    -83.7464815 -0.229033E-05  0.403E-03    1.84       3.6  T
   6    -83.7464818 -0.315269E-06  0.257E-03    1.84       5.6  T
   7    -83.7464819 -0.128009E-06  0.170E-03    1.84       8.5  T
   8    -83.7464820 -0.265317E-07  0.124E-03    1.84      11.7  T
   9    -83.7464820 -0.240817E-07  0.659E-04    1.84      21.9  T
  10    -83.7464820 -0.107644E-07  0.365E-04    1.84      39.5  T
     SCC iter.                  ...        0 min,  0.428 sec
     gradient                   ...        0 min,  0.048 sec
 * total energy  :   -82.5089127 Eh     change       -0.2501768E-03 Eh
   gradient norm :     0.0087995 Eh/α   predicted    -0.3024927E-03 (  20.91%)
   displ. norm   :     0.6454549 α      lambda       -0.5869851E-03
   maximum displ.:     0.3236686 α      in ANC's #6, #3, #4, ...

........................................................................
.............................. CYCLE   18 ..............................
........................................................................
   1    -83.7375170 -0.837375E+02  0.193E-01    1.82       0.0  T
   2    -83.7375297 -0.126666E-04  0.109E-01    1.81       1.0  T
   3    -83.7375023  0.273939E-04  0.286E-02    1.82       1.0  T
   4    -83.7375348 -0.325232E-04  0.103E-02    1.81       1.4  T
   5    -83.7375354 -0.541210E-06  0.535E-03    1.81       2.7  T
   6    -83.7375363 -0.959675E-06  0.283E-03    1.81       5.1  T
   7    -83.7375365 -0.161031E-06  0.190E-03    1.81       7.6  T
   8    -83.7375365 -0.299112E-07  0.116E-03    1.81      12.5  T
   9    -83.7375366 -0.257625E-07  0.606E-04    1.81      23.8  T
  10    -83.7375366 -0.447254E-08  0.352E-04    1.81      41.0  T
     SCC iter.                  ...        0 min,  0.428 sec
     gradient                   ...        0 min,  0.054 sec
 * total energy  :   -82.5091920 Eh     change       -0.2793366E-03 Eh
   gradient norm :     0.0114466 Eh/α   predicted    -0.4157691E-03 (  48.84%)
   displ. norm   :     0.1100867 α      lambda       -0.3071985E-03
   maximum displ.:     0.0555413 α      in ANC's #3, #5, #6, ...

........................................................................
.............................. CYCLE   19 ..............................
........................................................................
   1    -83.7417039 -0.837417E+02  0.363E-02    1.82       0.0  T
   2    -83.7417067 -0.284530E-05  0.208E-02    1.82       1.0  T
   3    -83.7417035  0.317297E-05  0.102E-02    1.82       1.4  T
   4    -83.7417077 -0.418290E-05  0.324E-03    1.82       4.5  T
   5    -83.7417079 -0.132426E-06  0.206E-03    1.82       7.0  T
   6    -83.7417080 -0.107013E-06  0.127E-03    1.82      11.4  T
   7    -83.7417080 -0.223420E-07  0.902E-04    1.82      16.0  T
   8    -83.7417080 -0.111343E-07  0.686E-04    1.82      21.1  T
     SCC iter.                  ...        0 min,  0.345 sec
     gradient                   ...        0 min,  0.047 sec
 * total energy  :   -82.5094295 Eh     change       -0.2374881E-03 Eh
   gradient norm :     0.0068530 Eh/α   predicted    -0.1554648E-03 ( -34.54%)
   displ. norm   :     0.4925456 α      lambda       -0.5545431E-03
   maximum displ.:     0.2522613 α      in ANC's #6, #3, #5, ...

........................................................................
.............................. CYCLE   20 ..............................
........................................................................
   1    -83.7474273 -0.837474E+02  0.135E-01    1.81       0.0  T
   2    -83.7474380 -0.106566E-04  0.758E-02    1.81       1.0  T
   3    -83.7474294  0.864004E-05  0.175E-02    1.81       1.0  T
   4    -83.7474383 -0.893568E-05  0.949E-03    1.81       1.5  T
   5    -83.7474410 -0.274588E-05  0.368E-03    1.81       3.9  T
   6    -83.7474412 -0.139134E-06  0.244E-03    1.81       5.9  T
   7    -83.7474413 -0.104014E-06  0.175E-03    1.81       8.2  T
   8    -83.7474413 -0.296473E-07  0.126E-03    1.81      11.4  T
   9    -83.7474413 -0.346386E-07  0.733E-04    1.81      19.7  T
  10    -83.7474414 -0.117048E-07  0.439E-04    1.81      32.8  T
     SCC iter.                  ...        0 min,  0.428 sec
     gradient                   ...        0 min,  0.057 sec
 * total energy  :   -82.5097255 Eh     change       -0.2959677E-03 Eh
   gradient norm :     0.0090158 Eh/α   predicted    -0.3445399E-03 (  16.41%)
   displ. norm   :     0.5624695 α      lambda       -0.5128940E-03
   maximum displ.:     0.2882477 α      in ANC's #3, #6, #5, ...
 * RMSD in coord.:     0.8153779 α      energy gain  -0.3771749E-01 Eh

generating ANC from model Hessian ...
Using Lindh-Hessian (1995)
 Shifting diagonal of input Hessian by    1.0126561276637882E-002
 Lowest  eigenvalues of input Hessian
    0.010000    0.000000    0.000000    0.000000    0.000000    0.000000
    0.000000    0.010162    0.010347    0.010423    0.010564    0.010606
    0.010726    0.011187    0.011398    0.011875    0.012002    0.012890
 Highest eigenvalues
    1.904115    1.934164    1.980517    2.016741    2.640966    2.653190


........................................................................
.............................. CYCLE   21 ..............................
........................................................................
   1    -83.7459117 -0.837459E+02  0.139E-01    1.81       0.0  T
   2    -83.7459204 -0.870981E-05  0.785E-02    1.81       1.0  T
   3    -83.7459157  0.471399E-05  0.152E-02    1.81       1.0  T
   4    -83.7459203 -0.457652E-05  0.864E-03    1.81       1.7  T
   5    -83.7459225 -0.216804E-05  0.314E-03    1.81       4.6  T
   6    -83.7459226 -0.171652E-06  0.164E-03    1.81       8.8  T
   7    -83.7459227 -0.529795E-07  0.111E-03    1.81      13.0  T
   8    -83.7459227 -0.102538E-07  0.756E-04    1.81      19.1  T
   9    -83.7459227 -0.983890E-08  0.467E-04    1.81      30.9  T
     SCC iter.                  ...        0 min,  0.385 sec
     gradient                   ...        0 min,  0.049 sec
 * total energy  :   -82.5100269 Eh     change       -0.3014532E-03 Eh
   gradient norm :     0.0089934 Eh/α   predicted     0.0000000E+00 (-100.00%)
   displ. norm   :     0.0860832 α      lambda       -0.2425282E-03
   maximum displ.:     0.0388858 α      in ANC's #12, #6, #3, ...

........................................................................
.............................. CYCLE   22 ..............................
........................................................................
   1    -83.7465167 -0.837465E+02  0.374E-02    1.81       0.0  T
   2    -83.7465184 -0.166434E-05  0.218E-02    1.81       1.0  T
   3    -83.7465159  0.243526E-05  0.972E-03    1.81       1.5  T
   4    -83.7465192 -0.325325E-05  0.420E-03    1.81       3.4  T
   5    -83.7465194 -0.252044E-06  0.294E-03    1.81       4.9  T
   6    -83.7465195 -0.433820E-07  0.215E-03    1.81       6.7  T
   7    -83.7465196 -0.873403E-07  0.124E-03    1.81      11.6  T
   8    -83.7465196 -0.167890E-07  0.655E-04    1.81      22.0  T
   9    -83.7465196 -0.134037E-07  0.226E-04    1.81      63.8  T
     SCC iter.                  ...        0 min,  0.392 sec
     gradient                   ...        0 min,  0.047 sec
 * total energy  :   -82.5101850 Eh     change       -0.1580685E-03 Eh
   gradient norm :     0.0039933 Eh/α   predicted    -0.1222888E-03 ( -22.64%)
   displ. norm   :     0.1544974 α      lambda       -0.2058711E-03
   maximum displ.:     0.0611272 α      in ANC's #3, #15, #6, ...

........................................................................
.............................. CYCLE   23 ..............................
........................................................................
   1    -83.7466486 -0.837466E+02  0.792E-02    1.80       0.0  T
   2    -83.7466527 -0.417161E-05  0.444E-02    1.81       1.0  T
   3    -83.7466445  0.824259E-05  0.149E-02    1.80       1.0  T
   4    -83.7466547 -0.102183E-04  0.431E-03    1.81       3.3  T
   5    -83.7466550 -0.296687E-06  0.258E-03    1.81       5.6  T
   6    -83.7466551 -0.692925E-07  0.184E-03    1.81       7.9  T
   7    -83.7466551 -0.619096E-07  0.120E-03    1.81      12.0  T
   8    -83.7466551 -0.125229E-07  0.809E-04    1.81      17.8  T
   9    -83.7466552 -0.140809E-07  0.364E-04    1.81      39.7  T
     SCC iter.                  ...        0 min,  0.396 sec
     gradient                   ...        0 min,  0.048 sec
 * total energy  :   -82.5102859 Eh     change       -0.1009442E-03 Eh
   gradient norm :     0.0048456 Eh/α   predicted    -0.1053921E-03 (   4.41%)
   displ. norm   :     0.1921180 α      lambda       -0.1961332E-03
   maximum displ.:     0.1028009 α      in ANC's #6, #3, #12, ...

........................................................................
.............................. CYCLE   24 ..............................
........................................................................
   1    -83.7460889 -0.837461E+02  0.875E-02    1.80       0.0  T
   2    -83.7460935 -0.457282E-05  0.488E-02    1.80       1.0  T
   3    -83.7460918  0.173161E-05  0.102E-02    1.80       1.4  T
   4    -83.7460952 -0.346261E-05  0.495E-03    1.80       2.9  T
   5    -83.7460956 -0.372243E-06  0.296E-03    1.80       4.9  T
   6    -83.7460957 -0.943520E-07  0.218E-03    1.80       6.6  T
   7    -83.7460958 -0.698820E-07  0.146E-03    1.80       9.9  T
   8    -83.7460958 -0.289906E-07  0.735E-04    1.80      19.6  T
   9    -83.7460958 -0.107192E-07  0.358E-04    1.80      40.4  T
     SCC iter.                  ...        0 min,  0.396 sec
     gradient                   ...        0 min,  0.049 sec
 * total energy  :   -82.5103758 Eh     change       -0.8990073E-04 Eh
   gradient norm :     0.0069593 Eh/α   predicted    -0.1016862E-03 (  13.11%)
   displ. norm   :     0.1885849 α      lambda       -0.1890301E-03
   maximum displ.:     0.0881937 α      in ANC's #3, #6, #15, ...

........................................................................
.............................. CYCLE   25 ..............................
........................................................................
   1    -83.7451690 -0.837452E+02  0.648E-02    1.80       0.0  T
   2    -83.7451713 -0.236473E-05  0.362E-02    1.80       1.0  T
   3    -83.7451707  0.604138E-06  0.669E-03    1.80       2.2  T
   4    -83.7451718 -0.108885E-05  0.397E-03    1.80       3.6  T
   5    -83.7451722 -0.376357E-06  0.194E-03    1.80       7.4  T
   6    -83.7451722 -0.442213E-07  0.135E-03    1.80      10.7  T
   7    -83.7451722 -0.256806E-07  0.973E-04    1.80      14.8  T
   8    -83.7451723 -0.107704E-07  0.594E-04    1.80      24.3  T
     SCC iter.                  ...        0 min,  0.356 sec
     gradient                   ...        0 min,  0.050 sec
 * total energy  :   -82.5105007 Eh     change       -0.1248635E-03 Eh
   gradient norm :     0.0058997 Eh/α   predicted    -0.9787698E-04 ( -21.61%)
   displ. norm   :     0.3455696 α      lambda       -0.3231166E-03
   maximum displ.:     0.1709797 α      in ANC's #6, #3, #12, ...

........................................................................
.............................. CYCLE   26 ..............................
........................................................................
   1    -83.7424128 -0.837424E+02  0.124E-01    1.79       0.0  T
   2    -83.7424209 -0.808847E-05  0.692E-02    1.79       1.0  T
   3    -83.7424158  0.508806E-05  0.151E-02    1.79       1.0  T
   4    -83.7424236 -0.779352E-05  0.675E-03    1.79       2.1  T
   5    -83.7424242 -0.683522E-06  0.344E-03    1.79       4.2  T
   6    -83.7424244 -0.129358E-06  0.238E-03    1.79       6.1  T
   7    -83.7424245 -0.908261E-07  0.170E-03    1.79       8.5  T
   8    -83.7424245 -0.307673E-07  0.106E-03    1.79      13.6  T
   9    -83.7424245 -0.243950E-07  0.583E-04    1.79      24.7  T
  10    -83.7424245 -0.590012E-08  0.333E-04    1.79      43.4  T
     SCC iter.                  ...        0 min,  0.432 sec
     gradient                   ...        0 min,  0.053 sec
 * total energy  :   -82.5106011 Eh     change       -0.1004066E-03 Eh
   gradient norm :     0.0079579 Eh/α   predicted    -0.1808487E-03 (  80.12%)
   displ. norm   :     0.1668651 α      lambda       -0.2317375E-03
   maximum displ.:     0.0803001 α      in ANC's #3, #6, #4, ...

........................................................................
.............................. CYCLE   27 ..............................
........................................................................
   1    -83.7434914 -0.837435E+02  0.692E-02    1.79       0.0  T
   2    -83.7434940 -0.257179E-05  0.391E-02    1.79       1.0  T
   3    -83.7434913  0.269240E-05  0.104E-02    1.79       1.4  T
   4    -83.7434955 -0.425699E-05  0.471E-03    1.79       3.1  T
   5    -83.7434957 -0.197739E-06  0.318E-03    1.79       4.5  T
   6    -83.7434958 -0.106096E-06  0.226E-03    1.79       6.4  T
   7    -83.7434959 -0.781242E-07  0.141E-03    1.79      10.2  T
   8    -83.7434959 -0.304660E-07  0.675E-04    1.79      21.4  T
   9    -83.7434960 -0.122452E-07  0.279E-04    1.79      51.7  T
     SCC iter.                  ...        0 min,  0.389 sec
     gradient                   ...        0 min,  0.054 sec
 * total energy  :   -82.5107626 Eh     change       -0.1615200E-03 Eh
   gradient norm :     0.0062917 Eh/α   predicted    -0.1190954E-03 ( -26.27%)
   displ. norm   :     0.2687580 α      lambda       -0.2111949E-03
   maximum displ.:     0.1421235 α      in ANC's #6, #3, #7, ...

........................................................................
.............................. CYCLE   28 ..............................
........................................................................
   1    -83.7447912 -0.837448E+02  0.706E-02    1.78       0.0  T
   2    -83.7447932 -0.193124E-05  0.399E-02    1.78       1.0  T
   3    -83.7447914  0.171267E-05  0.795E-03    1.78       1.8  T
   4    -83.7447935 -0.207714E-05  0.401E-03    1.78       3.6  T
   5    -83.7447939 -0.371897E-06  0.180E-03    1.78       8.0  T
   6    -83.7447939 -0.490484E-07  0.116E-03    1.78      12.5  T
   7    -83.7447940 -0.193833E-07  0.829E-04    1.78      17.4  T
   8    -83.7447940 -0.536110E-08  0.526E-04    1.78      27.4  T
     SCC iter.                  ...        0 min,  0.345 sec
     gradient                   ...        0 min,  0.048 sec
 * total energy  :   -82.5109299 Eh     change       -0.1672996E-03 Eh
   gradient norm :     0.0041233 Eh/α   predicted    -0.1132303E-03 ( -32.32%)
   displ. norm   :     0.5018582 α      lambda       -0.2761225E-03
   maximum displ.:     0.2714967 α      in ANC's #6, #3, #7, ...

........................................................................
.............................. CYCLE   29 ..............................
........................................................................
   1    -83.7444923 -0.837445E+02  0.116E-01    1.77       0.0  T
   2    -83.7444956 -0.329119E-05  0.656E-02    1.77       1.0  T
   3    -83.7444924  0.314730E-05  0.118E-02    1.77       1.2  T
   4    -83.7444959 -0.350882E-05  0.646E-03    1.77       2.2  T
   5    -83.7444969 -0.959830E-06  0.246E-03    1.77       5.9  T
   6    -83.7444970 -0.111033E-06  0.160E-03    1.77       9.0  T
   7    -83.7444970 -0.278757E-07  0.118E-03    1.77      12.3  T
   8    -83.7444971 -0.165820E-07  0.599E-04    1.77      24.1  T
   9    -83.7444971 -0.640769E-08  0.346E-04    1.77      41.7  T
     SCC iter.                  ...        0 min,  0.387 sec
     gradient                   ...        0 min,  0.050 sec
 * total energy  :   -82.5111592 Eh     change       -0.2292703E-03 Eh
   gradient norm :     0.0047084 Eh/α   predicted    -0.1728391E-03 ( -24.61%)
   displ. norm   :     0.5730391 α      lambda       -0.3290577E-03
   maximum displ.:     0.3098107 α      in ANC's #6, #3, #7, ...

........................................................................
.............................. CYCLE   30 ..............................
........................................................................
   1    -83.7456181 -0.837456E+02  0.121E-01    1.77       0.0  T
   2    -83.7456222 -0.411808E-05  0.686E-02    1.77       1.0  T
   3    -83.7456195  0.270600E-05  0.122E-02    1.77       1.2  T
   4    -83.7456225 -0.297328E-05  0.715E-03    1.77       2.0  T
   5    -83.7456237 -0.124644E-05  0.294E-03    1.77       4.9  T
   6    -83.7456239 -0.127482E-06  0.202E-03    1.77       7.1  T
   7    -83.7456239 -0.475851E-07  0.151E-03    1.77       9.6  T
   8    -83.7456239 -0.245714E-07  0.933E-04    1.77      15.5  T
   9    -83.7456239 -0.232939E-07  0.513E-04    1.77      28.1  T
     SCC iter.                  ...        0 min,  0.384 sec
     gradient                   ...        0 min,  0.048 sec
 * total energy  :   -82.5114266 Eh     change       -0.2673791E-03 Eh
   gradient norm :     0.0054582 Eh/α   predicted    -0.2185571E-03 ( -18.26%)
   displ. norm   :     0.6706175 α      lambda       -0.3264031E-03
   maximum displ.:     0.3567586 α      in ANC's #6, #3, #7, ...

........................................................................
.............................. CYCLE   31 ..............................
........................................................................
   1    -83.7411531 -0.837412E+02  0.140E-01    1.76       0.0  T
   2    -83.7411586 -0.550505E-05  0.792E-02    1.76       1.0  T
   3    -83.7411538  0.478428E-05  0.149E-02    1.76       1.0  T
   4    -83.7411594 -0.555135E-05  0.811E-03    1.76       1.8  T
   5    -83.7411605 -0.119152E-05  0.389E-03    1.76       3.7  T
   6    -83.7411609 -0.363523E-06  0.230E-03    1.76       6.3  T
   7    -83.7411610 -0.766545E-07  0.164E-03    1.76       8.8  T
   8    -83.7411610 -0.287596E-07  0.892E-04    1.76      16.2  T
   9    -83.7411610 -0.183765E-07  0.503E-04    1.76      28.7  T
     SCC iter.                  ...        0 min,  0.384 sec
     gradient                   ...        0 min,  0.050 sec
 * total energy  :   -82.5116677 Eh     change       -0.2411243E-03 Eh
   gradient norm :     0.0079535 Eh/α   predicted    -0.2366023E-03 (  -1.88%)
   displ. norm   :     0.5056824 α      lambda       -0.4528145E-03
   maximum displ.:     0.2794127 α      in ANC's #3, #6, #7, ...

........................................................................
.............................. CYCLE   32 ..............................
........................................................................
   1    -83.7483351 -0.837483E+02  0.111E-01    1.76       0.0  T
   2    -83.7483440 -0.890417E-05  0.617E-02    1.76       1.0  T
   3    -83.7483385  0.548279E-05  0.158E-02    1.76       1.0  T
   4    -83.7483459 -0.737924E-05  0.818E-03    1.76       1.8  T
   5    -83.7483472 -0.134375E-05  0.463E-03    1.76       3.1  T
   6    -83.7483475 -0.268896E-06  0.315E-03    1.76       4.6  T
   7    -83.7483476 -0.130786E-06  0.235E-03    1.76       6.1  T
   8    -83.7483477 -0.862299E-07  0.146E-03    1.76       9.9  T
   9    -83.7483477 -0.455879E-07  0.748E-04    1.76      19.3  T
  10    -83.7483478 -0.109823E-07  0.417E-04    1.76      34.6  T
     SCC iter.                  ...        0 min,  0.426 sec
     gradient                   ...        0 min,  0.052 sec
 * total energy  :   -82.5118883 Eh     change       -0.2206226E-03 Eh
   gradient norm :     0.0079713 Eh/α   predicted    -0.2843081E-03 (  28.87%)
   displ. norm   :     0.5617396 α      lambda       -0.3003513E-03
   maximum displ.:     0.3082044 α      in ANC's #3, #6, #7, ...

........................................................................
.............................. CYCLE   33 ..............................
........................................................................
   1    -83.7423994 -0.837424E+02  0.120E-01    1.74       0.0  T
   2    -83.7424038 -0.437508E-05  0.683E-02    1.74       1.0  T
   3    -83.7423971  0.669904E-05  0.149E-02    1.74       1.0  T
   4    -83.7424051 -0.795235E-05  0.627E-03    1.74       2.3  T
   5    -83.7424054 -0.326845E-06  0.329E-03    1.74       4.4  T
   6    -83.7424058 -0.392906E-06  0.143E-03    1.74      10.1  T
   7    -83.7424058 -0.346819E-07  0.951E-04    1.74      15.2  T
   8    -83.7424058 -0.487681E-08  0.649E-04    1.74      22.2  T
     SCC iter.                  ...        0 min,  0.327 sec
     gradient                   ...        0 min,  0.045 sec
 * total energy  :   -82.5121085 Eh     change       -0.2201752E-03 Eh
   gradient norm :     0.0065124 Eh/α   predicted    -0.1975657E-03 ( -10.27%)
   displ. norm   :     0.3561108 α      lambda       -0.2666276E-03
   maximum displ.:     0.2113947 α      in ANC's #3, #6, #7, ...

........................................................................
.............................. CYCLE   34 ..............................
........................................................................
   1    -83.7429079 -0.837429E+02  0.863E-02    1.74       0.0  T
   2    -83.7429114 -0.353147E-05  0.486E-02    1.74       1.0  T
   3    -83.7429071  0.432211E-05  0.117E-02    1.74       1.2  T
   4    -83.7429123 -0.526198E-05  0.469E-03    1.74       3.1  T
   5    -83.7429128 -0.416193E-06  0.210E-03    1.74       6.9  T
   6    -83.7429129 -0.940320E-07  0.116E-03    1.74      12.5  T
   7    -83.7429129 -0.309332E-07  0.678E-04    1.74      21.3  T
   8    -83.7429129 -0.268251E-08  0.504E-04    1.74      28.7  T
     SCC iter.                  ...        0 min,  0.255 sec
     gradient                   ...        0 min,  0.046 sec
 * total energy  :   -82.5122969 Eh     change       -0.1883763E-03 Eh
   gradient norm :     0.0067584 Eh/α   predicted    -0.1502207E-03 ( -20.25%)
   displ. norm   :     0.4645827 α      lambda       -0.2541080E-03
   maximum displ.:     0.2808985 α      in ANC's #3, #6, #7, ...

........................................................................
.............................. CYCLE   35 ..............................
........................................................................
   1    -83.7433777 -0.837434E+02  0.958E-02    1.73       0.0  T
   2    -83.7433812 -0.351334E-05  0.539E-02    1.73       1.0  T
   3    -83.7433767  0.448781E-05  0.121E-02    1.73       1.2  T
   4    -83.7433819 -0.517119E-05  0.567E-03    1.73       2.5  T
   5    -83.7433827 -0.790258E-06  0.203E-03    1.73       7.1  T
   6    -83.7433827 -0.480001E-07  0.128E-03    1.73      11.2  T
   7    -83.7433827 -0.258984E-07  0.914E-04    1.73      15.8  T
   8    -83.7433827 -0.772225E-08  0.613E-04    1.73      23.5  T
     SCC iter.                  ...        0 min,  0.259 sec
     gradient                   ...        0 min,  0.052 sec
 * total energy  :   -82.5124809 Eh     change       -0.1840468E-03 Eh
   gradient norm :     0.0072598 Eh/α   predicted    -0.1544805E-03 ( -16.06%)
   displ. norm   :     0.4610895 α      lambda       -0.2586695E-03
   maximum displ.:     0.2919559 α      in ANC's #3, #6, #7, ...

........................................................................
.............................. CYCLE   36 ..............................
........................................................................
   1    -83.7469263 -0.837469E+02  0.899E-02    1.73       0.0  T
   2    -83.7469298 -0.351334E-05  0.503E-02    1.73       1.0  T
   3    -83.7469259  0.386395E-05  0.117E-02    1.73       1.2  T
   4    -83.7469302 -0.424263E-05  0.579E-03    1.73       2.5  T
   5    -83.7469311 -0.898877E-06  0.210E-03    1.73       6.9  T
   6    -83.7469312 -0.703545E-07  0.109E-03    1.73      13.2  T
   7    -83.7469312 -0.306354E-07  0.656E-04    1.73      22.0  T
   8    -83.7469312 -0.313210E-08  0.433E-04    1.73      33.4  T
     SCC iter.                  ...        0 min,  0.255 sec
     gradient                   ...        0 min,  0.037 sec
 * total energy  :   -82.5126639 Eh     change       -0.1830243E-03 Eh
   gradient norm :     0.0058871 Eh/α   predicted    -0.1568323E-03 ( -14.31%)
   displ. norm   :     0.6834106 α      lambda       -0.2528488E-03
   maximum displ.:     0.4227934 α      in ANC's #3, #6, #7, ...

........................................................................
.............................. CYCLE   37 ..............................
........................................................................
   1    -83.7426709 -0.837427E+02  0.129E-01    1.72       0.0  T
   2    -83.7426754 -0.452991E-05  0.726E-02    1.72       1.0  T
   3    -83.7426699  0.557481E-05  0.144E-02    1.72       1.0  T
   4    -83.7426765 -0.658963E-05  0.688E-03    1.72       2.1  T
   5    -83.7426772 -0.720394E-06  0.300E-03    1.72       4.8  T
   6    -83.7426775 -0.316598E-06  0.140E-03    1.72      10.3  T
   7    -83.7426775 -0.275910E-07  0.980E-04    1.72      14.7  T
   8    -83.7426775 -0.360697E-08  0.671E-04    1.72      21.5  T
     SCC iter.                  ...        0 min,  0.342 sec
     gradient                   ...        0 min,  0.042 sec
 * total energy  :   -82.5128519 Eh     change       -0.1879975E-03 Eh
   gradient norm :     0.0065086 Eh/α   predicted    -0.1854753E-03 (  -1.34%)
   displ. norm   :     0.4660283 α      lambda       -0.2886455E-03
   maximum displ.:     0.3191881 α      in ANC's #3, #6, #7, ...

........................................................................
.............................. CYCLE   38 ..............................
........................................................................
   1    -83.7471079 -0.837471E+02  0.884E-02    1.73       0.0  T
   2    -83.7471111 -0.326806E-05  0.499E-02    1.73       1.0  T
   3    -83.7471091  0.200288E-05  0.102E-02    1.73       1.4  T
   4    -83.7471117 -0.253195E-05  0.524E-03    1.73       2.8  T
   5    -83.7471122 -0.514060E-06  0.228E-03    1.73       6.3  T
   6    -83.7471123 -0.898721E-07  0.145E-03    1.73       9.9  T
   7    -83.7471123 -0.322637E-07  0.104E-03    1.73      13.9  T
   8    -83.7471123 -0.110941E-07  0.672E-04    1.73      21.5  T
   9    -83.7471123 -0.921689E-08  0.337E-04    1.73      42.8  T
     SCC iter.                  ...        0 min,  0.388 sec
     gradient                   ...        0 min,  0.052 sec
 * total energy  :   -82.5130315 Eh     change       -0.1795683E-03 Eh
   gradient norm :     0.0066279 Eh/α   predicted    -0.1756699E-03 (  -2.17%)
   displ. norm   :     0.5798585 α      lambda       -0.2108347E-03
   maximum displ.:     0.3815284 α      in ANC's #3, #6, #7, ...

........................................................................
.............................. CYCLE   39 ..............................
........................................................................
   1    -83.7438043 -0.837438E+02  0.105E-01    1.72       0.0  T
   2    -83.7438086 -0.424071E-05  0.590E-02    1.72       1.0  T
   3    -83.7438067  0.181345E-05  0.108E-02    1.72       1.3  T
   4    -83.7438091 -0.234871E-05  0.616E-03    1.72       2.3  T
   5    -83.7438099 -0.835611E-06  0.234E-03    1.72       6.2  T
   6    -83.7438100 -0.830058E-07  0.150E-03    1.72       9.6  T
   7    -83.7438100 -0.260170E-07  0.112E-03    1.72      12.9  T
   8    -83.7438100 -0.160678E-07  0.707E-04    1.72      20.4  T
   9    -83.7438101 -0.931186E-08  0.426E-04    1.72      33.9  T
     SCC iter.                  ...        0 min,  0.388 sec
     gradient                   ...        0 min,  0.046 sec
 * total energy  :   -82.5131834 Eh     change       -0.1518743E-03 Eh
   gradient norm :     0.0058822 Eh/α   predicted    -0.1408683E-03 (  -7.25%)
   displ. norm   :     0.4244649 α      lambda       -0.1880323E-03
   maximum displ.:     0.2920365 α      in ANC's #3, #6, #7, ...

........................................................................
.............................. CYCLE   40 ..............................
........................................................................
   1    -83.7454884 -0.837455E+02  0.775E-02    1.72       0.0  T
   2    -83.7454918 -0.343128E-05  0.436E-02    1.72       1.0  T
   3    -83.7454887  0.311401E-05  0.110E-02    1.72       1.3  T
   4    -83.7454922 -0.351821E-05  0.558E-03    1.72       2.6  T
   5    -83.7454929 -0.666673E-06  0.274E-03    1.72       5.3  T
   6    -83.7454930 -0.161524E-06  0.180E-03    1.72       8.0  T
   7    -83.7454931 -0.485859E-07  0.126E-03    1.72      11.4  T
   8    -83.7454931 -0.179584E-07  0.843E-04    1.72      17.1  T
   9    -83.7454931 -0.117100E-07  0.444E-04    1.72      32.5  T
     SCC iter.                  ...        0 min,  0.384 sec
     gradient                   ...        0 min,  0.047 sec
 * total energy  :   -82.5133113 Eh     change       -0.1278888E-03 Eh
   gradient norm :     0.0050820 Eh/α   predicted    -0.1109588E-03 ( -13.24%)
   displ. norm   :     0.5539260 α      lambda       -0.1633137E-03
   maximum displ.:     0.3757246 α      in ANC's #3, #6, #7, ...

........................................................................
.............................. CYCLE   41 ..............................
........................................................................
   1    -83.7435065 -0.837435E+02  0.994E-02    1.72       0.0  T
   2    -83.7435103 -0.382143E-05  0.561E-02    1.72       1.0  T
   3    -83.7435091  0.119773E-05  0.102E-02    1.72       1.4  T
   4    -83.7435107 -0.160202E-05  0.614E-03    1.72       2.4  T
   5    -83.7435115 -0.748507E-06  0.277E-03    1.72       5.2  T
   6    -83.7435116 -0.148165E-06  0.180E-03    1.72       8.0  T
   7    -83.7435116 -0.324886E-07  0.139E-03    1.72      10.4  T
   8    -83.7435117 -0.257604E-07  0.831E-04    1.72      17.4  T
   9    -83.7435117 -0.141502E-07  0.434E-04    1.72      33.3  T
     SCC iter.                  ...        0 min,  0.287 sec
     gradient                   ...        0 min,  0.045 sec
 * total energy  :   -82.5134098 Eh     change       -0.9858394E-04 Eh
   gradient norm :     0.0062057 Eh/α   predicted    -0.1067171E-03 (   8.25%)
   displ. norm   :     0.2607086 α      lambda       -0.1242428E-03
   maximum displ.:     0.1802169 α      in ANC's #3, #5, #6, ...

........................................................................
.............................. CYCLE   42 ..............................
........................................................................
   1    -83.7483187 -0.837483E+02  0.506E-02    1.72       0.0  T
   2    -83.7483202 -0.152163E-05  0.288E-02    1.72       1.0  T
   3    -83.7483175  0.277696E-05  0.915E-03    1.72       1.6  T
   4    -83.7483208 -0.330360E-05  0.357E-03    1.72       4.0  T
   5    -83.7483209 -0.171090E-06  0.221E-03    1.72       6.5  T
   6    -83.7483211 -0.121806E-06  0.129E-03    1.72      11.2  T
   7    -83.7483211 -0.155043E-07  0.960E-04    1.72      15.0  T
   8    -83.7483211 -0.120419E-07  0.612E-04    1.72      23.6  T
     SCC iter.                  ...        0 min,  0.256 sec
     gradient                   ...        0 min,  0.050 sec
 * total energy  :   -82.5134719 Eh     change       -0.6202081E-04 Eh
   gradient norm :     0.0052553 Eh/α   predicted    -0.6634465E-04 (   6.97%)
   displ. norm   :     0.4312181 α      lambda       -0.1269132E-03
   maximum displ.:     0.2917145 α      in ANC's #3, #6, #7, ...
 * RMSD in coord.:     1.2027100 α      energy gain  -0.3746409E-02 Eh

generating ANC from model Hessian ...
Using Lindh-Hessian (1995)
 Shifting diagonal of input Hessian by    1.0108188640053516E-002
 Lowest  eigenvalues of input Hessian
    0.010000    0.000000    0.000000    0.000000    0.000000    0.000000
    0.000000    0.010147    0.010235    0.010267    0.010338    0.010494
    0.010537    0.010793    0.011526    0.011653    0.011989    0.013001
 Highest eigenvalues
    1.909508    1.936975    1.986617    2.015486    2.638552    2.652639


........................................................................
.............................. CYCLE   43 ..............................
........................................................................
   1    -83.7459361 -0.837459E+02  0.829E-02    1.71       0.0  T
   2    -83.7459383 -0.222208E-05  0.470E-02    1.71       1.0  T
   3    -83.7459346  0.371302E-05  0.113E-02    1.71       1.3  T
   4    -83.7459393 -0.470577E-05  0.449E-03    1.71       3.2  T
   5    -83.7459394 -0.134389E-06  0.244E-03    1.71       5.9  T
   6    -83.7459395 -0.128815E-06  0.153E-03    1.71       9.4  T
   7    -83.7459396 -0.240447E-07  0.112E-03    1.71      12.9  T
   8    -83.7459396 -0.134718E-07  0.638E-04    1.71      22.6  T
   9    -83.7459396 -0.118566E-07  0.339E-04    1.71      42.6  T
     SCC iter.                  ...        0 min,  0.278 sec
     gradient                   ...        0 min,  0.038 sec
 * total energy  :   -82.5135234 Eh     change       -0.5151769E-04 Eh
   gradient norm :     0.0061432 Eh/α   predicted     0.0000000E+00 (-100.00%)
   displ. norm   :     0.0514648 α      lambda       -0.1123539E-03
   maximum displ.:     0.0223400 α      in ANC's #11, #28, #24, ...

........................................................................
.............................. CYCLE   44 ..............................
........................................................................
   1    -83.7476437 -0.837476E+02  0.265E-02    1.72       0.0  T
   2    -83.7476441 -0.442313E-06  0.152E-02    1.72       1.0  T
   3    -83.7476432  0.945575E-06  0.597E-03    1.72       2.4  T
   4    -83.7476445 -0.129840E-05  0.253E-03    1.72       5.7  T
   5    -83.7476445 -0.352727E-07  0.180E-03    1.72       8.0  T
   6    -83.7476446 -0.445835E-07  0.133E-03    1.72      10.8  T
   7    -83.7476446 -0.242761E-07  0.872E-04    1.72      16.5  T
   8    -83.7476446 -0.133242E-07  0.359E-04    1.72      40.2  T
     SCC iter.                  ...        0 min,  0.170 sec
     gradient                   ...        0 min,  0.037 sec
 * total energy  :   -82.5135980 Eh     change       -0.7460448E-04 Eh
   gradient norm :     0.0025987 Eh/α   predicted    -0.5632791E-04 ( -24.50%)
   displ. norm   :     0.0934184 α      lambda       -0.8474896E-04
   maximum displ.:     0.0458119 α      in ANC's #15, #11, #8, ...

........................................................................
.............................. CYCLE   45 ..............................
........................................................................
   1    -83.7488228 -0.837488E+02  0.779E-02    1.72       0.0  T
   2    -83.7488268 -0.395154E-05  0.432E-02    1.72       1.0  T
   3    -83.7488257  0.110892E-05  0.802E-03    1.72       1.8  T
   4    -83.7488285 -0.281812E-05  0.327E-03    1.72       4.4  T
   5    -83.7488286 -0.603921E-07  0.229E-03    1.72       6.3  T
   6    -83.7488287 -0.123825E-06  0.146E-03    1.72       9.9  T
   7    -83.7488287 -0.230259E-07  0.105E-03    1.72      13.8  T
   8    -83.7488287 -0.139981E-07  0.599E-04    1.72      24.1  T
   9    -83.7488287 -0.841024E-08  0.294E-04    1.72      49.0  T
     SCC iter.                  ...        0 min,  0.388 sec
     gradient                   ...        0 min,  0.051 sec
 * total energy  :   -82.5135834 Eh     change        0.1456275E-04 Eh
   gradient norm :     0.0043915 Eh/α   predicted    -0.4277044E-04 (-393.70%)
   displ. norm   :     0.0613095 α      lambda       -0.1257339E-03
   maximum displ.:     0.0280724 α      in ANC's #11, #6, #3, ...

........................................................................
.............................. CYCLE   46 ..............................
........................................................................
   1    -83.7492482 -0.837492E+02  0.650E-02    1.72       0.0  T
   2    -83.7492509 -0.277579E-05  0.359E-02    1.72       1.0  T
   3    -83.7492515 -0.617098E-06  0.368E-03    1.72       3.9  T
   4    -83.7492520 -0.409953E-06  0.188E-03    1.72       7.7  T
   5    -83.7492520 -0.612568E-07  0.829E-04    1.72      17.4  T
   6    -83.7492520 -0.109777E-07  0.578E-04    1.72      25.0  T
     SCC iter.                  ...        0 min,  0.259 sec
     gradient                   ...        0 min,  0.055 sec
 * total energy  :   -82.5136482 Eh     change       -0.6477792E-04 Eh
   gradient norm :     0.0027839 Eh/α   predicted    -0.6310373E-04 (  -2.58%)
   displ. norm   :     0.0355173 α      lambda       -0.2652909E-04
   maximum displ.:     0.0169214 α      in ANC's #11, #12, #5, ...

........................................................................
.............................. CYCLE   47 ..............................
........................................................................
   1    -83.7484137 -0.837484E+02  0.159E-02    1.72       0.0  T
   2    -83.7484139 -0.204107E-06  0.898E-03    1.72       1.6  T
   3    -83.7484137  0.217596E-06  0.277E-03    1.72       5.2  T
   4    -83.7484140 -0.317090E-06  0.110E-03    1.72      13.1  T
   5    -83.7484140 -0.879290E-08  0.775E-04    1.72      18.6  T
   6    -83.7484140 -0.859710E-08  0.553E-04    1.72      26.1  T
     SCC iter.                  ...        0 min,  0.193 sec
     gradient                   ...        0 min,  0.050 sec
 * total energy  :   -82.5136671 Eh     change       -0.1886720E-04 Eh
   gradient norm :     0.0013759 Eh/α   predicted    -0.1328164E-04 ( -29.60%)
   displ. norm   :     0.1769384 α      lambda       -0.4792360E-04
   maximum displ.:     0.0970323 α      in ANC's #11, #12, #6, ...

........................................................................
.............................. CYCLE   48 ..............................
........................................................................
   1    -83.7462172 -0.837462E+02  0.675E-02    1.72       0.0  T
   2    -83.7462205 -0.330645E-05  0.379E-02    1.72       1.0  T
   3    -83.7462193  0.125503E-05  0.776E-03    1.72       1.9  T
   4    -83.7462215 -0.224851E-05  0.344E-03    1.72       4.2  T
   5    -83.7462217 -0.209223E-06  0.183E-03    1.72       7.9  T
   6    -83.7462218 -0.492167E-07  0.122E-03    1.72      11.8  T
   7    -83.7462218 -0.208574E-07  0.846E-04    1.72      17.1  T
   8    -83.7462218 -0.811661E-08  0.616E-04    1.72      23.4  T
     SCC iter.                  ...        0 min,  0.270 sec
     gradient                   ...        0 min,  0.048 sec
 * total energy  :   -82.5136793 Eh     change       -0.1223252E-04 Eh
   gradient norm :     0.0037037 Eh/α   predicted    -0.2429535E-04 (  98.61%)
   displ. norm   :     0.1224552 α      lambda       -0.6656624E-04
   maximum displ.:     0.0637189 α      in ANC's #11, #5, #12, ...

........................................................................
.............................. CYCLE   49 ..............................
........................................................................
   1    -83.7464802 -0.837465E+02  0.544E-02    1.72       0.0  T
   2    -83.7464821 -0.181131E-05  0.305E-02    1.72       1.0  T
   3    -83.7464824 -0.342655E-06  0.418E-03    1.72       3.5  T
   4    -83.7464827 -0.323875E-06  0.290E-03    1.72       5.0  T
   5    -83.7464829 -0.157264E-06  0.172E-03    1.72       8.4  T
   6    -83.7464829 -0.248375E-07  0.126E-03    1.72      11.4  T
   7    -83.7464829 -0.242850E-07  0.756E-04    1.72      19.1  T
   8    -83.7464829 -0.760748E-08  0.377E-04    1.72      38.3  T
     SCC iter.                  ...        0 min,  0.347 sec
     gradient                   ...        0 min,  0.069 sec
 * total energy  :   -82.5137040 Eh     change       -0.2465427E-04 Eh
   gradient norm :     0.0030595 Eh/α   predicted    -0.3378391E-04 (  37.03%)
   displ. norm   :     0.0241806 α      lambda       -0.3137223E-04
   maximum displ.:     0.0094090 α      in ANC's #9, #8, #23, ...

........................................................................
.............................. CYCLE   50 ..............................
........................................................................
   1    -83.7480381 -0.837480E+02  0.147E-02    1.72       0.0  T
   2    -83.7480384 -0.230092E-06  0.843E-03    1.72       1.7  T
   3    -83.7480382  0.203286E-06  0.303E-03    1.72       4.8  T
   4    -83.7480385 -0.303944E-06  0.140E-03    1.72      10.3  T
   5    -83.7480385 -0.220008E-07  0.974E-04    1.72      14.8  T
   6    -83.7480385 -0.998634E-08  0.700E-04    1.72      20.6  T
     SCC iter.                  ...        0 min,  0.265 sec
     gradient                   ...        0 min,  0.051 sec
 * total energy  :   -82.5137230 Eh     change       -0.1907254E-04 Eh
   gradient norm :     0.0011426 Eh/α   predicted    -0.1569633E-04 ( -17.70%)
   displ. norm   :     0.0643676 α      lambda       -0.1378173E-04
   maximum displ.:     0.0255860 α      in ANC's #5, #8, #6, ...

........................................................................
.............................. CYCLE   51 ..............................
........................................................................
   1    -83.7487948 -0.837488E+02  0.174E-02    1.72       0.0  T
   2    -83.7487950 -0.218465E-06  0.989E-03    1.72       1.5  T
   3    -83.7487948  0.211687E-06  0.286E-03    1.72       5.0  T
   4    -83.7487950 -0.268488E-06  0.136E-03    1.72      10.6  T
   5    -83.7487951 -0.356658E-07  0.820E-04    1.72      17.6  T
   6    -83.7487951 -0.877401E-08  0.574E-04    1.72      25.1  T
     SCC iter.                  ...        0 min,  0.265 sec
     gradient                   ...        0 min,  0.065 sec
 * total energy  :   -82.5137377 Eh     change       -0.1463053E-04 Eh
   gradient norm :     0.0010274 Eh/α   predicted    -0.6904795E-05 ( -52.81%)
   displ. norm   :     0.2151648 α      lambda       -0.2367168E-04
   maximum displ.:     0.0872978 α      in ANC's #5, #8, #11, ...

........................................................................
.............................. CYCLE   52 ..............................
........................................................................
   1    -83.7487641 -0.837488E+02  0.484E-02    1.72       0.0  T
   2    -83.7487649 -0.817570E-06  0.275E-02    1.72       1.0  T
   3    -83.7487644  0.539724E-06  0.532E-03    1.72       2.7  T
   4    -83.7487652 -0.839544E-06  0.282E-03    1.72       5.1  T
   5    -83.7487654 -0.128129E-06  0.146E-03    1.72       9.9  T
   6    -83.7487654 -0.287143E-07  0.108E-03    1.72      13.4  T
   7    -83.7487654 -0.109302E-07  0.795E-04    1.72      18.2  T
   8    -83.7487654 -0.117437E-07  0.343E-04    1.72      42.1  T
     SCC iter.                  ...        0 min,  0.348 sec
     gradient                   ...        0 min,  0.064 sec
 * total energy  :   -82.5137653 Eh     change       -0.2761131E-04 Eh
   gradient norm :     0.0017457 Eh/α   predicted    -0.1208326E-04 ( -56.24%)
   displ. norm   :     0.3683191 α      lambda       -0.3415600E-04
   maximum displ.:     0.1540931 α      in ANC's #5, #8, #6, ...

........................................................................
.............................. CYCLE   53 ..............................
........................................................................
   1    -83.7472926 -0.837473E+02  0.775E-02    1.71       0.0  T
   2    -83.7472944 -0.185396E-05  0.442E-02    1.71       1.0  T
   3    -83.7472938  0.587371E-06  0.715E-03    1.71       2.0  T
   4    -83.7472950 -0.120152E-05  0.425E-03    1.71       3.4  T
   5    -83.7472953 -0.306699E-06  0.206E-03    1.71       7.0  T
   6    -83.7472954 -0.604879E-07  0.156E-03    1.71       9.2  T
   7    -83.7472954 -0.293185E-07  0.101E-03    1.71      14.3  T
   8    -83.7472954 -0.148715E-07  0.498E-04    1.71      29.0  T
   9    -83.7472954 -0.477236E-08  0.279E-04    1.71      51.8  T
     SCC iter.                  ...        0 min,  0.390 sec
     gradient                   ...        0 min,  0.065 sec
 * total energy  :   -82.5137994 Eh     change       -0.3410483E-04 Eh
   gradient norm :     0.0024397 Eh/α   predicted    -0.1811016E-04 ( -46.90%)
   displ. norm   :     0.1695922 α      lambda       -0.2443125E-04
   maximum displ.:     0.0832610 α      in ANC's #8, #5, #6, ...

........................................................................
.............................. CYCLE   54 ..............................
........................................................................
   1    -83.7474888 -0.837475E+02  0.316E-02    1.71       0.0  T
   2    -83.7474891 -0.291791E-06  0.180E-02    1.71       1.0  T
   3    -83.7474890  0.881935E-07  0.266E-03    1.71       5.4  T
   4    -83.7474891 -0.124576E-06  0.156E-03    1.71       9.2  T
   5    -83.7474892 -0.634122E-07  0.519E-04    1.71      27.8  T
   6    -83.7474892 -0.461847E-08  0.332E-04    1.71      43.5  T
     SCC iter.                  ...        0 min,  0.263 sec
     gradient                   ...        0 min,  0.053 sec
 * total energy  :   -82.5138202 Eh     change       -0.2082062E-04 Eh
   gradient norm :     0.0020185 Eh/α   predicted    -0.1256738E-04 ( -39.64%)
   displ. norm   :     0.3022640 α      lambda       -0.4804264E-04
   maximum displ.:     0.1582494 α      in ANC's #8, #5, #6, ...

........................................................................
.............................. CYCLE   55 ..............................
........................................................................
[...]
H40-C9-C8-S28=179.92          C11-C10-C9-C8=180.31          C11-C10-C9-H40=  0.17         C12-C10-C9-C8=  0.11          
C12-C10-C9-H40=179.97         

 CMA Distance (Angstroems)
 ---------------------------
R(CMA): 10.2361
           -------------------------------------------------
          |                Final Singlepoint                |
           -------------------------------------------------

          ...................................................
          :                      SETUP                      :
          :.................................................:
          :  # basis functions                 168          :
          :  # atomic orbitals                 163          :
          :  # shells                           83          :
          :  # electrons                       152          :
          :  max. iterations                   250          :
          :  Hamiltonian                  GFN2-xTB          :
          :  restarted?                      false          :
          :  GBSA solvation                  false          :
          :  PC potential                    false          :
          :  electronic temp.          300.0000000     K    :
          :  accuracy                    1.0000000          :
          :  -> integral cutoff          0.2500000E+02      :
          :  -> integral neglect         0.1000000E-07      :
          :  -> SCF convergence          0.1000000E-05 Eh   :
          :  -> wf. convergence          0.1000000E-03 e    :
          :  Broyden damping             0.4000000          :
          ...................................................

 iter      E             dE          RMSdq      gap      omega  full diag
   1    -83.7485132 -0.837485E+02  0.263E-04    1.71       0.0  T
   2    -83.7485132 -0.342780E-09  0.224E-04    1.71      64.6  T
   3    -83.7485132 -0.278533E-09  0.192E-04    1.71      75.3  T

   *** convergence criteria satisfied after 3 iterations ***

         #    Occupation            Energy/Eh            Energy/eV
      -------------------------------------------------------------
         1        2.0000           -1.0220863             -27.8124
       ...           ...                  ...                  ...
        70        2.0000           -0.4128940             -11.2354
        71        2.0000           -0.4094224             -11.1410
        72        2.0000           -0.4087062             -11.1215
        73        2.0000           -0.3990807             -10.8595
        74        2.0000           -0.3989926             -10.8571
        75        2.0000           -0.3974688             -10.8157
        76        2.0000           -0.3744115             -10.1883 (HOMO)
        77                         -0.3114916              -8.4761 (LUMO)
        78                         -0.2927444              -7.9660
        79                         -0.2681762              -7.2974
        80                         -0.2411318              -6.5615
        81                         -0.2363778              -6.4322
       ...                                ...                  ...
       163                          1.1932953              32.4712
      -------------------------------------------------------------
                  HL-Gap            0.0629199 Eh            1.7121 eV
             Fermi-level           -0.3429516 Eh           -9.3322 eV

 SCC (total)                   0 d,  0 h,  0 min,  0.172 sec
 SCC setup                      ...        0 min,  0.004 sec (  2.228%)
 Dispersion                     ...        0 min,  0.001 sec (  0.808%)
 classical contributions        ...        0 min,  0.000 sec (  0.213%)
 integral evaluation            ...        0 min,  0.017 sec ( 10.015%)
 iterations                     ...        0 min,  0.102 sec ( 59.268%)
 molecular gradient             ...        0 min,  0.045 sec ( 26.221%)
 printout                       ...        0 min,  0.002 sec (  1.145%)

         :::::::::::::::::::::::::::::::::::::::::::::::::::::
         ::                     SUMMARY                     ::
         :::::::::::::::::::::::::::::::::::::::::::::::::::::
         :: total energy             -82.513984199040 Eh    ::
         :: gradient norm              0.000729823170 Eh/a0 ::
         :: HOMO-LUMO gap              1.712138358562 eV    ::
         ::.................................................::
         :: SCC energy               -83.748513228329 Eh    ::
         :: -> isotropic ES            0.046854733217 Eh    ::
         :: -> anisotropic ES          0.001441721947 Eh    ::
         :: -> anisotropic XC          0.058654311094 Eh    ::
         :: -> dispersion             -0.066483960180 Eh    ::
         :: repulsion energy           1.235142173853 Eh    ::
         :: add. restraining           0.000000000000 Eh    ::
         :: total charge               0.000000000000 e     ::
         :::::::::::::::::::::::::::::::::::::::::::::::::::::

           -------------------------------------------------
          |                Property Printout                |
           -------------------------------------------------

    * Orbital Energies and Occupations

         #    Occupation            Energy/Eh            Energy/eV
      -------------------------------------------------------------
         1        2.0000           -1.0220863             -27.8124
       ...           ...                  ...                  ...
        64        2.0000           -0.4529585             -12.3256
        65        2.0000           -0.4282554             -11.6534
        66        2.0000           -0.4273208             -11.6280
        67        2.0000           -0.4263412             -11.6013
        68        2.0000           -0.4219809             -11.4827
        69        2.0000           -0.4170145             -11.3475
        70        2.0000           -0.4128940             -11.2354
        71        2.0000           -0.4094224             -11.1410
        72        2.0000           -0.4087062             -11.1215
        73        2.0000           -0.3990807             -10.8595
        74        2.0000           -0.3989926             -10.8571
        75        2.0000           -0.3974688             -10.8157
        76        2.0000           -0.3744115             -10.1883 (HOMO)
        77                         -0.3114916              -8.4761 (LUMO)
        78                         -0.2927444              -7.9660
        79                         -0.2681762              -7.2974
        80                         -0.2411318              -6.5615
        81                         -0.2363778              -6.4322
        82                         -0.2349291              -6.3927
        83                         -0.2285800              -6.2200
        84                         -0.2262217              -6.1558
        85                         -0.2250828              -6.1248
        86                         -0.2027190              -5.5163
        87                         -0.1922759              -5.2321
       ...                                ...                  ...
       163                          1.1932953              32.4712
      -------------------------------------------------------------
                  HL-Gap            0.0629199 Eh            1.7121 eV
             Fermi-level           -0.3429516 Eh           -9.3322 eV

     #   Z          covCN         q      C6AA      α(0)
     1   7 N        2.671    -0.307    27.913     7.847
     2   6 C        3.732     0.002    20.632     6.483
     3   6 C        3.823    -0.072    21.853     6.652
     4   6 C        2.985     0.022    27.516     8.605
     5   6 C        3.108    -0.051    29.128     8.842
     6   6 C        3.105    -0.046    29.002     8.824
     7   6 C        3.026     0.018    27.583     8.615
     8   6 C        3.017     0.024    27.439     8.593
     9   6 C        3.105    -0.059    29.330     8.874
    10   6 C        3.120     0.006    27.710     8.621
    11   6 C        3.757    -0.109    22.638     6.784
    12   6 C        3.020     0.005    27.885     8.662
    13   6 C        3.014     0.026    27.410     8.588
    14   6 C        3.150    -0.004    27.838     8.630
    15   6 C        1.910     0.114    28.282     8.589
    16   7 N        0.911    -0.226    25.946     7.367
    17   6 C        3.150    -0.003    27.814     8.626
    18   6 C        1.908     0.114    28.292     8.590
    19   7 N        0.911    -0.223    25.878     7.357
    20   6 C        3.012     0.027    27.392     8.585
    21   6 C        3.022     0.003    27.943     8.671
    22   6 C        3.131     0.004    27.714     8.618
    23   6 C        3.757    -0.109    22.628     6.782
    24   6 C        3.115    -0.051    29.095     8.836
    25   6 C        2.934    -0.016    28.413     8.742
    26  16 S        2.317    -0.004   141.221    20.001
    27  16 S        2.353    -0.020   141.878    20.047
    28  16 S        2.343    -0.026   142.125    20.065
    29  16 S        2.351    -0.053   143.249    20.144
    30  17 Cl       0.839    -0.469   114.558    16.374
    31   1 H        0.881     0.331     0.626     1.239
    32   1 H        0.860     0.169     1.280     1.773
    33   1 H        0.860     0.174     1.250     1.751
    34   1 H        0.924     0.060     2.202     2.320
    35   1 H        0.924     0.059     2.212     2.326
    36   1 H        0.924     0.052     2.298     2.371
    37   1 H        0.924     0.057     2.240     2.341
    38   1 H        0.926     0.044     2.397     2.421
    39   1 H        0.926     0.051     2.304     2.374
    40   1 H        0.926     0.046     2.364     2.404
    41   1 H        0.925     0.057     2.238     2.339
    42   1 H        0.925     0.057     2.237     2.339
    43   1 H        0.925     0.058     2.227     2.334
    44   1 H        0.924     0.057     2.240     2.340
    45   1 H        0.925     0.056     2.244     2.342
    46   1 H        0.925     0.056     2.243     2.342
    47   1 H        0.926     0.046     2.377     2.411
    48   1 H        0.926     0.056     2.250     2.346

 Mol. C6AA /au·bohr⁶  :      45515.903156
 Mol. C8AA /au·bohr⁸  :    1385052.791793
 Mol. α(0) /au        :        342.128846


Wiberg/Mayer (AO) data.
largest (>0.10) Wiberg bond orders for each atom

 ---------------------------------------------------------------------------
     #   Z sym  total        # sym  WBO       # sym  WBO       # sym  WBO
 ---------------------------------------------------------------------------
     1   7 N    3.233 --     2 C    1.020    32 H    0.957    33 H    0.949
                            31 H    0.185
     2   6 C    3.972 --     1 N    1.020    35 H    0.974    34 H    0.971
                             3 C    0.971
     3   6 C    3.994 --     4 C    1.031     2 C    0.971    36 H    0.968
                            37 H    0.966
     4   6 C    3.924 --     5 C    1.566    29 S    1.154     3 C    1.031
     5   6 C    3.984 --     4 C    1.566     6 C    1.307    38 H    0.963
     6   6 C    3.968 --     7 C    1.502     5 C    1.307    39 H    0.960
     7   6 C    3.948 --     6 C    1.502     8 C    1.168    29 S    1.110
     8   6 C    3.939 --     9 C    1.464     7 C    1.168    28 S    1.137
     9   6 C    3.979 --     8 C    1.464    10 C    1.330    40 H    0.960
    10   6 C    3.974 --    12 C    1.413     9 C    1.330    11 C    1.030
    11   6 C    3.994 --    10 C    1.030    41 H    0.980    42 H    0.963
                            43 H    0.962
    12   6 C    3.930 --    10 C    1.413    13 C    1.200    28 S    1.114
    13   6 C    3.945 --    14 C    1.391    12 C    1.200    27 S    1.123
    14   6 C    3.965 --    13 C    1.391    17 C    1.186    15 C    1.114
    15   6 C    3.948 --    16 N    2.771    14 C    1.114
    16   7 N    2.999 --    15 C    2.771
    17   6 C    3.979 --    20 C    1.400    14 C    1.186    18 C    1.111
    18   6 C    3.949 --    19 N    2.777    17 C    1.111
    19   7 N    3.006 --    18 C    2.777
    20   6 C    3.940 --    17 C    1.400    21 C    1.188    27 S    1.126
    21   6 C    3.944 --    22 C    1.443    20 C    1.188    26 S    1.121
    22   6 C    3.972 --    21 C    1.443    24 C    1.289    23 C    1.031
    23   6 C    3.994 --    22 C    1.031    46 H    0.981    45 H    0.962
                            44 H    0.962
    24   6 C    3.985 --    25 C    1.589    22 C    1.289    47 H    0.963
    25   6 C    3.935 --    24 C    1.589    26 S    1.215    48 H    0.968
    26  16 S    2.641 --    25 C    1.215    21 C    1.121
    27  16 S    2.637 --    20 C    1.126    13 C    1.123
    28  16 S    2.598 --     8 C    1.137    12 C    1.114
    29  16 S    2.575 --     4 C    1.154     7 C    1.110
    30  17 Cl   0.781 --    31 H    0.702
    31   1 H    0.890 --    30 Cl   0.702     1 N    0.185
    32   1 H    0.972 --     1 N    0.957
    33   1 H    0.970 --     1 N    0.949
    34   1 H    0.995 --     2 C    0.971
    35   1 H    0.997 --     2 C    0.974
    36   1 H    0.996 --     3 C    0.968
    37   1 H    0.996 --     3 C    0.966
    38   1 H    0.998 --     5 C    0.963
    39   1 H    0.997 --     6 C    0.960
    40   1 H    0.997 --     9 C    0.960
    41   1 H    0.996 --    11 C    0.980
    42   1 H    0.995 --    11 C    0.963
    43   1 H    0.995 --    11 C    0.962
    44   1 H    0.996 --    23 C    0.962
    45   1 H    0.995 --    23 C    0.962
    46   1 H    0.996 --    23 C    0.981
    47   1 H    0.997 --    24 C    0.963
    48   1 H    0.996 --    25 C    0.968
 ---------------------------------------------------------------------------

Topologies differ in total number of bonds
Writing topology from bond orders to xtbtopo.mol

molecular dipole:
                 x           y           z       tot (Debye)
 q only:        1.416       1.292       2.122
   full:        1.637       1.147       2.678       8.492
molecular quadrupole (traceless):
                xx          xy          yy          xz          yz          zz
 q only:       40.369      -4.673      10.081      95.563     -29.462     -50.450
  q+dip:       57.207      -8.773      11.018     114.614     -38.035     -68.226
   full:       58.901      -6.209      13.870     113.686     -38.872     -72.770

           -------------------------------------------------
          |                Geometry Summary                 |
           -------------------------------------------------

      molecular mass/u    :      488.1113201
   center of mass at/Å    :        9.6460194      -2.3457772      -2.0338334
  moments of inertia/u·Å² :        0.1835460E+04   0.1366973E+05   0.1456886E+05
rotational constants/cm⁻¹ :        0.9184416E-02   0.1233209E-02   0.1157101E-02

 * 46 selected distances

     #   Z          #   Z                                           value/Å
     1   7 N        2   6 C                                       1.4542557
     3   6 C        4   6 C                                       1.4882372
     4   6 C        5   6 C                                       1.3638405
     5   6 C        6   6 C                                       1.4047254
     6   6 C        7   6 C                                       1.3716003
     7   6 C        8   6 C                                       1.4229472
     8   6 C        9   6 C                                       1.3744460
     9   6 C       10   6 C                                       1.4007417
    10   6 C       11   6 C                                       1.4901775
    10   6 C       12   6 C                                       1.3885779
    12   6 C       13   6 C                                       1.4208233
    13   6 C       14   6 C                                       1.3870902
    15   6 C       16   7 N                                       1.1477217
    14   6 C       17   6 C                                       1.4257018
    18   6 C       19   7 N                                       1.1472904
    17   6 C       20   6 C                                       1.3855307
    20   6 C       21   6 C                                       1.4242483
    21   6 C       22   6 C                                       1.3851469
    22   6 C       23   6 C                                       1.4904048
    22   6 C       24   6 C                                       1.4100411
    24   6 C       25   6 C                                       1.3588039
    21   6 C       26  16 S                                       1.7482240
    25   6 C       26  16 S                                       1.7115798
    13   6 C       27  16 S                                       1.7430797
    20   6 C       27  16 S                                       1.7428588
     8   6 C       28  16 S                                       1.7350793
    12   6 C       28  16 S                                       1.7484094 (max)
     4   6 C       29  16 S                                       1.7372866
     7   6 C       29  16 S                                       1.7419232
     1   7 N       32   1 H                                       1.0149183 (min)
     1   7 N       33   1 H                                       1.0154361
     2   6 C       34   1 H                                       1.0917710
     2   6 C       35   1 H                                       1.0920694
     3   6 C       36   1 H                                       1.0930023
     3   6 C       37   1 H                                       1.0908078
     5   6 C       38   1 H                                       1.0753314
     6   6 C       39   1 H                                       1.0754698
     9   6 C       40   1 H                                       1.0762886
    11   6 C       41   1 H                                       1.0863642
    11   6 C       42   1 H                                       1.0896168
    11   6 C       43   1 H                                       1.0897826
    23   6 C       44   1 H                                       1.0902612
    23   6 C       45   1 H                                       1.0901749
    23   6 C       46   1 H                                       1.0867575
    24   6 C       47   1 H                                       1.0753978
    25   6 C       48   1 H                                       1.0717405

 * 5 distinct bonds (by element types)

   Z      Z             #   av. dist./Å        max./Å        min./Å
   1 H    6 C          15     1.0849891     1.0930023     1.0717405
   6 C    6 C          18     1.4107269     1.4904048     1.3588039
   1 H    7 N           2     1.0151772     1.0154361     1.0149183
   6 C    7 N           3     1.2497559     1.4542557     1.1472904
   6 C   16 S           8     1.7385551     1.7484094     1.7115798


optimized geometry written to: xtbopt.xyz


           -------------------------------------------------
          | TOTAL ENERGY              -82.513984199040 Eh   |
          | GRADIENT NORM               0.000729823170 Eh/α |
          | HOMO-LUMO GAP               1.712138358562 eV   |
           -------------------------------------------------

------------------------------------------------------------------------
 * finished run on 2023/01/23 at 19:17:02.687     
------------------------------------------------------------------------
 total:
 * wall-time:     0 d,  0 h,  0 min, 26.156 sec
 *  cpu-time:     0 d,  0 h, 55 min, 28.359 sec
 * ratio c/w:   127.251 speedup
 SCF:
 * wall-time:     0 d,  0 h,  0 min,  0.383 sec
 *  cpu-time:     0 d,  0 h,  0 min, 48.711 sec
 * ratio c/w:   127.096 speedup
 ANC optimizer:
 * wall-time:     0 d,  0 h,  0 min, 25.718 sec
 *  cpu-time:     0 d,  0 h, 54 min, 32.723 sec
 * ratio c/w:   127.254 speedup

