      -----------------------------------------------------------      
     |                   =====================                   |     
     |                           x T B                           |     
     |                   =====================                   |     
     |                         S. Grimme                         |     
     |          Mulliken Center for Theoretical Chemistry        |     
     |                    University of Bonn                     |     
      -----------------------------------------------------------      

   * xtb version 6.5.1 (fef0646) compiled by 'conda@b96dff2e9fd6' on 2023-01-04

   xtb is free software: you can redistribute it and/or modify it under
   the terms of the GNU Lesser General Public License as published by
   the Free Software Foundation, either version 3 of the License, or
   (at your option) any later version.
   
   xtb is distributed in the hope that it will be useful,
   but WITHOUT ANY WARRANTY; without even the implied warranty of
   MERCHANTABILITY or FITNESS FOR A PARTICULAR PURPOSE.  See the
   GNU Lesser General Public License for more details.
   
   Cite this work as:
   * C. Bannwarth, E. Caldeweyher, S. Ehlert, A. Hansen, P. Pracht,
     J. Seibert, S. Spicher, S. Grimme, WIREs Comput. Mol. Sci., 2020, 11,
     e01493. DOI: 10.1002/wcms.1493
   
   for GFN2-xTB:
   * C. Bannwarth, S. Ehlert and S. Grimme., J. Chem. Theory Comput., 2019,
     15, 1652-1671. DOI: 10.1021/acs.jctc.8b01176
   for GFN1-xTB:
   * S. Grimme, C. Bannwarth, P. Shushkov, J. Chem. Theory Comput., 2017,
     13, 1989-2009. DOI: 10.1021/acs.jctc.7b00118
   for GFN0-xTB:
   * P. Pracht, E. Caldeweyher, S. Ehlert, S. Grimme, ChemRxiv, 2019, preprint.
     DOI: 10.26434/chemrxiv.8326202.v1
   for GFN-FF:
   * S. Spicher and S. Grimme, Angew. Chem. Int. Ed., 2020, 59, 15665-15673.
     DOI: 10.1002/anie.202004239
   
   for ALPB and GBSA implicit solvation:
   * S. Ehlert, M. Stahn, S. Spicher, S. Grimme, J. Chem. Theory Comput.,
     2021, 17, 4250-4261. DOI: 10.1021/acs.jctc.1c00471
   
   for DFT-D4:
   * E. Caldeweyher, C. Bannwarth and S. Grimme, J. Chem. Phys., 2017,
     147, 034112. DOI: 10.1063/1.4993215
   * E. Caldeweyher, S. Ehlert, A. Hansen, H. Neugebauer, S. Spicher,
     C. Bannwarth and S. Grimme, J. Chem. Phys., 2019, 150, 154122.
     DOI: 10.1063/1.5090222
   * E. Caldeweyher, J.-M. Mewes, S. Ehlert and S. Grimme, Phys. Chem. Chem. Phys.
     2020, 22, 8499-8512. DOI: 10.1039/D0CP00502A
   
   for sTDA-xTB:
   * S. Grimme and C. Bannwarth, J. Chem. Phys., 2016, 145, 054103.
     DOI: 10.1063/1.4959605
   
   in the mass-spec context:
   * V. Asgeirsson, C. Bauer and S. Grimme, Chem. Sci., 2017, 8, 4879.
     DOI: 10.1039/c7sc00601b
   * J. Koopman and S. Grimme, ACS Omega 2019, 4, 12, 15120-15133.
     DOI: 10.1021/acsomega.9b02011
   
   for metadynamics refer to:
   * S. Grimme, J. Chem. Theory Comput., 2019, 155, 2847-2862
     DOI: 10.1021/acs.jctc.9b00143
   
   for SPH calculations refer to:
   * S. Spicher and S. Grimme, J. Chem. Theory Comput., 2021, 17, 1701-1714
     DOI: 10.1021/acs.jctc.0c01306
   
   with help from (in alphabetical order)
   P. Atkinson, C. Bannwarth, F. Bohle, G. Brandenburg, E. Caldeweyher
   M. Checinski, S. Dohm, S. Ehlert, S. Ehrlich, I. Gerasimov, C. Hölzer
   A. Katbashev, J. Koopman, C. Lavigne, S. Lehtola, F. März, M. Müller,
   F. Musil, H. Neugebauer, J. Pisarek, C. Plett, P. Pracht, F. Pultar,
   J. Seibert, P. Shushkov, S. Spicher, M. Stahn, M. Steiner, T. Strunk,
   J. Stückrath, T. Rose, and J. Unsleber
   
 * started run on 2023/01/23 at 14:09:26.818     

           -------------------------------------------------
          |                Calculation Setup                |
           -------------------------------------------------

          program call               : xtb init.xyz --opt -c 0 -u 0 -P 16
          hostname                   : gpg-woodward
          coordinate file            : init.xyz
          omp threads                :                    16

   ID    Z sym.   atoms
    1    7 N      1
    2    6 C      2-7
    3   16 S      8
    4   17 Cl     9
    5    1 H      10-19

molecular fragmentation (1/2 indicates fragments):
1111111121111111111
# atoms in fragment 1/2:    18     1
 fragment masses (1/2) :      128.22       35.45
CMA distance (Bohr)    :  11.028
constraining FC (au)   :  0.0500

           -------------------------------------------------
          |                 G F N 2 - x T B                 |
           -------------------------------------------------

        Reference                      10.1021/acs.jctc.8b01176
      * Hamiltonian:
        H0-scaling (s, p, d)           1.850000    2.230000    2.230000
        zeta-weighting                 0.500000
      * Dispersion:
        s8                             2.700000
        a1                             0.520000
        a2                             5.000000
        s9                             5.000000
      * Repulsion:
        kExp                           1.500000    1.000000
        rExp                           1.000000
      * Coulomb:
        alpha                          2.000000
        third order                    shell-resolved
        anisotropic                    true
        a3                             3.000000
        a5                             4.000000
        cn-shift                       1.200000
        cn-exp                         4.000000
        max-rad                        5.000000


          ...................................................
          :                      SETUP                      :
          :.................................................:
          :  # basis functions                  58          :
          :  # atomic orbitals                  56          :
          :  # shells                           30          :
          :  # electrons                        52          :
          :  max. iterations                   250          :
          :  Hamiltonian                  GFN2-xTB          :
          :  restarted?                      false          :
          :  GBSA solvation                  false          :
          :  PC potential                    false          :
          :  electronic temp.          300.0000000     K    :
          :  accuracy                    1.0000000          :
          :  -> integral cutoff          0.2500000E+02      :
          :  -> integral neglect         0.1000000E-07      :
          :  -> SCF convergence          0.1000000E-05 Eh   :
          :  -> wf. convergence          0.1000000E-03 e    :
          :  Broyden damping             0.4000000          :
          ...................................................

 iter      E             dE          RMSdq      gap      omega  full diag
   1    -28.8176702 -0.288177E+02  0.438E+00    3.84       0.0  T
   2    -28.9324450 -0.114775E+00  0.254E+00    3.02       1.0  T
   3    -28.9345609 -0.211591E-02  0.139E+00    2.46       1.0  T
   4    -28.9312526  0.330828E-02  0.996E-01    2.03       1.0  T
   5    -28.9408307 -0.957816E-02  0.334E-01    1.93       1.0  T
   6    -28.9410079 -0.177167E-03  0.266E-01    1.95       1.0  T
   7    -28.9414987 -0.490773E-03  0.146E-01    1.96       1.0  T
   8    -28.9416283 -0.129582E-03  0.744E-02    1.95       1.0  T
   9    -28.9416620 -0.337489E-04  0.169E-02    1.95       1.4  T
  10    -28.9416627 -0.699024E-06  0.854E-03    1.95       2.7  T
  11    -28.9416630 -0.308263E-06  0.317E-03    1.95       7.2  T
  12    -28.9416631 -0.387384E-07  0.113E-03    1.95      20.2  T
  13    -28.9416631 -0.318219E-08  0.506E-04    1.95      45.3  T
  14    -28.9416631 -0.795971E-09  0.296E-04    1.95      77.4  T

   *** convergence criteria satisfied after 14 iterations ***

         #    Occupation            Energy/Eh            Energy/eV
      -------------------------------------------------------------
         1        2.0000           -0.9453057             -25.7231
       ...           ...                  ...                  ...
        20        2.0000           -0.4727168             -12.8633
        21        2.0000           -0.4704137             -12.8006
        22        2.0000           -0.4171207             -11.3504
        23        2.0000           -0.4086911             -11.1210
        24        2.0000           -0.3448422              -9.3836
        25        2.0000           -0.3392002              -9.2301
        26        2.0000           -0.3380664              -9.1993 (HOMO)
        27                         -0.2664490              -7.2504 (LUMO)
        28                         -0.2195260              -5.9736
        29                         -0.1957818              -5.3275
        30                         -0.1372611              -3.7351
        31                         -0.0863900              -2.3508
       ...                                ...                  ...
        56                          0.6580986              17.9078
      -------------------------------------------------------------
                  HL-Gap            0.0716173 Eh            1.9488 eV
             Fermi-level           -0.3022577 Eh           -8.2249 eV

 SCC (total)                   0 d,  0 h,  0 min,  0.032 sec
 SCC setup                      ...        0 min,  0.000 sec (  0.486%)
 Dispersion                     ...        0 min,  0.000 sec (  0.692%)
 classical contributions        ...        0 min,  0.000 sec (  0.189%)
 integral evaluation            ...        0 min,  0.002 sec (  5.044%)
 iterations                     ...        0 min,  0.026 sec ( 83.802%)
 molecular gradient             ...        0 min,  0.003 sec (  8.440%)
 printout                       ...        0 min,  0.000 sec (  0.564%)

         :::::::::::::::::::::::::::::::::::::::::::::::::::::
         ::                     SUMMARY                     ::
         :::::::::::::::::::::::::::::::::::::::::::::::::::::
         :: total energy             -28.608418741569 Eh    ::
         :: gradient norm              0.046353088326 Eh/a0 ::
         :: HOMO-LUMO gap              1.948807121536 eV    ::
         ::.................................................::
         :: SCC energy               -28.941663055807 Eh    ::
         :: -> isotropic ES            0.100829013875 Eh    ::
         :: -> anisotropic ES         -0.024520824208 Eh    ::
         :: -> anisotropic XC          0.004677050740 Eh    ::
         :: -> dispersion             -0.014500747251 Eh    ::
         :: repulsion energy           0.333285934496 Eh    ::
         :: add. restraining           0.000000000000 Eh    ::
         :: total charge               0.000000000000 e     ::
         :::::::::::::::::::::::::::::::::::::::::::::::::::::

      ----------------------------------------------------------- 
     |                   =====================                   |
     |                        A N C O P T                        |
     |                   =====================                   |
     |               Approximate Normal Coordinate               |
     |                Rational Function Optimizer                |
      ----------------------------------------------------------- 

          ...................................................
          :                      SETUP                      :
          :.................................................:
          :   optimization level            normal          :
          :   max. optcycles                   200          :
          :   ANC micro-cycles                  20          :
          :   degrees of freedom                51          :
          :.................................................:
          :   RF solver                   davidson          :
          :   write xtbopt.log                true          :
          :   linear?                        false          :
          :   energy convergence         0.5000000E-05 Eh   :
          :   grad. convergence          0.1000000E-02 Eh/α :
          :   maximium RF displ.         1.0000000          :
          :   Hlow (freq-cutoff)         0.1000000E-01      :
          :   Hmax (freq-cutoff)         5.0000000          :
          :   S6 in model hess.         20.0000000          :
          ...................................................

generating ANC from model Hessian ...
Using Lindh-Hessian (1995)
 Shifting diagonal of input Hessian by    1.1384559650746317E-002
 Lowest  eigenvalues of input Hessian
    0.010000    0.000000    0.000000    0.000000    0.000000    0.000000
    0.000000    0.012150    0.013279    0.013744    0.014607    0.022316
    0.024367    0.026475    0.028480    0.031141    0.034300    0.052402
 Highest eigenvalues
    1.397359    1.527918    1.613910    1.623133    1.801452    1.816011


........................................................................
.............................. CYCLE    1 ..............................
........................................................................
   1    -28.9416631 -0.289417E+02  0.137E-04    1.95       0.0  T
   2    -28.9416631 -0.355556E-10  0.104E-04    1.95     220.7  T
   3    -28.9416631 -0.114575E-10  0.808E-05    1.95     283.9  T
     SCC iter.                  ...        0 min,  0.006 sec
     gradient                   ...        0 min,  0.003 sec
 * total energy  :   -28.6084187 Eh     change       -0.4717755E-09 Eh
   gradient norm :     0.0463527 Eh/α   predicted     0.0000000E+00 (-100.00%)
   displ. norm   :     0.4414194 α      lambda       -0.1038321E-01
   maximum displ.:     0.2673444 α      in ANC's #6, #1, #9, ...

........................................................................
.............................. CYCLE    2 ..............................
........................................................................
   1    -28.9537582 -0.289538E+02  0.434E-01    2.30       0.0  T
   2    -28.9541025 -0.344306E-03  0.255E-01    2.38       1.0  T
   3    -28.9541199 -0.173596E-04  0.769E-02    2.49       1.0  T
   4    -28.9541226 -0.272089E-05  0.367E-02    2.51       1.0  T
   5    -28.9541343 -0.116796E-04  0.203E-02    2.51       1.1  T
   6    -28.9541361 -0.186518E-05  0.142E-02    2.51       1.6  T
   7    -28.9541369 -0.789874E-06  0.949E-03    2.51       2.4  T
   8    -28.9541374 -0.510248E-06  0.602E-03    2.51       3.8  T
   9    -28.9541377 -0.315384E-06  0.124E-03    2.51      18.5  T
  10    -28.9541377 -0.525879E-08  0.628E-04    2.51      36.5  T
  11    -28.9541377 -0.255529E-08  0.199E-04    2.51     115.1  T
     SCC iter.                  ...        0 min,  0.020 sec
     gradient                   ...        0 min,  0.003 sec
 * total energy  :   -28.6107645 Eh     change       -0.2345745E-02 Eh
   gradient norm :     0.0412584 Eh/α   predicted    -0.6203464E-02 ( 164.46%)
   displ. norm   :     0.4221477 α      lambda       -0.9243580E-02
   maximum displ.:     0.3507865 α      in ANC's #1, #3, #2, ...

........................................................................
.............................. CYCLE    3 ..............................
........................................................................
   1    -28.9673512 -0.289674E+02  0.275E-01    2.37       0.0  T
   2    -28.9674013 -0.501258E-04  0.158E-01    2.34       1.0  T
   3    -28.9673993  0.200418E-05  0.451E-02    2.32       1.0  T
   4    -28.9674087 -0.933652E-05  0.286E-02    2.32       1.0  T
   5    -28.9674156 -0.693338E-05  0.154E-02    2.32       1.5  T
   6    -28.9674165 -0.941091E-06  0.999E-03    2.32       2.3  T
   7    -28.9674170 -0.424704E-06  0.660E-03    2.32       3.5  T
   8    -28.9674172 -0.272555E-06  0.352E-03    2.32       6.5  T
   9    -28.9674173 -0.962134E-07  0.889E-04    2.32      25.8  T
  10    -28.9674173 -0.257895E-08  0.429E-04    2.32      53.5  T
     SCC iter.                  ...        0 min,  0.018 sec
     gradient                   ...        0 min,  0.003 sec
 * total energy  :   -28.6161111 Eh     change       -0.5346634E-02 Eh
   gradient norm :     0.0270294 Eh/α   predicted    -0.5445484E-02 (   1.85%)
   displ. norm   :     0.5404703 α      lambda       -0.5441805E-02
   maximum displ.:     0.4121772 α      in ANC's #1, #2, #4, ...

........................................................................
.............................. CYCLE    4 ..............................
........................................................................
   1    -28.9706938 -0.289707E+02  0.239E-01    2.31       0.0  T
   2    -28.9708520 -0.158125E-03  0.141E-01    2.36       1.0  T
   3    -28.9708690 -0.170110E-04  0.516E-02    2.44       1.0  T
   4    -28.9708722 -0.322249E-05  0.263E-02    2.46       1.0  T
   5    -28.9708751 -0.286325E-05  0.203E-02    2.46       1.1  T
   6    -28.9708769 -0.185785E-05  0.123E-02    2.46       1.9  T
   7    -28.9708778 -0.899218E-06  0.675E-03    2.46       3.4  T
   8    -28.9708780 -0.169573E-06  0.361E-03    2.46       6.3  T
   9    -28.9708781 -0.137737E-06  0.827E-04    2.46      27.8  T
  10    -28.9708781 -0.194644E-08  0.452E-04    2.46      50.7  T
     SCC iter.                  ...        0 min,  0.018 sec
     gradient                   ...        0 min,  0.002 sec
 * total energy  :   -28.6213213 Eh     change       -0.5210187E-02 Eh
   gradient norm :     0.0371952 Eh/α   predicted    -0.3515705E-02 ( -32.52%)
   displ. norm   :     0.7908056 α      lambda       -0.9937859E-02
   maximum displ.:     0.5175027 α      in ANC's #1, #2, #4, ...

........................................................................
.............................. CYCLE    5 ..............................
........................................................................
   1    -28.9656493 -0.289656E+02  0.515E-01    2.47       0.0  T
   2    -28.9665149 -0.865555E-03  0.295E-01    2.65       1.0  T
   3    -28.9666211 -0.106241E-03  0.119E-01    2.83       1.0  T
   4    -28.9666500 -0.289018E-04  0.689E-02    2.89       1.0  T
   5    -28.9666650 -0.150251E-04  0.541E-02    2.90       1.0  T
   6    -28.9666814 -0.163303E-04  0.302E-02    2.90       1.0  T
   7    -28.9666886 -0.725726E-05  0.144E-02    2.90       1.6  T
   8    -28.9666892 -0.627658E-06  0.720E-03    2.90       3.2  T
   9    -28.9666899 -0.621366E-06  0.306E-03    2.90       7.5  T
  10    -28.9666899 -0.382071E-07  0.200E-03    2.90      11.5  T
  11    -28.9666899 -0.239799E-07  0.130E-03    2.90      17.7  T
  12    -28.9666899 -0.127583E-07  0.509E-04    2.90      45.0  T
  13    -28.9666899 -0.147454E-08  0.262E-04    2.90      87.6  T
     SCC iter.                  ...        0 min,  0.022 sec
     gradient                   ...        0 min,  0.002 sec
 * total energy  :   -28.6279446 Eh     change       -0.6623331E-02 Eh
   gradient norm :     0.0487770 Eh/α   predicted    -0.8076373E-02 (  21.94%)
   displ. norm   :     0.3111085 α      lambda       -0.6200895E-02
   maximum displ.:     0.1018552 α      in ANC's #22, #25, #9, ...

........................................................................
.............................. CYCLE    6 ..............................
........................................................................
   1    -28.9644248 -0.289644E+02  0.463E-01    3.00       0.0  T
   2    -28.9652286 -0.803740E-03  0.256E-01    3.21       1.0  T
   3    -28.9653260 -0.974207E-04  0.118E-01    3.40       1.0  T
   4    -28.9653623 -0.363022E-04  0.706E-02    3.48       1.0  T
   5    -28.9653782 -0.159427E-04  0.571E-02    3.49       1.0  T
   6    -28.9653965 -0.182781E-04  0.387E-02    3.49       1.0  T
   7    -28.9654127 -0.161881E-04  0.169E-02    3.48       1.4  T
   8    -28.9654141 -0.144667E-05  0.104E-02    3.48       2.2  T
   9    -28.9654155 -0.135381E-05  0.235E-03    3.48       9.8  T
  10    -28.9654155 -0.128842E-07  0.139E-03    3.48      16.5  T
  11    -28.9654155 -0.659708E-08  0.806E-04    3.48      28.5  T
  12    -28.9654155 -0.343552E-08  0.382E-04    3.48      60.1  T
     SCC iter.                  ...        0 min,  0.020 sec
     gradient                   ...        0 min,  0.002 sec
 * total energy  :   -28.6317161 Eh     change       -0.3771478E-02 Eh
   gradient norm :     0.0351636 Eh/α   predicted    -0.3400540E-02 (  -9.84%)
   displ. norm   :     0.3368050 α      lambda       -0.3230800E-02
   maximum displ.:     0.1318899 α      in ANC's #4, #1, #3, ...

........................................................................
.............................. CYCLE    7 ..............................
........................................................................
   1    -28.9711188 -0.289711E+02  0.279E-01    3.56       0.0  T
   2    -28.9713394 -0.220524E-03  0.167E-01    3.67       1.0  T
   3    -28.9713707 -0.313177E-04  0.679E-02    3.79       1.0  T
   4    -28.9713800 -0.929605E-05  0.400E-02    3.82       1.0  T
   5    -28.9713858 -0.579853E-05  0.324E-02    3.82       1.0  T
   6    -28.9713926 -0.685611E-05  0.197E-02    3.82       1.2  T
   7    -28.9713961 -0.351684E-05  0.104E-02    3.82       2.2  T
   8    -28.9713968 -0.665682E-06  0.623E-03    3.82       3.7  T
   9    -28.9713973 -0.483911E-06  0.257E-03    3.82       8.9  T
  10    -28.9713973 -0.301458E-07  0.178E-03    3.82      12.9  T
  11    -28.9713973 -0.226669E-07  0.971E-04    3.82      23.6  T
  12    -28.9713973 -0.647008E-08  0.342E-04    3.82      67.2  T
     SCC iter.                  ...        0 min,  0.018 sec
     gradient                   ...        0 min,  0.002 sec
 * total energy  :   -28.6338216 Eh     change       -0.2105480E-02 Eh
   gradient norm :     0.0277363 Eh/α   predicted    -0.1798650E-02 ( -14.57%)
   displ. norm   :     0.2241907 α      lambda       -0.2337591E-02
   maximum displ.:     0.1217912 α      in ANC's #2, #4, #1, ...

........................................................................
.............................. CYCLE    8 ..............................
........................................................................
   1    -28.9755830 -0.289756E+02  0.155E-01    3.85       0.0  T
   2    -28.9756145 -0.315280E-04  0.890E-02    3.87       1.0  T
   3    -28.9756128  0.169838E-05  0.322E-02    3.88       1.0  T
   4    -28.9756173 -0.451382E-05  0.167E-02    3.88       1.4  T
   5    -28.9756202 -0.288203E-05  0.875E-03    3.88       2.6  T
   6    -28.9756205 -0.260066E-06  0.675E-03    3.88       3.4  T
   7    -28.9756207 -0.187722E-06  0.519E-03    3.88       4.4  T
   8    -28.9756209 -0.210712E-06  0.299E-03    3.88       7.7  T
   9    -28.9756210 -0.760455E-07  0.913E-04    3.88      25.1  T
  10    -28.9756210 -0.416861E-08  0.653E-04    3.88      35.2  T
     SCC iter.                  ...        0 min,  0.014 sec
     gradient                   ...        0 min,  0.002 sec
 * total energy  :   -28.6354321 Eh     change       -0.1610487E-02 Eh
   gradient norm :     0.0206987 Eh/α   predicted    -0.1227545E-02 ( -23.78%)
   displ. norm   :     0.3235605 α      lambda       -0.2868881E-02
   maximum displ.:     0.1599786 α      in ANC's #5, #3, #8, ...

........................................................................
.............................. CYCLE    9 ..............................
........................................................................
   1    -28.9789579 -0.289790E+02  0.223E-01    3.95       0.0  T
   2    -28.9790716 -0.113633E-03  0.126E-01    3.95       1.0  T
   3    -28.9790800 -0.846435E-05  0.555E-02    3.95       1.0  T
   4    -28.9790839 -0.384598E-05  0.366E-02    3.95       1.0  T
   5    -28.9790949 -0.110447E-04  0.235E-02    3.95       1.0  T
   6    -28.9790972 -0.227080E-05  0.173E-02    3.95       1.3  T
   7    -28.9790995 -0.231635E-05  0.100E-02    3.95       2.3  T
   8    -28.9791006 -0.108519E-05  0.480E-03    3.95       4.8  T
   9    -28.9791008 -0.197435E-06  0.209E-03    3.95      11.0  T
  10    -28.9791008 -0.197363E-07  0.163E-03    3.95      14.0  T
  11    -28.9791008 -0.187366E-07  0.879E-04    3.95      26.1  T
  12    -28.9791008 -0.531641E-08  0.426E-04    3.95      53.9  T
     SCC iter.                  ...        0 min,  0.017 sec
     gradient                   ...        0 min,  0.002 sec
 * total energy  :   -28.6368543 Eh     change       -0.1422195E-02 Eh
   gradient norm :     0.0192311 Eh/α   predicted    -0.1584620E-02 (  11.42%)
   displ. norm   :     0.1671571 α      lambda       -0.1185206E-02
   maximum displ.:     0.1042769 α      in ANC's #2, #10, #5, ...

........................................................................
.............................. CYCLE   10 ..............................
........................................................................
   1    -28.9802086 -0.289802E+02  0.104E-01    3.94       0.0  T
   2    -28.9802197 -0.110229E-04  0.656E-02    3.94       1.0  T
   3    -28.9802254 -0.570837E-05  0.265E-02    3.94       1.0  T
   4    -28.9802275 -0.213514E-05  0.215E-02    3.94       1.1  T
   5    -28.9802303 -0.276691E-05  0.157E-02    3.94       1.5  T
   6    -28.9802324 -0.208297E-05  0.876E-03    3.94       2.6  T
   7    -28.9802331 -0.721890E-06  0.352E-03    3.94       6.5  T
   8    -28.9802332 -0.829628E-07  0.171E-03    3.94      13.4  T
   9    -28.9802332 -0.147928E-07  0.128E-03    3.94      17.9  T
  10    -28.9802332 -0.889055E-08  0.808E-04    3.94      28.4  T
  11    -28.9802332 -0.479050E-08  0.462E-04    3.94      49.7  T
     SCC iter.                  ...        0 min,  0.015 sec
     gradient                   ...        0 min,  0.002 sec
 * total energy  :   -28.6375064 Eh     change       -0.6521512E-03 Eh
   gradient norm :     0.0150106 Eh/α   predicted    -0.6091679E-03 (  -6.59%)
   displ. norm   :     0.1262251 α      lambda       -0.4498001E-03
   maximum displ.:     0.0660970 α      in ANC's #2, #5, #6, ...

........................................................................
.............................. CYCLE   11 ..............................
........................................................................
   1    -28.9801300 -0.289801E+02  0.664E-02    3.92       0.0  T
   2    -28.9801366 -0.666100E-05  0.363E-02    3.92       1.0  T
   3    -28.9801365  0.187697E-06  0.133E-02    3.92       1.7  T
   4    -28.9801373 -0.824832E-06  0.705E-03    3.92       3.3  T
   5    -28.9801377 -0.442152E-06  0.352E-03    3.92       6.5  T
   6    -28.9801378 -0.444806E-07  0.256E-03    3.92       8.9  T
   7    -28.9801378 -0.279416E-07  0.196E-03    3.92      11.7  T
   8    -28.9801378 -0.311605E-07  0.124E-03    3.92      18.5  T
   9    -28.9801378 -0.169725E-07  0.455E-04    3.92      50.4  T
  10    -28.9801378 -0.161686E-08  0.273E-04    3.92      84.2  T
     SCC iter.                  ...        0 min,  0.014 sec
     gradient                   ...        0 min,  0.002 sec
 * total energy  :   -28.6378434 Eh     change       -0.3369305E-03 Eh
   gradient norm :     0.0096970 Eh/α   predicted    -0.2284849E-03 ( -32.19%)
   displ. norm   :     0.1875254 α      lambda       -0.4272857E-03
   maximum displ.:     0.1063683 α      in ANC's #5, #2, #6, ...

........................................................................
.............................. CYCLE   12 ..............................
........................................................................
   1    -28.9806159 -0.289806E+02  0.904E-02    3.91       0.0  T
   2    -28.9806280 -0.120643E-04  0.491E-02    3.92       1.0  T
   3    -28.9806272  0.828371E-06  0.204E-02    3.91       1.1  T
   4    -28.9806292 -0.202005E-05  0.104E-02    3.92       2.2  T
   5    -28.9806302 -0.101078E-05  0.489E-03    3.92       4.7  T
   6    -28.9806303 -0.739347E-07  0.351E-03    3.92       6.5  T
   7    -28.9806303 -0.567163E-07  0.275E-03    3.92       8.3  T
   8    -28.9806304 -0.651626E-07  0.154E-03    3.92      14.9  T
   9    -28.9806304 -0.245909E-07  0.579E-04    3.92      39.6  T
  10    -28.9806304 -0.223636E-08  0.370E-04    3.92      62.0  T
     SCC iter.                  ...        0 min,  0.014 sec
     gradient                   ...        0 min,  0.002 sec
 * total energy  :   -28.6381192 Eh     change       -0.2757968E-03 Eh
   gradient norm :     0.0058004 Eh/α   predicted    -0.2211614E-03 ( -19.81%)
   displ. norm   :     0.1328009 α      lambda       -0.1652375E-03
   maximum displ.:     0.0758962 α      in ANC's #5, #2, #6, ...

........................................................................
.............................. CYCLE   13 ..............................
........................................................................
   1    -28.9811737 -0.289812E+02  0.555E-02    3.92       0.0  T
   2    -28.9811766 -0.292548E-05  0.309E-02    3.92       1.0  T
   3    -28.9811756  0.981641E-06  0.129E-02    3.92       1.8  T
   4    -28.9811769 -0.123650E-05  0.610E-03    3.92       3.8  T
   5    -28.9811773 -0.390082E-06  0.257E-03    3.92       8.9  T
   6    -28.9811773 -0.195233E-07  0.183E-03    3.92      12.6  T
   7    -28.9811773 -0.177309E-07  0.138E-03    3.92      16.7  T
   8    -28.9811773 -0.154469E-07  0.737E-04    3.92      31.1  T
   9    -28.9811773 -0.550843E-08  0.279E-04    3.92      82.4  T
     SCC iter.                  ...        0 min,  0.012 sec
     gradient                   ...        0 min,  0.002 sec
 * total energy  :   -28.6382430 Eh     change       -0.1238688E-03 Eh
   gradient norm :     0.0063299 Eh/α   predicted    -0.8408022E-04 ( -32.12%)
   displ. norm   :     0.2286861 α      lambda       -0.2278668E-03
   maximum displ.:     0.1297451 α      in ANC's #5, #2, #6, ...

........................................................................
.............................. CYCLE   14 ..............................
........................................................................
   1    -28.9801633 -0.289802E+02  0.878E-02    3.92       0.0  T
   2    -28.9801661 -0.278784E-05  0.503E-02    3.92       1.0  T
   3    -28.9801625  0.360537E-05  0.186E-02    3.92       1.2  T
   4    -28.9801667 -0.412858E-05  0.683E-03    3.92       3.4  T
   5    -28.9801671 -0.458351E-06  0.299E-03    3.92       7.7  T
   6    -28.9801671 -0.215901E-07  0.197E-03    3.92      11.7  T
   7    -28.9801672 -0.213614E-07  0.143E-03    3.92      16.0  T
   8    -28.9801672 -0.137186E-07  0.551E-04    3.92      41.6  T
   9    -28.9801672 -0.197321E-08  0.244E-04    3.92      94.1  T
     SCC iter.                  ...        0 min,  0.012 sec
     gradient                   ...        0 min,  0.001 sec
 * total energy  :   -28.6384047 Eh     change       -0.1616636E-03 Eh
   gradient norm :     0.0076487 Eh/α   predicted    -0.1198930E-03 ( -25.84%)
   displ. norm   :     0.2634739 α      lambda       -0.2440768E-03
   maximum displ.:     0.1358746 α      in ANC's #5, #3, #2, ...

........................................................................
.............................. CYCLE   15 ..............................
........................................................................
   1    -28.9804646 -0.289805E+02  0.903E-02    3.93       0.0  T
   2    -28.9804655 -0.897423E-06  0.522E-02    3.93       1.0  T
   3    -28.9804628  0.265301E-05  0.150E-02    3.93       1.5  T
   4    -28.9804659 -0.312819E-05  0.474E-03    3.93       4.8  T
   5    -28.9804660 -0.119439E-06  0.260E-03    3.93       8.8  T
   6    -28.9804661 -0.232120E-07  0.170E-03    3.93      13.5  T
   7    -28.9804661 -0.736520E-08  0.119E-03    3.93      19.3  T
   8    -28.9804661 -0.132724E-07  0.350E-04    3.93      65.6  T
   9    -28.9804661 -0.455962E-09  0.195E-04    3.93     117.6  T
     SCC iter.                  ...        0 min,  0.012 sec
     gradient                   ...        0 min,  0.002 sec
 * total energy  :   -28.6385843 Eh     change       -0.1795931E-03 Eh
   gradient norm :     0.0090902 Eh/α   predicted    -0.1305153E-03 ( -27.33%)
   displ. norm   :     0.3154526 α      lambda       -0.2862734E-03
   maximum displ.:     0.1695067 α      in ANC's #3, #5, #2, ...

........................................................................
.............................. CYCLE   16 ..............................
........................................................................
   1    -28.9794637 -0.289795E+02  0.109E-01    3.93       0.0  T
   2    -28.9794657 -0.199805E-05  0.630E-02    3.93       1.0  T
   3    -28.9794657  0.294859E-07  0.111E-02    3.93       2.1  T
   4    -28.9794664 -0.746436E-06  0.770E-03    3.93       3.0  T
   5    -28.9794668 -0.332033E-06  0.502E-03    3.93       4.6  T
   6    -28.9794669 -0.930977E-07  0.345E-03    3.93       6.6  T
   7    -28.9794669 -0.468295E-07  0.227E-03    3.93      10.1  T
   8    -28.9794670 -0.450156E-07  0.660E-04    3.93      34.8  T
   9    -28.9794670 -0.257602E-08  0.254E-04    3.93      90.4  T
     SCC iter.                  ...        0 min,  0.012 sec
     gradient                   ...        0 min,  0.002 sec
 * total energy  :   -28.6388019 Eh     change       -0.2176637E-03 Eh
   gradient norm :     0.0082463 Eh/α   predicted    -0.1573825E-03 ( -27.69%)
   displ. norm   :     0.3256457 α      lambda       -0.3241634E-03
   maximum displ.:     0.2156834 α      in ANC's #3, #5, #2, ...

........................................................................
.............................. CYCLE   17 ..............................
........................................................................
   1    -28.9801083 -0.289801E+02  0.108E-01    3.94       0.0  T
   2    -28.9801140 -0.568248E-05  0.626E-02    3.94       1.0  T
   3    -28.9801115  0.250015E-05  0.197E-02    3.94       1.2  T
   4    -28.9801153 -0.379064E-05  0.102E-02    3.94       2.3  T
   5    -28.9801160 -0.744071E-06  0.643E-03    3.94       3.6  T
   6    -28.9801161 -0.110379E-06  0.462E-03    3.94       5.0  T
   7    -28.9801162 -0.118895E-06  0.301E-03    3.94       7.6  T
   8    -28.9801163 -0.625471E-07  0.102E-03    3.94      22.5  T
   9    -28.9801163 -0.607640E-08  0.332E-04    3.94      69.2  T
  10    -28.9801163 -0.365453E-09  0.223E-04    3.94     102.7  T
     SCC iter.                  ...        0 min,  0.014 sec
     gradient                   ...        0 min,  0.002 sec
 * total energy  :   -28.6390359 Eh     change       -0.2339093E-03 Eh
   gradient norm :     0.0069423 Eh/α   predicted    -0.1792707E-03 ( -23.36%)
   displ. norm   :     0.3200347 α      lambda       -0.2328959E-03
   maximum displ.:     0.2046052 α      in ANC's #3, #2, #5, ...

........................................................................
.............................. CYCLE   18 ..............................
........................................................................
   1    -28.9795682 -0.289796E+02  0.105E-01    3.93       0.0  T
   2    -28.9795720 -0.384724E-05  0.615E-02    3.93       1.0  T
   3    -28.9795703  0.170716E-05  0.188E-02    3.93       1.2  T
   4    -28.9795733 -0.305410E-05  0.110E-02    3.93       2.1  T
   5    -28.9795741 -0.772097E-06  0.760E-03    3.93       3.0  T
   6    -28.9795743 -0.220405E-06  0.517E-03    3.93       4.4  T
   7    -28.9795745 -0.162833E-06  0.318E-03    3.93       7.2  T
   8    -28.9795746 -0.798778E-07  0.983E-04    3.93      23.3  T
   9    -28.9795746 -0.574595E-08  0.591E-04    3.93      38.8  T
     SCC iter.                  ...        0 min,  0.013 sec
     gradient                   ...        0 min,  0.002 sec
 * total energy  :   -28.6392040 Eh     change       -0.1681710E-03 Eh
   gradient norm :     0.0062147 Eh/α   predicted    -0.1283774E-03 ( -23.66%)
   displ. norm   :     0.2528216 α      lambda       -0.2175826E-03
   maximum displ.:     0.1931483 α      in ANC's #3, #6, #2, ...

........................................................................
.............................. CYCLE   19 ..............................
........................................................................
   1    -28.9817955 -0.289818E+02  0.771E-02    3.93       0.0  T
   2    -28.9817985 -0.300758E-05  0.453E-02    3.93       1.0  T
   3    -28.9817972  0.138479E-05  0.151E-02    3.93       1.5  T
   4    -28.9817995 -0.237275E-05  0.766E-03    3.93       3.0  T
   5    -28.9817999 -0.332864E-06  0.515E-03    3.93       4.5  T
   6    -28.9817999 -0.779109E-07  0.356E-03    3.93       6.4  T
   7    -28.9818000 -0.688252E-07  0.230E-03    3.93      10.0  T
   8    -28.9818000 -0.343109E-07  0.708E-04    3.93      32.4  T
   9    -28.9818000 -0.324022E-08  0.233E-04    3.93      98.3  T
     SCC iter.                  ...        0 min,  0.012 sec
     gradient                   ...        0 min,  0.002 sec
 * total energy  :   -28.6393348 Eh     change       -0.1307991E-03 Eh
   gradient norm :     0.0061383 Eh/α   predicted    -0.1157477E-03 ( -11.51%)
   displ. norm   :     0.3694124 α      lambda       -0.1698507E-03
   maximum displ.:     0.2273105 α      in ANC's #3, #2, #5, ...

........................................................................
.............................. CYCLE   20 ..............................
........................................................................
   1    -28.9796735 -0.289797E+02  0.122E-01    3.91       0.0  T
   2    -28.9796755 -0.202100E-05  0.723E-02    3.91       1.0  T
   3    -28.9796772 -0.169798E-05  0.137E-02    3.91       1.7  T
   4    -28.9796777 -0.423223E-06  0.112E-02    3.91       2.0  T
   5    -28.9796784 -0.765544E-06  0.721E-03    3.91       3.2  T
   6    -28.9796787 -0.242676E-06  0.463E-03    3.91       5.0  T
   7    -28.9796789 -0.183574E-06  0.179E-03    3.91      12.8  T
   8    -28.9796789 -0.295139E-07  0.101E-03    3.91      22.7  T
   9    -28.9796789 -0.469264E-08  0.708E-04    3.91      32.4  T
  10    -28.9796789 -0.370633E-08  0.437E-04    3.91      52.5  T
     SCC iter.                  ...        0 min,  0.014 sec
     gradient                   ...        0 min,  0.002 sec
 * total energy  :   -28.6394185 Eh     change       -0.8365816E-04 Eh
   gradient norm :     0.0068078 Eh/α   predicted    -0.9651927E-04 (  15.37%)
   displ. norm   :     0.0732965 α      lambda       -0.1155366E-03
   maximum displ.:     0.0515957 α      in ANC's #3, #4, #11, ...
 * RMSD in coord.:     0.8983277 α      energy gain  -0.3099974E-01 Eh

generating ANC from model Hessian ...
Using Lindh-Hessian (1995)
 Shifting diagonal of input Hessian by    9.5699028496858962E-003
 Lowest  eigenvalues of input Hessian
    0.000000    0.000000    0.000000    0.000000    0.000000    0.000000
    0.010000    0.010204    0.011894    0.012469    0.014046    0.015369
    0.022268    0.024229    0.028739    0.030238    0.034505    0.041752
 Highest eigenvalues
    1.377259    1.454967    1.542242    1.659940    1.890938    1.904168


........................................................................
.............................. CYCLE   21 ..............................
........................................................................
   1    -28.9812085 -0.289812E+02  0.339E-02    3.91       0.0  T
   2    -28.9812092 -0.747811E-06  0.194E-02    3.91       1.2  T
   3    -28.9812088  0.422557E-06  0.843E-03    3.91       2.7  T
   4    -28.9812094 -0.631148E-06  0.396E-03    3.91       5.8  T
   5    -28.9812095 -0.113501E-06  0.230E-03    3.91      10.0  T
   6    -28.9812096 -0.263171E-07  0.162E-03    3.91      14.2  T
   7    -28.9812096 -0.192052E-07  0.971E-04    3.91      23.6  T
   8    -28.9812096 -0.952894E-08  0.414E-04    3.91      55.4  T
     SCC iter.                  ...        0 min,  0.011 sec
     gradient                   ...        0 min,  0.002 sec
 * total energy  :   -28.6394992 Eh     change       -0.8066814E-04 Eh
   gradient norm :     0.0044103 Eh/α   predicted     0.0000000E+00 (-100.00%)
   displ. norm   :     0.0496961 α      lambda       -0.8432206E-04
   maximum displ.:     0.0235798 α      in ANC's #2, #12, #8, ...

........................................................................
.............................. CYCLE   22 ..............................
........................................................................
   1    -28.9817460 -0.289817E+02  0.327E-02    3.92       0.0  T
   2    -28.9817465 -0.506648E-06  0.196E-02    3.92       1.2  T
   3    -28.9817464  0.388639E-07  0.708E-03    3.92       3.2  T
   4    -28.9817468 -0.327731E-06  0.468E-03    3.92       4.9  T
   5    -28.9817469 -0.115631E-06  0.329E-03    3.92       7.0  T
   6    -28.9817469 -0.538338E-07  0.173E-03    3.92      13.3  T
   7    -28.9817470 -0.179036E-07  0.837E-04    3.92      27.4  T
   8    -28.9817470 -0.573227E-08  0.287E-04    3.92      79.8  T
     SCC iter.                  ...        0 min,  0.011 sec
     gradient                   ...        0 min,  0.001 sec
 * total energy  :   -28.6395527 Eh     change       -0.5357056E-04 Eh
   gradient norm :     0.0020049 Eh/α   predicted    -0.4235790E-04 ( -20.93%)
   displ. norm   :     0.0760808 α      lambda       -0.6584176E-04
   maximum displ.:     0.0349691 α      in ANC's #2, #4, #1, ...

........................................................................
.............................. CYCLE   23 ..............................
........................................................................
   1    -28.9820353 -0.289820E+02  0.360E-02    3.92       0.0  T
   2    -28.9820359 -0.567532E-06  0.209E-02    3.92       1.1  T
   3    -28.9820360 -0.510089E-07  0.506E-03    3.92       4.5  T
   4    -28.9820361 -0.933243E-07  0.370E-03    3.92       6.2  T
   5    -28.9820361 -0.922636E-07  0.249E-03    3.92       9.2  T
   6    -28.9820362 -0.271380E-07  0.161E-03    3.92      14.3  T
   7    -28.9820362 -0.156305E-07  0.714E-04    3.92      32.1  T
   8    -28.9820362 -0.236239E-08  0.298E-04    3.92      76.9  T
     SCC iter.                  ...        0 min,  0.011 sec
     gradient                   ...        0 min,  0.002 sec
 * total energy  :   -28.6395924 Eh     change       -0.3967154E-04 Eh
   gradient norm :     0.0016550 Eh/α   predicted    -0.3311236E-04 ( -16.53%)
   displ. norm   :     0.0883770 α      lambda       -0.2532856E-04
   maximum displ.:     0.0545646 α      in ANC's #2, #4, #12, ...

........................................................................
.............................. CYCLE   24 ..............................
........................................................................
   1    -28.9816084 -0.289816E+02  0.338E-02    3.92       0.0  T
   2    -28.9816087 -0.307914E-06  0.201E-02    3.92       1.1  T
   3    -28.9816089 -0.135443E-06  0.421E-03    3.92       5.5  T
   4    -28.9816089 -0.513814E-07  0.328E-03    3.92       7.0  T
   5    -28.9816090 -0.512461E-07  0.234E-03    3.92       9.8  T
   6    -28.9816090 -0.294516E-07  0.116E-03    3.92      19.8  T
   7    -28.9816090 -0.777620E-08  0.642E-04    3.92      35.7  T
   8    -28.9816090 -0.355279E-08  0.224E-04    3.92     102.2  T
     SCC iter.                  ...        0 min,  0.011 sec
     gradient                   ...        0 min,  0.002 sec
 * total energy  :   -28.6396142 Eh     change       -0.2178905E-04 Eh
   gradient norm :     0.0018236 Eh/α   predicted    -0.1270860E-04 ( -41.67%)
   displ. norm   :     0.0501407 α      lambda       -0.1124703E-04
   maximum displ.:     0.0349226 α      in ANC's #2, #4, #7, ...

........................................................................
.............................. CYCLE   25 ..............................
........................................................................
   1    -28.9815806 -0.289816E+02  0.157E-02    3.92       0.0  T
   2    -28.9815807 -0.830338E-07  0.939E-03    3.92       2.4  T
   3    -28.9815807  0.171503E-07  0.273E-03    3.92       8.4  T
   4    -28.9815807 -0.595548E-07  0.173E-03    3.92      13.3  T
   5    -28.9815807 -0.165493E-07  0.127E-03    3.92      18.1  T
   6    -28.9815807 -0.105794E-07  0.724E-04    3.92      31.7  T
   7    -28.9815808 -0.371580E-08  0.375E-04    3.92      61.2  T
     SCC iter.                  ...        0 min,  0.010 sec
     gradient                   ...        0 min,  0.002 sec
 * total energy  :   -28.6396257 Eh     change       -0.1156178E-04 Eh
   gradient norm :     0.0007478 Eh/α   predicted    -0.5630096E-05 ( -51.30%)
   displ. norm   :     0.0574342 α      lambda       -0.8030633E-05
   maximum displ.:     0.0407453 α      in ANC's #2, #4, #5, ...

........................................................................
.............................. CYCLE   26 ..............................
........................................................................
   1    -28.9817622 -0.289818E+02  0.154E-02    3.92       0.0  T
   2    -28.9817623 -0.528757E-07  0.900E-03    3.92       2.5  T
   3    -28.9817623  0.344352E-08  0.191E-03    3.92      12.0  T
   4    -28.9817623 -0.306089E-07  0.127E-03    3.92      18.1  T
   5    -28.9817623 -0.790859E-08  0.885E-04    3.92      25.9  T
   6    -28.9817623 -0.362400E-08  0.595E-04    3.92      38.6  T
     SCC iter.                  ...        0 min,  0.008 sec
     gradient                   ...        0 min,  0.002 sec
 * total energy  :   -28.6396347 Eh     change       -0.8938506E-05 Eh
   gradient norm :     0.0007989 Eh/α   predicted    -0.4022958E-05 ( -54.99%)
   displ. norm   :     0.0715418 α      lambda       -0.7553625E-05
   maximum displ.:     0.0481558 α      in ANC's #2, #4, #5, ...

........................................................................
.............................. CYCLE   27 ..............................
........................................................................
   1    -28.9818619 -0.289819E+02  0.197E-02    3.92       0.0  T
   2    -28.9818620 -0.677484E-07  0.115E-02    3.92       2.0  T
   3    -28.9818620  0.167969E-07  0.210E-03    3.92      10.9  T
   4    -28.9818620 -0.469928E-07  0.121E-03    3.92      18.9  T
   5    -28.9818620 -0.767766E-08  0.781E-04    3.92      29.4  T
   6    -28.9818620 -0.289279E-08  0.479E-04    3.92      47.9  T
     SCC iter.                  ...        0 min,  0.008 sec
     gradient                   ...        0 min,  0.002 sec
 * total energy  :   -28.6396437 Eh     change       -0.9013391E-05 Eh
   gradient norm :     0.0009635 Eh/α   predicted    -0.3789982E-05 ( -57.95%)
   displ. norm   :     0.0930857 α      lambda       -0.8334578E-05
   maximum displ.:     0.0636625 α      in ANC's #2, #4, #5, ...

........................................................................
.............................. CYCLE   28 ..............................
........................................................................
   1    -28.9818528 -0.289819E+02  0.257E-02    3.92       0.0  T
   2    -28.9818529 -0.101077E-06  0.148E-02    3.92       1.5  T
   3    -28.9818529 -0.124637E-08  0.243E-03    3.92       9.4  T
   4    -28.9818530 -0.459009E-07  0.160E-03    3.92      14.4  T
   5    -28.9818530 -0.130327E-07  0.926E-04    3.92      24.8  T
   6    -28.9818530 -0.380011E-08  0.644E-04    3.92      35.6  T
     SCC iter.                  ...        0 min,  0.008 sec
     gradient                   ...        0 min,  0.002 sec
 * total energy  :   -28.6396533 Eh     change       -0.9565300E-05 Eh
   gradient norm :     0.0008140 Eh/α   predicted    -0.4187545E-05 ( -56.22%)
   displ. norm   :     0.0764987 α      lambda       -0.5494531E-05
   maximum displ.:     0.0553740 α      in ANC's #2, #4, #5, ...

........................................................................
.............................. CYCLE   29 ..............................
........................................................................
   1    -28.9818136 -0.289818E+02  0.228E-02    3.92       0.0  T
   2    -28.9818137 -0.644525E-07  0.132E-02    3.92       1.7  T
   3    -28.9818137 -0.551367E-08  0.214E-03    3.92      10.7  T
   4    -28.9818137 -0.333261E-07  0.146E-03    3.92      15.8  T
   5    -28.9818137 -0.106165E-07  0.880E-04    3.92      26.1  T
   6    -28.9818137 -0.380152E-08  0.536E-04    3.92      42.8  T
     SCC iter.                  ...        0 min,  0.008 sec
     gradient                   ...        0 min,  0.002 sec
 * total energy  :   -28.6396594 Eh     change       -0.6155944E-05 Eh
   gradient norm :     0.0004240 Eh/α   predicted    -0.2756512E-05 ( -55.22%)
   displ. norm   :     0.0501884 α      lambda       -0.3181166E-05
   maximum displ.:     0.0385775 α      in ANC's #2, #4, #3, ...

........................................................................
.............................. CYCLE   30 ..............................
........................................................................
   1    -28.9818219 -0.289818E+02  0.146E-02    3.92       0.0  T
   2    -28.9818219 -0.301357E-07  0.834E-03    3.92       2.8  T
   3    -28.9818219  0.154215E-07  0.191E-03    3.92      12.0  T
   4    -28.9818219 -0.348839E-07  0.109E-03    3.92      21.0  T
   5    -28.9818219 -0.572105E-08  0.648E-04    3.92      35.4  T
   6    -28.9818219 -0.171204E-08  0.442E-04    3.92      52.0  T
     SCC iter.                  ...        0 min,  0.008 sec
     gradient                   ...        0 min,  0.002 sec
 * total energy  :   -28.6396632 Eh     change       -0.3809296E-05 Eh
   gradient norm :     0.0002917 Eh/α   predicted    -0.1595987E-05 ( -58.10%)
   displ. norm   :     0.0411214 α      lambda       -0.2642380E-05
   maximum displ.:     0.0312611 α      in ANC's #2, #3, #6, ...

   *** GEOMETRY OPTIMIZATION CONVERGED AFTER 30 ITERATIONS ***

------------------------------------------------------------------------
 total energy gain   :        -0.0312445 Eh      -19.6062 kcal/mol
 total RMSD          :         0.9687021 a0        0.5126 Å
 total power (kW/mol):        -2.7344129 (step) -162.8252 (real)
------------------------------------------------------------------------

 ANCopt (total)                0 d,  0 h,  0 min,  0.504 sec
 optimizer setup                ...        0 min,  0.000 sec (  0.025%)
 model hessian                  ...        0 min,  0.007 sec (  1.412%)
 ANC generation                 ...        0 min,  0.002 sec (  0.388%)
 coordinate transformation      ...        0 min,  0.001 sec (  0.115%)
 single point calculation       ...        0 min,  0.484 sec ( 96.030%)
 optimization log               ...        0 min,  0.002 sec (  0.460%)
 hessian update                 ...        0 min,  0.001 sec (  0.121%)
 rational function              ...        0 min,  0.005 sec (  0.918%)

================
 final structure:
================
19
 xtb: 6.5.1 (fef0646)
N            1.33681823382456       -0.45900338590881       -0.18961260138354
C            2.76512633415955       -0.23915658063907        0.02165336352898
C            3.15465401153224        1.16501784906529       -0.45210220109670
C            4.60544532957460        1.42300393303733       -0.23410079938310
C            5.58182770402959        1.61024160242049       -1.16112593973550
C            6.86206270426707        1.80681961962193       -0.59280465436219
C            6.84091691056450        1.76125319998946        0.76103680762473
S            5.25780013135847        1.48201138719297        1.37306898982116
Cl          -0.24398121704506        1.65641265599690        1.10272672271439
H            1.04454207265842       -1.35465090867996        0.18471726259886
H            1.10931963366293       -0.42778150818312       -1.17811705746949
H            0.50106745740306        0.67091518668876        0.51445025369398
H            3.38367260772556       -0.98378337858025       -0.50053216082207
H            2.96141520889743       -0.32330260793747        1.09291162493666
H            2.55092464540205        1.89107971581341        0.09575370223843
H            2.93252658031327        1.26887224244970       -1.51652321300875
H            5.39697106531602        1.61504856917555       -2.22080604064008
H            7.75304885188745        1.97285612276416       -1.17132275824109
H            7.65600173446882        1.87427628571297        1.44760869898488

 Bond Distances (Angstroems)
 ---------------------------
N1-C2=1.4605         N1-H10=1.0138        N1-H11=1.0148        C2-N1=1.4605         C2-C3=1.5323         C2-H13=1.0999        
C2-H14=1.0923        C3-C2=1.5323         C3-C4=1.4896         C3-H15=1.0917        C3-H16=1.0923        C4-C3=1.4896         
C4-C5=1.3593         C4-S8=1.7355         C5-C4=1.3593         C5-C6=1.4144         C5-H17=1.0757        C6-C5=1.4144         
C6-C7=1.3548         C6-H18=1.0752        C7-C6=1.3548         C7-S8=1.7201         C7-H19=1.0717        S8-C4=1.7355         
S8-C7=1.7201         Cl9-H12=1.3683       H10-N1=1.0138        H11-N1=1.0148        H12-Cl9=1.3683       H13-C2=1.0999        
H14-C2=1.0923        H15-C3=1.0917        H16-C3=1.0923        H17-C5=1.0757        H18-C6=1.0752        H19-C7=1.0717        
 C  H  Rav=1.0855 sigma=0.0102  Rmin=1.0717  Rmax=1.0999     7
 C  C  Rav=1.4301 sigma=0.0706  Rmin=1.3548  Rmax=1.5323     5
 N  H  Rav=1.0143 sigma=0.0005  Rmin=1.0138  Rmax=1.0148     2
 N  C  Rav=1.4605 sigma=0.0000  Rmin=1.4605  Rmax=1.4605     1
 S  C  Rav=1.7278 sigma=0.0077  Rmin=1.7201  Rmax=1.7355     2
 Cl H  Rav=1.3683 sigma=0.0000  Rmin=1.3683  Rmax=1.3683     1

 selected bond angles (degree)
 --------------------
H10-N1-C2=111.19               H11-N1-C2=110.82               H11-N1-H10=108.80              C3-C2-N1=109.99                
H13-C2-N1=112.30               H13-C2-C3=109.31               H14-C2-N1=107.82               H14-C2-C3=109.16               
H14-C2-H13=108.20              C4-C3-C2=111.17                H15-C3-C2=108.28               H15-C3-C4=110.49               
H16-C3-C2=109.68               H16-C3-C4=108.92               H16-C3-H15=108.26              C5-C4-C3=128.58                
S8-C4-C3=120.50                S8-C4-C5=110.91                C6-C5-C4=113.28                H17-C5-C4=123.30               
H17-C5-C6=123.42               C7-C6-C5=112.50                H18-C6-C5=123.73               H18-C6-C7=123.77               
S8-C7-C6=112.05                H19-C7-C6=128.67               H19-C7-S8=119.29               C7-S8-C4= 91.26                

 selected dihedral angles (degree)
 ---------------------------------
C3-C2-N1-H10=184.50           C3-C2-N1-H11= 63.36           H13-C2-N1-H10= 62.54          H13-C2-N1-H11=301.39          
H14-C2-N1-H10=303.43          H14-C2-N1-H11=182.28          C4-C3-C2-N1=179.36            C4-C3-C2-H13=303.08           
C4-C3-C2-H14= 61.25           H15-C3-C2-N1= 57.81           H15-C3-C2-H13=181.54          H15-C3-C2-H14=299.71          
H16-C3-C2-N1=299.86           H16-C3-C2-H13= 63.59          H16-C3-C2-H14=181.76          C5-C4-C3-C2=113.83            
C5-C4-C3-H15=234.08           C5-C4-C3-H16=352.87           S8-C4-C3-C2=295.26            S8-C4-C3-H15= 55.51           
S8-C4-C3-H16=174.30           C6-C5-C4-C3=181.14            C6-C5-C4-S8=359.83            H17-C5-C4-C3=  1.54           
H17-C5-C4-S8=180.23           C7-C6-C5-C4=  0.22            C7-C6-C5-H17=179.82           H18-C6-C5-C4=180.16           
H18-C6-C5-H17=359.76          S8-C7-C6-C5=359.83            S8-C7-C6-H18=179.90           H19-C7-C6-C5=179.86           
H19-C7-C6-H18=359.93          C7-S8-C4-C3=178.87            C7-S8-C4-C5=  0.07            C4-S8-C7-C6=  0.06            
C4-S8-C7-H19=180.03           

 CMA Distance (Angstroems)
 ---------------------------
R(CMA):  4.9052
           -------------------------------------------------
          |                Final Singlepoint                |
           -------------------------------------------------

          ...................................................
          :                      SETUP                      :
          :.................................................:
          :  # basis functions                  58          :
          :  # atomic orbitals                  56          :
          :  # shells                           30          :
          :  # electrons                        52          :
          :  max. iterations                   250          :
          :  Hamiltonian                  GFN2-xTB          :
          :  restarted?                      false          :
          :  GBSA solvation                  false          :
          :  PC potential                    false          :
          :  electronic temp.          300.0000000     K    :
          :  accuracy                    1.0000000          :
          :  -> integral cutoff          0.2500000E+02      :
          :  -> integral neglect         0.1000000E-07      :
          :  -> SCF convergence          0.1000000E-05 Eh   :
          :  -> wf. convergence          0.1000000E-03 e    :
          :  Broyden damping             0.4000000          :
          ...................................................

 iter      E             dE          RMSdq      gap      omega  full diag
   1    -28.9818219 -0.289818E+02  0.138E-04    3.92       0.0  T
   2    -28.9818219 -0.902070E-10  0.995E-05    3.92     230.6  T
   3    -28.9818219 -0.855422E-10  0.655E-05    3.92     350.1  T

   *** convergence criteria satisfied after 3 iterations ***

         #    Occupation            Energy/Eh            Energy/eV
      -------------------------------------------------------------
         1        2.0000           -1.0196880             -27.7471
       ...           ...                  ...                  ...
        20        2.0000           -0.4515278             -12.2867
        21        2.0000           -0.4475903             -12.1796
        22        2.0000           -0.4038325             -10.9888
        23        2.0000           -0.3970586             -10.8045
        24        2.0000           -0.3968342             -10.7984
        25        2.0000           -0.3965124             -10.7897
        26        2.0000           -0.3880462             -10.5593 (HOMO)
        27                         -0.2441360              -6.6433 (LUMO)
        28                         -0.2020471              -5.4980
        29                         -0.1686081              -4.5881
        30                         -0.1182464              -3.2176
        31                         -0.0587421              -1.5985
       ...                                ...                  ...
        56                          0.6984691              19.0063
      -------------------------------------------------------------
                  HL-Gap            0.1439102 Eh            3.9160 eV
             Fermi-level           -0.3160911 Eh           -8.6013 eV

 SCC (total)                   0 d,  0 h,  0 min,  0.007 sec
 SCC setup                      ...        0 min,  0.000 sec (  1.121%)
 Dispersion                     ...        0 min,  0.000 sec (  1.584%)
 classical contributions        ...        0 min,  0.000 sec (  0.448%)
 integral evaluation            ...        0 min,  0.001 sec ( 10.949%)
 iterations                     ...        0 min,  0.004 sec ( 60.223%)
 molecular gradient             ...        0 min,  0.002 sec ( 22.843%)
 printout                       ...        0 min,  0.000 sec (  1.246%)

         :::::::::::::::::::::::::::::::::::::::::::::::::::::
         ::                     SUMMARY                     ::
         :::::::::::::::::::::::::::::::::::::::::::::::::::::
         :: total energy             -28.639663229373 Eh    ::
         :: gradient norm              0.000290787180 Eh/a0 ::
         :: HOMO-LUMO gap              3.915996246865 eV    ::
         ::.................................................::
         :: SCC energy               -28.981821921899 Eh    ::
         :: -> isotropic ES            0.028085380974 Eh    ::
         :: -> anisotropic ES         -0.005344195631 Eh    ::
         :: -> anisotropic XC          0.011003910100 Eh    ::
         :: -> dispersion             -0.015599534333 Eh    ::
         :: repulsion energy           0.342153688239 Eh    ::
         :: add. restraining           0.000000000000 Eh    ::
         :: total charge               0.000000000000 e     ::
         :::::::::::::::::::::::::::::::::::::::::::::::::::::

           -------------------------------------------------
          |                Property Printout                |
           -------------------------------------------------

    * Orbital Energies and Occupations

         #    Occupation            Energy/Eh            Energy/eV
      -------------------------------------------------------------
         1        2.0000           -1.0196880             -27.7471
       ...           ...                  ...                  ...
        14        2.0000           -0.5020243             -13.6608
        15        2.0000           -0.4915776             -13.3765
        16        2.0000           -0.4761356             -12.9563
        17        2.0000           -0.4710590             -12.8182
        18        2.0000           -0.4699367             -12.7876
        19        2.0000           -0.4665058             -12.6943
        20        2.0000           -0.4515278             -12.2867
        21        2.0000           -0.4475903             -12.1796
        22        2.0000           -0.4038325             -10.9888
        23        2.0000           -0.3970586             -10.8045
        24        2.0000           -0.3968342             -10.7984
        25        2.0000           -0.3965124             -10.7897
        26        2.0000           -0.3880462             -10.5593 (HOMO)
        27                         -0.2441360              -6.6433 (LUMO)
        28                         -0.2020471              -5.4980
        29                         -0.1686081              -4.5881
        30                         -0.1182464              -3.2176
        31                         -0.0587421              -1.5985
        32                         -0.0064706              -0.1761
        33                          0.0138870               0.3779
        34                          0.0255203               0.6944
        35                          0.0326497               0.8884
        36                          0.0640276               1.7423
        37                          0.0645914               1.7576
       ...                                ...                  ...
        56                          0.6984691              19.0063
      -------------------------------------------------------------
                  HL-Gap            0.1439102 Eh            3.9160 eV
             Fermi-level           -0.3160911 Eh           -8.6013 eV

     #   Z          covCN         q      C6AA      α(0)
     1   7 N        2.684    -0.306    27.873     7.841
     2   6 C        3.733     0.010    20.494     6.461
     3   6 C        3.827    -0.075    21.911     6.661
     4   6 C        2.988     0.019    27.584     8.615
     5   6 C        3.123    -0.057    29.226     8.853
     6   6 C        3.114    -0.046    28.979     8.818
     7   6 C        2.941    -0.023    28.571     8.767
     8  16 S        2.336    -0.038   142.613    20.099
     9  17 Cl       0.838    -0.480   114.962    16.403
    10   1 H        0.860     0.168     1.287     1.777
    11   1 H        0.860     0.167     1.288     1.778
    12   1 H        0.891     0.333     0.620     1.233
    13   1 H        0.923     0.027     2.626     2.534
    14   1 H        0.924     0.060     2.201     2.320
    15   1 H        0.924     0.077     2.007     2.215
    16   1 H        0.924     0.050     2.320     2.382
    17   1 H        0.926     0.034     2.530     2.487
    18   1 H        0.926     0.037     2.495     2.470
    19   1 H        0.926     0.043     2.408     2.427

 Mol. C6AA /au·bohr⁶  :       5220.995244
 Mol. C8AA /au·bohr⁸  :     151827.486221
 Mol. α(0) /au        :        114.142142


Wiberg/Mayer (AO) data.
largest (>0.10) Wiberg bond orders for each atom

 ---------------------------------------------------------------------------
     #   Z sym  total        # sym  WBO       # sym  WBO       # sym  WBO
 ---------------------------------------------------------------------------
     1   7 N    3.231 --     2 C    1.007    11 H    0.958    10 H    0.958
                            12 H    0.198
     2   6 C    3.975 --     1 N    1.007     3 C    0.990    14 H    0.973
                            13 H    0.973
     3   6 C    3.994 --     4 C    1.026     2 C    0.990    16 H    0.969
                            15 H    0.959
     4   6 C    3.951 --     5 C    1.607     8 S    1.159     3 C    1.026
                             7 C    0.114
     5   6 C    3.985 --     4 C    1.607     6 C    1.263    17 H    0.965
     6   6 C    3.988 --     7 C    1.638     5 C    1.263    18 H    0.965
     7   6 C    3.947 --     6 C    1.638     8 S    1.186    19 H    0.971
                             4 C    0.114
     8  16 S    2.605 --     7 C    1.186     4 C    1.159
     9  17 Cl   0.772 --    12 H    0.686
    10   1 H    0.971 --     1 N    0.958
    11   1 H    0.972 --     1 N    0.958
    12   1 H    0.889 --     9 Cl   0.686     1 N    0.198
    13   1 H    0.999 --     2 C    0.973
    14   1 H    0.996 --     2 C    0.973
    15   1 H    0.994 --     3 C    0.959
    16   1 H    0.997 --     3 C    0.969
    17   1 H    0.999 --     5 C    0.965
    18   1 H    0.998 --     6 C    0.965
    19   1 H    0.998 --     7 C    0.971
 ---------------------------------------------------------------------------

Topologies differ in total number of bonds
Writing topology from bond orders to xtbtopo.mol

molecular dipole:
                 x           y           z       tot (Debye)
 q only:        1.009      -1.310      -0.916
   full:        0.950      -1.272      -1.133       4.957
molecular quadrupole (traceless):
                xx          xy          yy          xz          yz          zz
 q only:        4.809       1.332      -4.223       0.236      -4.517      -0.586
  q+dip:        6.369       0.011      -5.189      -4.466      -3.216      -1.181
   full:        6.587      -0.015      -4.212      -4.216      -3.197      -2.375

           -------------------------------------------------
          |                Geometry Summary                 |
           -------------------------------------------------

      molecular mass/u    :      163.6682511
   center of mass at/Å    :        3.4965548       1.2004511       0.3499850
  moments of inertia/u·Å² :        0.2135485E+03   0.1152271E+04   0.1231811E+04
rotational constants/cm⁻¹ :        0.7894051E-01   0.1462993E-01   0.1368524E-01

 * 17 selected distances

     #   Z          #   Z                                           value/Å
     1   7 N        2   6 C                                       1.4604898
     2   6 C        3   6 C                                       1.5322801
     3   6 C        4   6 C                                       1.4895896
     4   6 C        5   6 C                                       1.3593221
     5   6 C        6   6 C                                       1.4144377
     6   6 C        7   6 C                                       1.3547732
     4   6 C        8  16 S                                       1.7355241 (max)
     7   6 C        8  16 S                                       1.7201217
     1   7 N       10   1 H                                       1.0137716 (min)
     1   7 N       11   1 H                                       1.0148259
     2   6 C       13   1 H                                       1.0998848
     2   6 C       14   1 H                                       1.0923389
     3   6 C       15   1 H                                       1.0916965
     3   6 C       16   1 H                                       1.0922997
     5   6 C       17   1 H                                       1.0756938
     6   6 C       18   1 H                                       1.0752246
     7   6 C       19   1 H                                       1.0716896

 * 5 distinct bonds (by element types)

   Z      Z             #   av. dist./Å        max./Å        min./Å
   1 H    6 C           7     1.0855469     1.0998848     1.0716896
   6 C    6 C           5     1.4300806     1.5322801     1.3547732
   1 H    7 N           2     1.0142988     1.0148259     1.0137716
   6 C    7 N           1     1.4604898     1.4604898     1.4604898
   6 C   16 S           2     1.7278229     1.7355241     1.7201217


optimized geometry written to: xtbopt.xyz


           -------------------------------------------------
          | TOTAL ENERGY              -28.639663229373 Eh   |
          | GRADIENT NORM               0.000290787180 Eh/α |
          | HOMO-LUMO GAP               3.915996246865 eV   |
           -------------------------------------------------

------------------------------------------------------------------------
 * finished run on 2023/01/23 at 14:09:27.384     
------------------------------------------------------------------------
 total:
 * wall-time:     0 d,  0 h,  0 min,  0.566 sec
 *  cpu-time:     0 d,  0 h,  0 min, 49.157 sec
 * ratio c/w:    86.856 speedup
 SCF:
 * wall-time:     0 d,  0 h,  0 min,  0.032 sec
 *  cpu-time:     0 d,  0 h,  0 min,  4.519 sec
 * ratio c/w:   142.065 speedup
 ANC optimizer:
 * wall-time:     0 d,  0 h,  0 min,  0.512 sec
 *  cpu-time:     0 d,  0 h,  0 min, 41.744 sec
 * ratio c/w:    81.554 speedup

