19
 energy: -28.639663229373 gnorm: 0.000290787180 xtb: 6.5.1 (fef0646)
N            1.33681823382456       -0.45900338590881       -0.18961260138354
C            2.76512633415955       -0.23915658063907        0.02165336352898
C            3.15465401153224        1.16501784906529       -0.45210220109670
C            4.60544532957460        1.42300393303733       -0.23410079938310
C            5.58182770402959        1.61024160242049       -1.16112593973550
C            6.86206270426707        1.80681961962193       -0.59280465436219
C            6.84091691056450        1.76125319998946        0.76103680762473
S            5.25780013135847        1.48201138719297        1.37306898982116
Cl          -0.24398121704506        1.65641265599690        1.10272672271439
H            1.04454207265842       -1.35465090867996        0.18471726259886
H            1.10931963366293       -0.42778150818312       -1.17811705746949
H            0.50106745740306        0.67091518668876        0.51445025369398
H            3.38367260772556       -0.98378337858025       -0.50053216082207
H            2.96141520889743       -0.32330260793747        1.09291162493666
H            2.55092464540205        1.89107971581341        0.09575370223843
H            2.93252658031327        1.26887224244970       -1.51652321300875
H            5.39697106531602        1.61504856917555       -2.22080604064008
H            7.75304885188745        1.97285612276416       -1.17132275824109
H            7.65600173446882        1.87427628571297        1.44760869898488
