 Entering Gaussian System
 *********************************************
 Gaussian 98:
 frequency output generated by the xtb code
 *********************************************
                         Standard orientation:
 --------------------------------------------------------------------
  Center     Atomic     Atomic              Coordinates (Angstroms)
  Number     Number      Type              X           Y           Z
 --------------------------------------------------------------------
    1          7             0        0.381621   -1.876252    0.137002
    2          6             0       -0.972166   -1.680294    0.724416
    3          6             0       -1.919106   -0.934590   -0.211582
    4          6             0       -1.449330    0.474687   -0.580246
    5          6             0       -1.336011    1.405768    0.617142
    6         17             0        2.102695    1.152119   -0.300579
    7          1             0        0.321695   -2.346573   -0.779907
    8          1             0        0.988460   -2.452084    0.743711
    9          1             0        0.866985   -0.970695   -0.011451
   10          1             0       -0.883530   -1.144723    1.676705
   11          1             0       -1.396371   -2.659091    0.984200
   12          1             0       -2.916614   -0.872334    0.242802
   13          1             0       -2.054522   -1.529061   -1.124810
   14          1             0       -2.137940    0.909769   -1.318584
   15          1             0       -0.484892    0.415131   -1.101149
   16          1             0       -2.284878    1.476414    1.153826
   17          1             0       -1.049766    2.418936    0.322789
   18          1             0       -0.587250    1.054565    1.330100
 --------------------------------------------------------------------
     1 basis functions        1 primitive gaussians
     1 alpha electrons        1 beta electrons

 Harmonic frequencies (cm**-1), IR intensities (km*mol⁻¹),
 Raman scattering activities (A**4/amu), Raman depolarization ratios,
 reduced masses (AMU), force constants (mDyne/A) and normal coordinates:
                      1                      2                      3
                        a                      a                      a 
 Frequencies --  -132.5839                58.7276                97.3406
 Red. masses --    21.8286                 9.6296                19.1104
 Frc consts  --     0.0000                 0.0000                 0.0000
 IR Inten    --   126.7354                 3.0143                12.5410
 Raman Activ --     0.0000                 0.0000                 0.0000
 Depolar     --     0.0000                 0.0000                 0.0000
 Atom AN      X      Y      Z        X      Y      Z        X      Y      Z
   1   7    -0.28  -0.49   0.06    -0.09   0.18  -0.07    -0.02  -0.09   0.18
   2   6    -0.22  -0.14   0.05    -0.08  -0.03   0.02    -0.10  -0.06  -0.03
   3   6    -0.07  -0.03  -0.01    -0.23  -0.09   0.13     0.14   0.09  -0.15
   4   6     0.08  -0.06   0.03    -0.22  -0.16  -0.14     0.39   0.05  -0.00
   5   6     0.02  -0.05   0.03     0.51  -0.16  -0.21     0.45  -0.06   0.07
   6  17     0.35   0.56  -0.12     0.06   0.17   0.19    -0.60   0.06  -0.07
   7   1    -0.10  -0.17   0.04    -0.03   0.11  -0.05     0.03  -0.08   0.07
   8   1    -0.09  -0.12   0.04    -0.02   0.01  -0.06    -0.01   0.03   0.10
   9   1    -0.07  -0.16  -0.03    -0.03   0.06   0.05    -0.04  -0.01   0.00
  10   1    -0.03  -0.02   0.00    -0.02  -0.02   0.01    -0.06  -0.03   0.01
  11   1    -0.12  -0.01   0.04     0.02  -0.03  -0.00    -0.06  -0.01  -0.04
  12   1    -0.03   0.02  -0.02    -0.04   0.00   0.09     0.02   0.05  -0.09
  13   1    -0.02  -0.00  -0.01    -0.13  -0.05   0.06     0.06   0.04  -0.06
  14   1     0.06  -0.01  -0.01    -0.15  -0.03   0.05     0.15   0.06  -0.01
  15   1     0.04  -0.03   0.04    -0.14  -0.09  -0.18     0.12  -0.01   0.02
  16   1    -0.01   0.02  -0.03     0.25  -0.06   0.12     0.13   0.01   0.01
  17   1     0.05  -0.03   0.01     0.07  -0.04  -0.11     0.17  -0.02   0.04
  18   1    -0.03  -0.03   0.04     0.29  -0.03  -0.20     0.11  -0.06   0.02
                      4                      5                      6
                        a                      a                      a 
 Frequencies --   133.9654               169.4058               272.9267
 Red. masses --    12.2696                 4.3752                 7.8012
 Frc consts  --     0.0000                 0.0000                 0.0000
 IR Inten    --    16.8761                 6.3363                 7.6861
 Raman Activ --     0.0000                 0.0000                 0.0000
 Depolar     --     0.0000                 0.0000                 0.0000
 Atom AN      X      Y      Z        X      Y      Z        X      Y      Z
   1   7     0.00   0.35   0.36    -0.01   0.31  -0.03    -0.25   0.24  -0.20
   2   6    -0.23  -0.03  -0.09    -0.10  -0.24  -0.06    -0.04   0.27   0.21
   3   6    -0.06  -0.07  -0.28    -0.15  -0.03   0.15    -0.02  -0.03   0.01
   4   6    -0.09   0.02   0.04     0.14  -0.16   0.07     0.38  -0.21  -0.06
   5   6    -0.03  -0.28   0.27     0.01   0.02  -0.06    -0.08  -0.32   0.07
   6  17     0.27  -0.01  -0.24     0.07   0.04  -0.04     0.02   0.01  -0.01
   7   1     0.11   0.03   0.12     0.04   0.16  -0.05    -0.18   0.20  -0.12
   8   1     0.01   0.18   0.17     0.02   0.06  -0.05    -0.06  -0.07  -0.18
   9   1    -0.05   0.12   0.06    -0.05   0.13   0.08    -0.00   0.05   0.04
  10   1    -0.19  -0.04   0.01    -0.08  -0.17   0.05     0.04   0.17   0.00
  11   1    -0.03  -0.04  -0.10     0.02  -0.12  -0.14     0.02   0.10   0.17
  12   1    -0.06  -0.07  -0.16    -0.01   0.05   0.10    -0.02   0.07  -0.04
  13   1     0.07   0.01  -0.11    -0.13   0.00   0.05     0.00  -0.07   0.04
  14   1    -0.03   0.06   0.05     0.11  -0.03  -0.04     0.22  -0.03  -0.10
  15   1    -0.03   0.04  -0.01     0.07  -0.10   0.07     0.17  -0.09   0.10
  16   1     0.02  -0.16   0.13    -0.12   0.33  -0.28    -0.05  -0.24   0.00
  17   1    -0.07  -0.04   0.14     0.39  -0.10  -0.02    -0.15  -0.04   0.08
  18   1     0.05  -0.09   0.01    -0.30  -0.17   0.22     0.01  -0.02   0.02
                      7                      8                      9
                        a                      a                      a 
 Frequencies --   278.6807               324.1587               393.3453
 Red. masses --     4.6139                 2.7043                 7.0431
 Frc consts  --     0.0000                 0.0000                 0.0000
 IR Inten    --     0.4042                 2.0657                 7.2063
 Raman Activ --     0.0000                 0.0000                 0.0000
 Depolar     --     0.0000                 0.0000                 0.0000
 Atom AN      X      Y      Z        X      Y      Z        X      Y      Z
   1   7    -0.02  -0.04  -0.08    -0.06   0.11  -0.18    -0.24   0.14  -0.15
   2   6     0.12   0.37   0.09    -0.01  -0.07  -0.04    -0.07  -0.12   0.19
   3   6     0.00  -0.07  -0.13    -0.10   0.02   0.12     0.20  -0.33  -0.17
   4   6    -0.21   0.01  -0.07     0.15  -0.09   0.03    -0.03  -0.08   0.27
   5   6     0.10  -0.24   0.09    -0.03   0.03  -0.05     0.09   0.32  -0.01
   6  17    -0.01  -0.01   0.06     0.04  -0.02   0.08     0.02  -0.01   0.01
   7   1    -0.06  -0.20   0.08     0.03  -0.42   0.18    -0.14   0.06  -0.05
   8   1     0.04   0.12   0.06     0.18   0.47   0.17     0.04   0.06  -0.12
   9   1    -0.02  -0.03  -0.22    -0.25   0.09  -0.47    -0.13   0.07  -0.06
  10   1     0.09   0.25  -0.07     0.01  -0.03  -0.01    -0.03   0.02   0.03
  11   1     0.03   0.15   0.20     0.02  -0.03  -0.02     0.02  -0.04   0.09
  12   1    -0.02  -0.08  -0.08    -0.00   0.07   0.09    -0.06  -0.25  -0.28
  13   1     0.09  -0.05  -0.03    -0.11   0.01   0.05     0.34  -0.04  -0.12
  14   1    -0.11   0.04   0.05     0.10  -0.03  -0.05    -0.03  -0.06   0.08
  15   1    -0.10   0.03  -0.09     0.07  -0.06   0.06    -0.02   0.03   0.06
  16   1    -0.03   0.20  -0.12     0.00  -0.09   0.02     0.05   0.18   0.03
  17   1     0.37  -0.15   0.09    -0.14   0.04  -0.04     0.03   0.05  -0.15
  18   1    -0.18  -0.29   0.14     0.06   0.10  -0.04     0.06   0.17   0.01
                     10                     11                     12
                        a                      a                      a 
 Frequencies --   482.1204               781.9126               829.7900
 Red. masses --     7.5855                 2.9032                 4.9402
 Frc consts  --     0.0000                 0.0000                 0.0000
 IR Inten    --     6.5567                29.2662                17.5854
 Raman Activ --     0.0000                 0.0000                 0.0000
 Depolar     --     0.0000                 0.0000                 0.0000
 Atom AN      X      Y      Z        X      Y      Z        X      Y      Z
   1   7    -0.20   0.05  -0.03     0.12   0.02  -0.05     0.13  -0.10   0.00
   2   6    -0.00  -0.22   0.30     0.04   0.16   0.12     0.00  -0.28   0.19
   3   6     0.42   0.17   0.15    -0.15   0.16   0.13    -0.21  -0.10  -0.09
   4   6    -0.04   0.23  -0.31    -0.18   0.02   0.01    -0.10   0.27  -0.22
   5   6    -0.07  -0.15  -0.07    -0.03  -0.07  -0.09    -0.04   0.11   0.05
   6  17     0.01  -0.01   0.00    -0.00   0.01   0.00     0.01  -0.01  -0.00
   7   1    -0.14   0.02  -0.01    -0.12  -0.09   0.04     0.12   0.11  -0.07
   8   1     0.09   0.06  -0.10    -0.05  -0.06   0.00     0.24   0.06  -0.11
   9   1    -0.16   0.06  -0.07     0.21  -0.11  -0.14    -0.23   0.13   0.10
  10   1    -0.01  -0.24   0.19    -0.04  -0.27   0.21     0.10   0.13  -0.07
  11   1    -0.07  -0.09  -0.11     0.01  -0.05  -0.30     0.02  -0.01   0.32
  12   1     0.09   0.08  -0.01    -0.16  -0.18  -0.20    -0.05  -0.00  -0.02
  13   1     0.14  -0.01   0.07     0.30   0.03  -0.01    -0.08  -0.04  -0.01
  14   1    -0.17  -0.01   0.02     0.22  -0.00  -0.25     0.21   0.07  -0.28
  15   1    -0.07   0.18  -0.21     0.10  -0.16   0.29     0.12   0.02   0.21
  16   1    -0.04  -0.10  -0.05     0.08   0.04   0.12     0.08   0.05   0.17
  17   1     0.01  -0.01   0.14     0.07  -0.03   0.01     0.10   0.05   0.17
  18   1    -0.06  -0.17  -0.04     0.06  -0.16  -0.16     0.05  -0.18  -0.15
                     13                     14                     15
                        a                      a                      a 
 Frequencies --   879.6107               889.9290               943.7036
 Red. masses --     5.3745                 4.0720                 5.6611
 Frc consts  --     0.0000                 0.0000                 0.0000
 IR Inten    --    10.8107                 9.7896                32.2196
 Raman Activ --     0.0000                 0.0000                 0.0000
 Depolar     --     0.0000                 0.0000                 0.0000
 Atom AN      X      Y      Z        X      Y      Z        X      Y      Z
   1   7     0.27  -0.06  -0.09     0.07   0.10   0.12     0.29  -0.15   0.06
   2   6    -0.10  -0.07   0.23     0.07  -0.00   0.12    -0.10   0.06   0.16
   3   6    -0.40   0.03   0.04    -0.08  -0.28  -0.25    -0.02   0.28  -0.20
   4   6     0.16   0.08  -0.08     0.04   0.07  -0.15    -0.05  -0.11   0.21
   5   6     0.15   0.08  -0.00     0.02   0.17   0.14    -0.08  -0.26  -0.07
   6  17    -0.00   0.00   0.00    -0.01   0.00   0.01     0.00  -0.01   0.00
   7   1     0.04  -0.01  -0.02    -0.47  -0.06   0.11    -0.16   0.10  -0.04
   8   1     0.10  -0.02  -0.06     0.05  -0.13  -0.14     0.39   0.00  -0.27
   9   1     0.07  -0.01  -0.04     0.24  -0.13  -0.25    -0.17   0.08  -0.05
  10   1     0.02  -0.05   0.07    -0.26  -0.05   0.08    -0.10  -0.01   0.06
  11   1     0.05  -0.05   0.06     0.18  -0.11  -0.10    -0.13   0.04  -0.04
  12   1    -0.23  -0.08  -0.24     0.09   0.11   0.15     0.01   0.17  -0.03
  13   1     0.17   0.02  -0.04    -0.30  -0.14   0.02    -0.08   0.10  -0.06
  14   1    -0.08   0.17   0.17     0.01   0.06  -0.02    -0.02   0.05   0.11
  15   1    -0.11  -0.14  -0.28     0.02   0.08  -0.03    -0.01   0.06   0.05
  16   1    -0.14  -0.22  -0.27     0.01   0.04   0.04     0.02   0.13   0.01
  17   1    -0.13   0.11   0.14     0.01   0.06   0.08    -0.02  -0.17  -0.35
  18   1    -0.11   0.12   0.20     0.00   0.02   0.03     0.04   0.13   0.01
                     16                     17                     18
                        a                      a                      a 
 Frequencies --   995.1541              1013.9493              1044.9670
 Red. masses --     6.1198                 5.0360                 5.7616
 Frc consts  --     0.0000                 0.0000                 0.0000
 IR Inten    --     8.7016                 3.3404                13.0152
 Raman Activ --     0.0000                 0.0000                 0.0000
 Depolar     --     0.0000                 0.0000                 0.0000
 Atom AN      X      Y      Z        X      Y      Z        X      Y      Z
   1   7     0.26   0.09  -0.29     0.01   0.15   0.08    -0.23   0.09   0.01
   2   6    -0.44  -0.07   0.22    -0.03  -0.30  -0.08     0.35  -0.22   0.11
   3   6     0.06  -0.03   0.01     0.02   0.14   0.12    -0.17   0.03  -0.11
   4   6     0.10  -0.02  -0.02     0.03   0.15   0.25     0.00   0.25  -0.04
   5   6    -0.11  -0.02   0.04    -0.02  -0.14  -0.31    -0.02  -0.27   0.01
   6  17    -0.00   0.00   0.00    -0.00   0.01   0.00    -0.00   0.00  -0.00
   7   1     0.23  -0.11  -0.01    -0.22  -0.04   0.07     0.05  -0.06   0.04
   8   1    -0.19  -0.02   0.14    -0.04  -0.07  -0.04    -0.22  -0.00   0.14
   9   1     0.31  -0.09  -0.04     0.19  -0.08  -0.12     0.07  -0.04   0.05
  10   1    -0.03   0.04   0.02    -0.13   0.25  -0.19     0.20  -0.09   0.04
  11   1     0.02  -0.06   0.14     0.20  -0.08   0.29     0.19  -0.09   0.08
  12   1    -0.03   0.30  -0.14    -0.01  -0.08   0.01    -0.06   0.07  -0.07
  13   1    -0.01  -0.11   0.08     0.03   0.39  -0.19    -0.02  -0.06   0.01
  14   1    -0.11  -0.15   0.04    -0.03  -0.06   0.04     0.08   0.32   0.06
  15   1     0.03   0.25  -0.01    -0.00   0.02   0.05     0.03   0.11   0.05
  16   1     0.06   0.15   0.15    -0.01  -0.12  -0.08    -0.01   0.13  -0.03
  17   1     0.07  -0.06  -0.09     0.02  -0.01   0.06    -0.05  -0.17  -0.38
  18   1     0.05  -0.04  -0.09    -0.02  -0.16  -0.13     0.04   0.21   0.08
                     19                     20                     21
                        a                      a                      a 
 Frequencies --  1109.1906              1139.3262              1159.8038
 Red. masses --     6.0731                 7.4137                 7.4695
 Frc consts  --     0.0000                 0.0000                 0.0000
 IR Inten    --     4.2654                 1.1520                10.3567
 Raman Activ --     0.0000                 0.0000                 0.0000
 Depolar     --     0.0000                 0.0000                 0.0000
 Atom AN      X      Y      Z        X      Y      Z        X      Y      Z
   1   7    -0.12  -0.01   0.14    -0.03  -0.11  -0.01     0.05  -0.05   0.13
   2   6     0.34  -0.06  -0.06     0.07   0.24   0.04    -0.09   0.08  -0.34
   3   6    -0.24   0.21  -0.10    -0.17  -0.29  -0.06    -0.12  -0.16   0.44
   4   6     0.17  -0.31  -0.02     0.21   0.24   0.37     0.27   0.18  -0.23
   5   6    -0.14   0.16   0.08    -0.05  -0.04  -0.38    -0.13  -0.10   0.12
   6  17     0.00  -0.00  -0.00     0.00  -0.00  -0.00     0.00  -0.00   0.00
   7   1    -0.09   0.02   0.03     0.11   0.04  -0.05    -0.15   0.05   0.01
   8   1     0.01  -0.01  -0.01     0.02   0.03   0.02     0.13  -0.03  -0.10
   9   1    -0.07   0.01   0.01    -0.12   0.03   0.05    -0.08   0.02  -0.05
  10   1     0.17  -0.06   0.00     0.01  -0.13   0.12    -0.12   0.11  -0.13
  11   1     0.14  -0.03   0.01     0.03   0.01  -0.15     0.05   0.00  -0.03
  12   1    -0.16   0.29  -0.28    -0.02   0.02   0.01    -0.12  -0.19  -0.08
  13   1     0.05   0.07  -0.06    -0.09  -0.14   0.03     0.22  -0.10   0.10
  14   1    -0.18  -0.32   0.06    -0.07   0.05   0.20    -0.06  -0.01   0.03
  15   1    -0.03   0.10  -0.15     0.05   0.33   0.07     0.06   0.23  -0.11
  16   1     0.07   0.08   0.20     0.01  -0.14  -0.04     0.04   0.18   0.12
  17   1     0.10   0.03   0.12     0.05   0.03   0.12     0.04  -0.11  -0.19
  18   1     0.02  -0.13  -0.12    -0.02  -0.23  -0.20     0.07   0.08  -0.03
                     22                     23                     24
                        a                      a                      a 
 Frequencies --  1220.8697              1235.6603              1271.2943
 Red. masses --     3.5248                 3.2051                 2.2324
 Frc consts  --     0.0000                 0.0000                 0.0000
 IR Inten    --     6.7826                 5.1716                 6.7743
 Raman Activ --     0.0000                 0.0000                 0.0000
 Depolar     --     0.0000                 0.0000                 0.0000
 Atom AN      X      Y      Z        X      Y      Z        X      Y      Z
   1   7    -0.07  -0.16  -0.18    -0.04  -0.13  -0.02    -0.01  -0.04   0.01
   2   6     0.10   0.16   0.24     0.07   0.08  -0.07     0.01  -0.03  -0.12
   3   6    -0.03   0.03  -0.03     0.04   0.00   0.11     0.17   0.04   0.07
   4   6     0.15  -0.01  -0.10    -0.27   0.02   0.00    -0.05  -0.05   0.12
   5   6    -0.14  -0.00   0.09     0.27  -0.06   0.01    -0.15   0.06  -0.10
   6  17    -0.00  -0.00  -0.00     0.00  -0.00  -0.00    -0.00   0.00  -0.00
   7   1     0.22  -0.01  -0.07     0.06   0.04  -0.05    -0.01   0.01  -0.01
   8   1    -0.05   0.07   0.09     0.02   0.03   0.02     0.01   0.00  -0.01
   9   1    -0.12   0.03   0.16    -0.12   0.03   0.05    -0.05   0.01   0.02
  10   1    -0.48   0.05   0.11    -0.33   0.10  -0.03    -0.23   0.13  -0.09
  11   1     0.34  -0.14  -0.08     0.34  -0.13  -0.04     0.17  -0.07   0.02
  12   1     0.05  -0.20   0.15    -0.07   0.32  -0.20    -0.02   0.33  -0.18
  13   1    -0.06   0.31  -0.19     0.06  -0.07   0.07     0.12  -0.30   0.21
  14   1    -0.02  -0.01   0.01    -0.02  -0.24  -0.19     0.14   0.45   0.17
  15   1    -0.04  -0.13  -0.17     0.08   0.23   0.25    -0.11  -0.39  -0.11
  16   1     0.03   0.12   0.12    -0.07  -0.12  -0.22     0.04   0.01   0.11
  17   1     0.05  -0.04  -0.05    -0.11   0.04   0.02     0.06   0.01   0.06
  18   1     0.05  -0.01  -0.07    -0.06   0.13   0.20     0.01  -0.12  -0.14
                     25                     26                     27
                        a                      a                      a 
 Frequencies --  1327.2333              1351.2520              1354.2700
 Red. masses --     3.6638                 4.4424                 4.5239
 Frc consts  --     0.0000                 0.0000                 0.0000
 IR Inten    --     9.7639                15.4006                10.1282
 Raman Activ --     0.0000                 0.0000                 0.0000
 Depolar     --     0.0000                 0.0000                 0.0000
 Atom AN      X      Y      Z        X      Y      Z        X      Y      Z
   1   7    -0.11  -0.08   0.14     0.06  -0.01   0.06     0.04   0.02  -0.05
   2   6    -0.35   0.16  -0.11    -0.10   0.17  -0.04     0.06  -0.00  -0.01
   3   6     0.07   0.11  -0.11     0.12  -0.44   0.21    -0.01  -0.12  -0.07
   4   6     0.01   0.05   0.04    -0.07   0.05  -0.08     0.09   0.48   0.20
   5   6    -0.00  -0.00   0.02    -0.02  -0.02   0.01    -0.03  -0.09   0.09
   6  17    -0.00  -0.00   0.00    -0.00  -0.00  -0.00    -0.00   0.00  -0.00
   7   1     0.08   0.11  -0.04    -0.02   0.04  -0.01    -0.10  -0.09   0.05
   8   1     0.20   0.08  -0.10    -0.05  -0.07   0.00    -0.02  -0.01   0.01
   9   1     0.07  -0.09  -0.07    -0.10   0.04  -0.08    -0.04   0.05   0.12
  10   1     0.41  -0.18   0.06     0.24  -0.13   0.06    -0.02  -0.01   0.00
  11   1     0.58  -0.23   0.10     0.03   0.00  -0.05    -0.10   0.05  -0.02
  12   1     0.07  -0.11   0.11    -0.03   0.39  -0.17    -0.02   0.13  -0.07
  13   1     0.00  -0.09   0.05    -0.09   0.49  -0.31    -0.05  -0.12   0.05
  14   1    -0.02  -0.09  -0.04     0.09   0.16  -0.03    -0.07  -0.47  -0.23
  15   1    -0.03  -0.13  -0.03    -0.03  -0.12  -0.03    -0.13  -0.45  -0.18
  16   1    -0.01  -0.00  -0.01     0.01   0.04   0.03    -0.06  -0.00  -0.09
  17   1    -0.00  -0.02  -0.04    -0.01  -0.00  -0.00     0.00  -0.08  -0.16
  18   1     0.00  -0.01  -0.01    -0.00   0.04   0.02     0.06  -0.01  -0.06
                     28                     29                     30
                        a                      a                      a 
 Frequencies --  1375.0430              1409.0208              1445.0397
 Red. masses --     2.7371                 1.6507                 3.1653
 Frc consts  --     0.0000                 0.0000                 0.0000
 IR Inten    --   147.4498                66.9390                 0.0103
 Raman Activ --     0.0000                 0.0000                 0.0000
 Depolar     --     0.0000                 0.0000                 0.0000
 Atom AN      X      Y      Z        X      Y      Z        X      Y      Z
   1   7     0.31   0.06  -0.05     0.00   0.02  -0.18     0.04  -0.04  -0.03
   2   6    -0.11   0.03  -0.03    -0.06   0.04  -0.07    -0.00   0.02  -0.05
   3   6     0.02   0.11  -0.06     0.01  -0.03   0.03     0.03   0.00   0.04
   4   6    -0.01  -0.06   0.02    -0.01  -0.04  -0.05    -0.03  -0.09  -0.05
   5   6    -0.00   0.01  -0.02     0.01  -0.01  -0.05     0.02   0.28   0.31
   6  17     0.01  -0.01   0.00    -0.00   0.00  -0.01     0.00  -0.00  -0.00
   7   1    -0.25  -0.18   0.11    -0.33  -0.38   0.20    -0.12   0.07  -0.03
   8   1    -0.41  -0.36   0.09     0.21   0.22  -0.02    -0.01   0.10   0.11
   9   1    -0.51   0.30   0.02     0.14   0.05   0.70     0.01   0.00   0.05
  10   1     0.09  -0.08   0.04     0.08  -0.06   0.02    -0.03  -0.07   0.04
  11   1     0.19  -0.06   0.09     0.06  -0.01   0.03     0.00   0.03   0.11
  12   1     0.03  -0.12   0.06     0.00   0.03  -0.00    -0.02  -0.02  -0.04
  13   1     0.01  -0.08   0.05     0.02   0.05  -0.03    -0.05   0.04  -0.01
  14   1     0.02   0.01  -0.00    -0.03   0.07   0.06     0.03   0.10   0.02
  15   1     0.00   0.06  -0.01     0.04   0.05   0.07     0.02   0.09   0.02
  16   1     0.01  -0.02   0.01     0.03   0.02   0.05    -0.20  -0.37  -0.29
  17   1     0.01   0.01   0.03    -0.01   0.03   0.07     0.08  -0.14  -0.46
  18   1    -0.01   0.01   0.01    -0.03   0.03   0.04     0.09  -0.37  -0.26
                     31                     32                     33
                        a                      a                      a 
 Frequencies --  1452.3539              1484.6118              1501.0541
 Red. masses --     1.9920                 1.8180                 1.8589
 Frc consts  --     0.0000                 0.0000                 0.0000
 IR Inten    --    89.6558                 7.4448                 8.4726
 Raman Activ --     0.0000                 0.0000                 0.0000
 Depolar     --     0.0000                 0.0000                 0.0000
 Atom AN      X      Y      Z        X      Y      Z        X      Y      Z
   1   7    -0.15   0.19   0.07     0.01  -0.02  -0.00     0.03  -0.02  -0.01
   2   6     0.01   0.03   0.02    -0.07  -0.07   0.23    -0.03  -0.03   0.03
   3   6    -0.02  -0.03   0.01     0.04   0.02   0.01    -0.22  -0.07  -0.09
   4   6    -0.01  -0.02  -0.02    -0.02  -0.01   0.00    -0.01  -0.03   0.01
   5   6     0.01   0.06   0.07    -0.07   0.02   0.03     0.01  -0.05   0.09
   6  17    -0.00   0.00   0.00     0.00  -0.00  -0.00     0.00  -0.00  -0.00
   7   1     0.43  -0.45   0.21    -0.07   0.01   0.00    -0.06   0.04  -0.02
   8   1     0.12  -0.40  -0.51    -0.02   0.03   0.05    -0.02   0.03   0.06
   9   1    -0.02   0.03   0.02    -0.03   0.01   0.05    -0.01   0.01   0.00
  10   1    -0.03   0.05  -0.02     0.28   0.46  -0.28     0.05   0.07  -0.05
  11   1     0.01  -0.01  -0.07     0.06  -0.18  -0.59    -0.00  -0.03  -0.08
  12   1     0.02   0.05   0.03    -0.05  -0.07  -0.09     0.22   0.29   0.45
  13   1     0.06   0.02  -0.02    -0.13   0.01   0.02     0.58   0.01  -0.10
  14   1     0.01   0.02   0.01     0.01   0.00  -0.01     0.01   0.01  -0.00
  15   1     0.01   0.03   0.01     0.00   0.03   0.01    -0.01   0.03  -0.01
  16   1    -0.05  -0.08  -0.08    -0.07  -0.13  -0.09    -0.12   0.20  -0.25
  17   1     0.02  -0.03  -0.10     0.23  -0.06   0.04    -0.11   0.06   0.10
  18   1     0.03  -0.08  -0.07     0.13   0.13  -0.08     0.19  -0.02  -0.20
                     34                     35                     36
                        a                      a                      a 
 Frequencies --  1504.3361              1514.2440              1521.4263
 Red. masses --     1.5905                 1.5735                 1.9138
 Frc consts  --     0.0000                 0.0000                 0.0000
 IR Inten    --     0.0807                20.6713                 2.4969
 Raman Activ --     0.0000                 0.0000                 0.0000
 Depolar     --     0.0000                 0.0000                 0.0000
 Atom AN      X      Y      Z        X      Y      Z        X      Y      Z
   1   7     0.01  -0.01  -0.01    -0.00   0.01   0.00     0.02  -0.00   0.01
   2   6    -0.01  -0.02   0.02     0.02   0.02  -0.08    -0.00  -0.01   0.05
   3   6    -0.12  -0.05  -0.04    -0.01  -0.01  -0.02    -0.03  -0.02  -0.03
   4   6    -0.01   0.03   0.05    -0.02   0.03  -0.09     0.07   0.11  -0.23
   5   6    -0.02   0.13  -0.12    -0.19  -0.02  -0.01     0.06   0.05  -0.01
   6  17    -0.00  -0.00   0.00     0.00  -0.00   0.00     0.00   0.00   0.00
   7   1    -0.02   0.02  -0.01     0.03   0.01  -0.01    -0.01   0.03  -0.01
   8   1    -0.00   0.02   0.02     0.00  -0.01  -0.01    -0.04  -0.02   0.02
   9   1     0.01  -0.01   0.00     0.01  -0.01  -0.03    -0.06   0.02  -0.04
  10   1     0.01   0.05  -0.03    -0.09  -0.17   0.10     0.04   0.09  -0.05
  11   1    -0.01  -0.02  -0.05    -0.02   0.06   0.19     0.00  -0.03  -0.10
  12   1     0.11   0.14   0.23     0.02   0.05   0.04     0.03   0.05   0.06
  13   1     0.30   0.01  -0.05     0.06   0.00  -0.01     0.07   0.01  -0.02
  14   1     0.12  -0.03  -0.14    -0.17  -0.02   0.13    -0.45  -0.05   0.38
  15   1    -0.07   0.07  -0.15     0.09  -0.11   0.21     0.24  -0.34   0.47
  16   1     0.18  -0.43   0.38    -0.08  -0.27  -0.09     0.07  -0.02   0.13
  17   1     0.23  -0.13  -0.23     0.57  -0.11   0.18    -0.14   0.00  -0.15
  18   1    -0.31   0.01   0.33     0.26   0.46  -0.06    -0.17  -0.18   0.09
                     37                     38                     39
                        a                      a                      a 
 Frequencies --  2850.4085              2908.8536              2915.7248
 Red. masses --     1.9914                 1.9069                 1.9118
 Frc consts  --     0.0000                 0.0000                 0.0000
 IR Inten    --  1603.1005                18.0698                27.6536
 Raman Activ --     0.0000                 0.0000                 0.0000
 Depolar     --     0.0000                 0.0000                 0.0000
 Atom AN      X      Y      Z        X      Y      Z        X      Y      Z
   1   7    -0.11  -0.25   0.03     0.00   0.00   0.00     0.00   0.01   0.00
   2   6     0.01   0.03   0.00    -0.00  -0.00  -0.00     0.01   0.02   0.01
   3   6     0.00  -0.00  -0.00    -0.03   0.00   0.03     0.11  -0.12  -0.23
   4   6     0.00  -0.00   0.00     0.25  -0.10   0.08     0.02  -0.02   0.03
   5   6    -0.01  -0.00   0.00    -0.02   0.01  -0.00    -0.01   0.00   0.00
   6  17     0.01   0.01  -0.00     0.00  -0.00  -0.00    -0.00  -0.00   0.00
   7   1    -0.00  -0.00   0.03    -0.00  -0.00  -0.00    -0.00   0.00   0.00
   8   1    -0.03   0.00  -0.02     0.00  -0.00   0.00    -0.00   0.00  -0.00
   9   1     0.42   0.85  -0.13    -0.01  -0.01   0.00    -0.01  -0.02   0.00
  10   1    -0.00  -0.00  -0.02     0.00   0.01   0.02    -0.01  -0.05  -0.09
  11   1    -0.04  -0.10   0.02     0.00   0.01  -0.00    -0.02  -0.04   0.01
  12   1    -0.01  -0.00   0.00     0.16  -0.01  -0.07    -0.48   0.02   0.20
  13   1     0.00   0.00   0.01    -0.01  -0.01  -0.01     0.10   0.41   0.64
  14   1    -0.01   0.01  -0.02    -0.50   0.32  -0.54    -0.12   0.07  -0.12
  15   1     0.01   0.00  -0.00    -0.41   0.01   0.25     0.07  -0.01  -0.03
  16   1     0.01  -0.00  -0.01     0.05  -0.00  -0.03     0.02   0.00  -0.01
  17   1     0.00   0.01  -0.00    -0.01  -0.01   0.00    -0.00   0.00  -0.00
  18   1     0.01   0.00   0.00     0.04  -0.02   0.05     0.01  -0.00   0.01
                     40                     41                     42
                        a                      a                      a 
 Frequencies --  2937.2575              2944.3642              2949.3225
 Red. masses --     1.8287                 1.5689                 1.6200
 Frc consts  --     0.0000                 0.0000                 0.0000
 IR Inten    --     8.1385                29.4149                 8.8573
 Raman Activ --     0.0000                 0.0000                 0.0000
 Depolar     --     0.0000                 0.0000                 0.0000
 Atom AN      X      Y      Z        X      Y      Z        X      Y      Z
   1   7    -0.02  -0.03   0.00     0.00   0.01  -0.00     0.00   0.01   0.00
   2   6    -0.09  -0.23  -0.04     0.03   0.07   0.00     0.04   0.09   0.01
   3   6     0.09   0.01   0.00     0.06   0.04   0.06     0.17   0.05   0.02
   4   6     0.00  -0.01   0.02    -0.08  -0.04   0.16     0.08   0.01  -0.08
   5   6    -0.00   0.00   0.00     0.02   0.02  -0.02    -0.03  -0.01   0.01
   6  17     0.00   0.00   0.00    -0.00  -0.00   0.00     0.00  -0.00  -0.00
   7   1    -0.00  -0.00  -0.00     0.00  -0.00  -0.00     0.00  -0.00  -0.01
   8   1    -0.00   0.00  -0.00     0.01  -0.00   0.00     0.00  -0.00   0.00
   9   1     0.04   0.08  -0.01    -0.02  -0.04   0.01    -0.02  -0.03   0.00
  10   1     0.02   0.15   0.31    -0.00  -0.03  -0.06    -0.01  -0.05  -0.11
  11   1     0.31   0.69  -0.18    -0.10  -0.24   0.06    -0.12  -0.27   0.07
  12   1    -0.34   0.03   0.17    -0.20   0.02   0.11    -0.58   0.06   0.29
  13   1    -0.01  -0.10  -0.17    -0.03  -0.19  -0.30    -0.02  -0.22  -0.36
  14   1    -0.06   0.04  -0.06    -0.31   0.18  -0.29     0.11  -0.06   0.08
  15   1     0.06  -0.00  -0.03     0.61  -0.05  -0.30    -0.40   0.03   0.20
  16   1     0.01  -0.00  -0.00    -0.10   0.01   0.05     0.10  -0.01  -0.05
  17   1    -0.00   0.00   0.00    -0.01  -0.05   0.01     0.01   0.04  -0.01
  18   1     0.00  -0.00   0.01     0.03  -0.01   0.02     0.00  -0.01   0.01
                     43                     44                     45
                        a                      a                      a 
 Frequencies --  2979.9232              2982.7659              2993.1880
 Red. masses --     1.5940                 1.8840                 1.9093
 Frc consts  --     0.0000                 0.0000                 0.0000
 IR Inten    --     2.9886                77.1077                20.6606
 Raman Activ --     0.0000                 0.0000                 0.0000
 Depolar     --     0.0000                 0.0000                 0.0000
 Atom AN      X      Y      Z        X      Y      Z        X      Y      Z
   1   7    -0.01  -0.01  -0.00     0.00   0.00  -0.00    -0.00   0.00  -0.00
   2   6    -0.02   0.03   0.22    -0.00   0.00   0.03    -0.00   0.00   0.02
   3   6     0.00   0.01   0.03    -0.01   0.00   0.01    -0.00   0.00   0.00
   4   6     0.01   0.00   0.00    -0.05   0.00   0.03     0.01  -0.01   0.02
   5   6     0.03   0.02  -0.03    -0.26  -0.02   0.08     0.05  -0.24   0.14
   6  17     0.00   0.00  -0.00    -0.00   0.00   0.00    -0.00   0.00  -0.00
   7   1     0.00   0.01   0.03     0.00   0.00   0.00     0.00   0.00   0.00
   8   1    -0.00  -0.00   0.00    -0.00   0.00  -0.00     0.00  -0.00   0.00
   9   1     0.01   0.03  -0.00    -0.00  -0.01   0.00    -0.00  -0.00   0.00
  10   1    -0.08  -0.46  -0.74    -0.01  -0.06  -0.09    -0.01  -0.04  -0.07
  11   1     0.15   0.35  -0.05     0.02   0.05  -0.01     0.01   0.03  -0.00
  12   1     0.02  -0.00  -0.00     0.06  -0.00  -0.03     0.01  -0.00  -0.00
  13   1    -0.01  -0.04  -0.07    -0.00  -0.01  -0.01    -0.00  -0.01  -0.01
  14   1    -0.01   0.00  -0.01    -0.01   0.00  -0.00    -0.05   0.03  -0.05
  15   1    -0.01   0.00   0.00     0.15  -0.01  -0.07     0.03  -0.00  -0.01
  16   1    -0.11   0.01   0.05     0.77  -0.05  -0.42    -0.04  -0.03   0.05
  17   1    -0.02  -0.08   0.02     0.02   0.20  -0.05     0.23   0.73  -0.22
  18   1     0.03  -0.01   0.02     0.14  -0.09   0.18    -0.37   0.15  -0.33
                     46                     47                     48
                        a                      a                      a 
 Frequencies --  3007.7035              3189.3386              3203.3325
 Red. masses --     1.3461                 1.9442                 1.5828
 Frc consts  --     0.0000                 0.0000                 0.0000
 IR Inten    --    20.0765                49.4554                23.4098
 Raman Activ --     0.0000                 0.0000                 0.0000
 Depolar     --     0.0000                 0.0000                 0.0000
 Atom AN      X      Y      Z        X      Y      Z        X      Y      Z
   1   7     0.00   0.00  -0.00     0.14  -0.08   0.21     0.03  -0.14  -0.16
   2   6    -0.00  -0.00  -0.01     0.00  -0.00   0.01     0.00  -0.00  -0.01
   3   6    -0.00  -0.00  -0.00     0.00   0.00  -0.00     0.00   0.00   0.00
   4   6    -0.00   0.00  -0.01    -0.00   0.00   0.00     0.00  -0.00   0.00
   5   6    -0.10  -0.06  -0.13     0.00  -0.00   0.00     0.00  -0.00  -0.00
   6  17    -0.00   0.00   0.00    -0.00   0.00  -0.00     0.00   0.00   0.00
   7   1    -0.00  -0.00  -0.00    -0.01  -0.16  -0.27     0.07   0.41   0.82
   8   1     0.00  -0.00   0.00    -0.52   0.51  -0.54    -0.19   0.17  -0.22
   9   1    -0.00  -0.00   0.00     0.00  -0.03   0.02    -0.02  -0.06  -0.01
  10   1     0.00   0.01   0.02    -0.00  -0.01  -0.01     0.00   0.01   0.02
  11   1    -0.00  -0.00  -0.00    -0.00   0.00  -0.00    -0.01  -0.01   0.00
  12   1     0.00  -0.00  -0.00    -0.00  -0.00   0.00    -0.01   0.00   0.00
  13   1     0.00   0.01   0.01    -0.00  -0.00  -0.00     0.00  -0.00  -0.00
  14   1     0.03  -0.02   0.03    -0.00   0.00  -0.00    -0.00   0.00  -0.00
  15   1    -0.02   0.00   0.01     0.00   0.00  -0.00    -0.00  -0.00   0.00
  16   1    -0.31   0.02   0.15    -0.00   0.00   0.00    -0.00   0.00   0.00
  17   1     0.12   0.46  -0.16     0.00   0.00  -0.00     0.00   0.00  -0.00
  18   1     0.53  -0.27   0.49     0.00  -0.00   0.00     0.00  -0.00   0.00
