25
 energy: -33.866494337630 gnorm: 0.000752698166 xtb: 6.5.1 (fef0646)
N            1.12418755461729       -0.48184084469612       -0.39056819803415
C            2.57648733110724       -0.36088607799796       -0.25986338906930
C            3.04637426622247        0.95021340348489       -0.88106753795796
C            4.53117274738297        1.20830938350442       -0.60608135472343
C            4.96509017692138        2.49830001446457       -1.24325297320001
C            4.66993151766907        3.71174808175380       -0.63375181255051
C            5.03333629479888        4.90607222040515       -1.22822255892582
C            5.69781341208332        4.90307995789184       -2.44340816706511
C            5.99482813880664        3.70005619029418       -3.05910220783300
C            5.62805931678989        2.50604101357386       -2.46246975276264
Cl          -0.13409936302067        1.71464452227288        1.09252501380343
H            0.78994700297529       -1.35464464133050        0.00290195978922
H            0.84710770506301       -0.43382318681982       -1.36557542474410
H            0.45460303707157        0.69286503696926        0.39105196345800
H            3.10478668972337       -1.20428844141145       -0.72781002729943
H            2.80846416585530       -0.36572959181831        0.80796005365740
H            2.45306570776383        1.76616148482161       -0.46785285492829
H            2.87847499776952        0.92622467636627       -1.96064817112054
H            5.12449917952604        0.37974795438552       -0.99903475088783
H            4.68742137481963        1.25835775528261        0.47345647130173
H            4.15265924081468        3.71723042079913        0.31487814592371
H            4.79852013551859        5.84217379800875       -0.74306321093109
H            5.98370363214236        5.83537327734401       -2.90773028658286
H            6.51381399756098        3.69077351178139       -4.00662456855568
H            5.86389174001909        1.56914008066651       -2.94788636076100
