 Entering Gaussian System
 *********************************************
 Gaussian 98:
 frequency output generated by the xtb code
 *********************************************
                         Standard orientation:
 --------------------------------------------------------------------
  Center     Atomic     Atomic              Coordinates (Angstroms)
  Number     Number      Type              X           Y           Z
 --------------------------------------------------------------------
    1          7             0        0.973992    0.545744   -0.310994
    2          6             0        1.680217   -0.675759    0.165535
    3          6             0        3.178307   -0.580317   -0.037410
    4         17             0       -2.481439    0.251693    0.099868
    5          1             0       -0.051258    0.478560   -0.183631
    6          1             0        1.154579    0.709872   -1.318255
    7          1             0        1.299318    1.383394    0.196903
    8          1             0        1.280541   -1.554767   -0.357242
    9          1             0        1.448990   -0.839976    1.226327
   10          1             0        3.594904    0.272922    0.502287
   11          1             0        3.424064   -0.442510   -1.092661
   12          1             0        3.699764   -1.476689    0.308330
 --------------------------------------------------------------------
     1 basis functions        1 primitive gaussians
     1 alpha electrons        1 beta electrons

 Harmonic frequencies (cm**-1), IR intensities (km*mol⁻¹),
 Raman scattering activities (A**4/amu), Raman depolarization ratios,
 reduced masses (AMU), force constants (mDyne/A) and normal coordinates:
                      1                      2                      3
                        a                      a                      a 
 Frequencies --  -131.0601               126.5467               143.8366
 Red. masses --    23.7029                 9.0051                12.8251
 Frc consts  --     0.0000                 0.0000                 0.0000
 IR Inten    --   135.3562                 8.9765                18.7908
 Raman Activ --     0.0000                 0.0000                 0.0000
 Depolar     --     0.0000                 0.0000                 0.0000
 Atom AN      X      Y      Z        X      Y      Z        X      Y      Z
   1   7    -0.47  -0.10   0.08    -0.04  -0.17  -0.33    -0.21  -0.48   0.23
   2   6    -0.25  -0.01   0.03    -0.03  -0.18  -0.39     0.28  -0.21   0.09
   3   6    -0.26   0.11  -0.02     0.05   0.21   0.43     0.22   0.31  -0.17
   4  17     0.72   0.00  -0.06     0.01   0.09   0.19    -0.19   0.27  -0.11
   5   1    -0.14  -0.06   0.03    -0.00  -0.00   0.01    -0.06  -0.17   0.08
   6   1    -0.14  -0.02   0.02    -0.08  -0.05  -0.10    -0.10  -0.11   0.06
   7   1    -0.15  -0.02   0.02     0.06  -0.05  -0.11    -0.11  -0.10   0.05
   8   1    -0.05  -0.01   0.01     0.12  -0.03  -0.25     0.14  -0.10   0.04
   9   1    -0.06  -0.01   0.01    -0.15  -0.16  -0.16     0.15  -0.09   0.04
  10   1    -0.09   0.04  -0.01    -0.12   0.02   0.29     0.01   0.13  -0.07
  11   1    -0.09   0.04  -0.01     0.17   0.20   0.18    -0.00   0.12  -0.06
  12   1    -0.06   0.04  -0.01     0.02   0.05   0.10     0.17   0.14  -0.08
                      4                      5                      6
                        a                      a                      a 
 Frequencies --   284.9033               342.9505               380.4325
 Red. masses --     1.7192                 2.1770                 8.1039
 Frc consts  --     0.0000                 0.0000                 0.0000
 IR Inten    --     0.5194                 1.7549                28.3285
 Raman Activ --     0.0000                 0.0000                 0.0000
 Depolar     --     0.0000                 0.0000                 0.0000
 Atom AN      X      Y      Z        X      Y      Z        X      Y      Z
   1   7     0.01   0.04   0.08     0.06   0.08   0.21    -0.44   0.09   0.03
   2   6    -0.02  -0.09  -0.20    -0.03  -0.07  -0.06     0.23   0.30  -0.17
   3   6     0.01   0.02   0.04    -0.04   0.02  -0.05     0.36  -0.31   0.10
   4  17     0.00   0.02   0.04     0.01  -0.04  -0.09    -0.05   0.01  -0.01
   5   1    -0.01  -0.06  -0.14     0.06   0.25   0.51    -0.10  -0.15   0.14
   6   1     0.15   0.17   0.07    -0.43  -0.21  -0.06    -0.28   0.05  -0.02
   7   1    -0.12  -0.05   0.20     0.45   0.05  -0.26    -0.19   0.08  -0.03
   8   1     0.03   0.01  -0.13    -0.03   0.01  -0.05     0.07   0.08  -0.04
   9   1    -0.05  -0.10  -0.08     0.01  -0.06  -0.02     0.07   0.07  -0.05
  10   1    -0.12   0.31  -0.36    -0.07   0.11  -0.13     0.21  -0.15   0.04
  11   1     0.08  -0.48  -0.03     0.01  -0.14  -0.03     0.22  -0.17   0.05
  12   1     0.05   0.22   0.49     0.03   0.09   0.14    -0.09  -0.17   0.11
                      7                      8                      9
                        a                      a                      a 
 Frequencies --   825.9609               910.5206               928.5024
 Red. masses --     1.8159                 8.3894                 1.8847
 Frc consts  --     0.0000                 0.0000                 0.0000
 IR Inten    --    27.8179                 3.1229                11.2974
 Raman Activ --     0.0000                 0.0000                 0.0000
 Depolar     --     0.0000                 0.0000                 0.0000
 Atom AN      X      Y      Z        X      Y      Z        X      Y      Z
   1   7    -0.01  -0.01  -0.02    -0.33   0.37  -0.14    -0.04  -0.12  -0.18
   2   6    -0.03  -0.11  -0.23    -0.06  -0.38   0.18    -0.01   0.04   0.01
   3   6    -0.00  -0.03  -0.07     0.38  -0.16   0.04     0.01   0.09   0.13
   4  17    -0.00  -0.00  -0.00    -0.00  -0.01   0.00    -0.00  -0.00  -0.01
   5   1     0.00   0.04   0.07    -0.12   0.32  -0.13     0.00   0.12   0.15
   6   1    -0.07   0.24   0.02     0.03   0.07  -0.02    -0.15   0.41   0.00
   7   1     0.10  -0.16   0.19     0.05   0.03  -0.02     0.26  -0.34   0.30
   8   1    -0.26  -0.19   0.41    -0.04  -0.08   0.04     0.29  -0.16   0.07
   9   1     0.31   0.41   0.08    -0.07  -0.07   0.04    -0.26   0.18  -0.03
  10   1    -0.28   0.01   0.18    -0.04   0.07  -0.04     0.31  -0.02  -0.14
  11   1     0.31   0.10   0.07    -0.07   0.07  -0.02    -0.27  -0.09  -0.05
  12   1     0.01   0.05   0.12     0.42   0.10  -0.10    -0.06  -0.07  -0.10
                     10                     11                     12
                        a                      a                      a 
 Frequencies --   937.0264              1070.7551              1146.4692
 Red. masses --     2.8443                 8.5785                 7.1503
 Frc consts  --     0.0000                 0.0000                 0.0000
 IR Inten    --    15.7650                28.6810                13.8637
 Raman Activ --     0.0000                 0.0000                 0.0000
 Depolar     --     0.0000                 0.0000                 0.0000
 Atom AN      X      Y      Z        X      Y      Z        X      Y      Z
   1   7    -0.22  -0.15   0.12     0.10  -0.33   0.14    -0.15  -0.11   0.06
   2   6    -0.10   0.10  -0.03    -0.45   0.39  -0.13     0.42   0.30  -0.18
   3   6     0.10   0.15  -0.10     0.36  -0.13   0.02    -0.31  -0.31   0.17
   4  17    -0.00  -0.01   0.01    -0.00   0.00  -0.00    -0.00  -0.00   0.00
   5   1    -0.14   0.50  -0.24     0.01  -0.03   0.01    -0.08   0.23  -0.10
   6   1     0.34  -0.22   0.07     0.06  -0.09   0.04     0.13  -0.05   0.04
   7   1     0.29  -0.14  -0.01     0.06  -0.09   0.04     0.13  -0.07  -0.01
   8   1     0.06  -0.02   0.00    -0.23   0.15  -0.03     0.17   0.06  -0.05
   9   1     0.12  -0.07   0.01    -0.23   0.14  -0.05     0.17   0.06  -0.04
  10   1     0.20  -0.09   0.04    -0.02   0.07  -0.06    -0.30   0.08  -0.02
  11   1     0.26  -0.08   0.01    -0.02   0.09  -0.01    -0.29   0.09   0.01
  12   1    -0.29  -0.10   0.09     0.36   0.09  -0.08     0.25   0.08  -0.06
                     13                     14                     15
                        a                      a                      a 
 Frequencies --  1184.1464              1247.9215              1323.4020
 Red. masses --     5.8504                 2.2582                 3.8276
 Frc consts  --     0.0000                 0.0000                 0.0000
 IR Inten    --    18.8932                 9.5899                 6.4217
 Raman Activ --     0.0000                 0.0000                 0.0000
 Depolar     --     0.0000                 0.0000                 0.0000
 Atom AN      X      Y      Z        X      Y      Z        X      Y      Z
   1   7     0.03   0.11   0.24     0.02   0.09   0.21    -0.05  -0.14   0.06
   2   6    -0.05  -0.20  -0.45    -0.00  -0.01  -0.03     0.43  -0.16   0.03
   3   6     0.03   0.14   0.31    -0.02  -0.09  -0.21     0.01   0.10  -0.05
   4  17    -0.00   0.00   0.00     0.00   0.00   0.00    -0.00  -0.00   0.00
   5   1    -0.01  -0.06  -0.14    -0.01  -0.03  -0.08    -0.04   0.18  -0.08
   6   1     0.05  -0.23   0.02     0.05  -0.16   0.03    -0.02   0.08   0.03
   7   1    -0.07   0.18  -0.15    -0.06   0.14  -0.10    -0.03   0.03  -0.07
   8   1    -0.10  -0.20   0.20     0.52  -0.30   0.10    -0.50   0.28  -0.07
   9   1     0.11   0.27  -0.04    -0.52   0.31  -0.07    -0.50   0.27  -0.07
  10   1     0.31   0.02  -0.14    -0.19  -0.02   0.08    -0.04  -0.00   0.06
  11   1    -0.33  -0.09  -0.03     0.20   0.06   0.01    -0.05  -0.04  -0.03
  12   1    -0.02  -0.07  -0.15     0.01   0.03   0.06    -0.15  -0.04   0.04
                     16                     17                     18
                        a                      a                      a 
 Frequencies --  1376.1805              1397.1215              1438.8006
 Red. masses --     2.6262                 1.4542                 3.1339
 Frc consts  --     0.0000                 0.0000                 0.0000
 IR Inten    --   155.8055                73.5720                11.3653
 Raman Activ --     0.0000                 0.0000                 0.0000
 Depolar     --     0.0000                 0.0000                 0.0000
 Atom AN      X      Y      Z        X      Y      Z        X      Y      Z
   1   7    -0.28   0.20  -0.04     0.05   0.05   0.16    -0.00   0.04  -0.02
   2   6     0.09  -0.02   0.01    -0.01   0.03   0.06    -0.06   0.04  -0.01
   3   6    -0.02   0.03  -0.01     0.00  -0.01  -0.01     0.43  -0.02  -0.04
   4  17    -0.00   0.01  -0.00     0.00   0.00   0.01    -0.00   0.00  -0.00
   5   1     0.02  -0.58   0.17    -0.07  -0.25  -0.70     0.01  -0.04   0.02
   6   1     0.44  -0.08   0.06    -0.49   0.07  -0.06     0.02  -0.06  -0.01
   7   1     0.50  -0.15  -0.07     0.38  -0.09  -0.06     0.02  -0.03   0.05
   8   1    -0.10   0.04   0.01    -0.00   0.04  -0.03     0.04  -0.06   0.07
   9   1    -0.10   0.02  -0.02     0.02  -0.06   0.01     0.03  -0.09  -0.01
  10   1     0.01  -0.02   0.04    -0.02  -0.00   0.01    -0.45   0.19   0.09
  11   1     0.01  -0.04  -0.01     0.02   0.02   0.01    -0.47   0.10  -0.11
  12   1     0.04   0.02  -0.01    -0.00   0.00   0.02    -0.46  -0.24   0.15
                     19                     20                     21
                        a                      a                      a 
 Frequencies --  1466.4288              1490.4199              1493.0750
 Red. masses --     2.0556                 1.8502                 1.4929
 Frc consts  --     0.0000                 0.0000                 0.0000
 IR Inten    --    80.0046                 4.5710                13.5298
 Raman Activ --     0.0000                 0.0000                 0.0000
 Depolar     --     0.0000                 0.0000                 0.0000
 Atom AN      X      Y      Z        X      Y      Z        X      Y      Z
   1   7     0.04   0.23  -0.10     0.00  -0.03   0.01    -0.00  -0.00  -0.00
   2   6     0.12   0.03  -0.02     0.14   0.20  -0.10     0.00   0.02   0.05
   3   6    -0.06  -0.01   0.01    -0.05  -0.03   0.02     0.02   0.08   0.19
   4  17    -0.00   0.00  -0.00     0.00  -0.00   0.00    -0.00  -0.00  -0.00
   5   1     0.01  -0.00  -0.01    -0.00   0.03  -0.01    -0.00  -0.00  -0.00
   6   1    -0.17  -0.63  -0.14     0.01   0.13   0.02    -0.01   0.01  -0.00
   7   1    -0.09  -0.30   0.57    -0.00   0.07  -0.11     0.01  -0.01   0.00
   8   1    -0.11   0.01   0.09    -0.18  -0.25   0.57     0.02   0.01  -0.01
   9   1    -0.12  -0.05  -0.04    -0.26  -0.58  -0.16    -0.02  -0.00   0.01
  10   1     0.04   0.01  -0.05     0.05   0.05  -0.12    -0.33   0.29  -0.17
  11   1     0.05   0.04   0.02     0.08   0.11   0.03     0.32  -0.34   0.04
  12   1     0.02   0.01  -0.01    -0.00  -0.00  -0.01    -0.07  -0.29  -0.65
                     22                     23                     24
                        a                      a                      a 
 Frequencies --  1502.7517              2857.3146              2944.0002
 Red. masses --     1.6234                 2.0247                 1.9630
 Frc consts  --     0.0000                 0.0000                 0.0000
 IR Inten    --     6.1542              2031.2037                 0.0559
 Raman Activ --     0.0000                 0.0000                 0.0000
 Depolar     --     0.0000                 0.0000                 0.0000
 Atom AN      X      Y      Z        X      Y      Z        X      Y      Z
   1   7    -0.02   0.00  -0.00     0.27   0.03  -0.04    -0.00  -0.00  -0.00
   2   6     0.00  -0.09   0.04     0.00  -0.01   0.00     0.03   0.12   0.27
   3   6    -0.03  -0.19   0.09    -0.01   0.00  -0.00    -0.00  -0.01  -0.03
   4  17    -0.00   0.00  -0.00    -0.01  -0.00   0.00     0.00   0.00   0.00
   5   1     0.00  -0.04   0.02    -0.95  -0.09   0.13     0.00  -0.00  -0.00
   6   1     0.04   0.02   0.01     0.01  -0.00   0.04    -0.01  -0.01   0.02
   7   1     0.03   0.01  -0.03     0.01  -0.02  -0.02     0.01   0.02   0.01
   8   1    -0.00   0.06  -0.12    -0.00  -0.00   0.00    -0.24  -0.53  -0.30
   9   1     0.01   0.13   0.03    -0.00  -0.00  -0.00     0.15   0.11  -0.65
  10   1     0.13   0.29  -0.56     0.00   0.01   0.01     0.04   0.08   0.04
  11   1     0.19   0.60   0.13     0.00   0.00  -0.01    -0.02  -0.02   0.10
  12   1    -0.22  -0.11   0.08     0.00  -0.01   0.00    -0.00  -0.00  -0.01
                     25                     26                     27
                        a                      a                      a 
 Frequencies --  2968.9334              2999.9436              3002.1680
 Red. masses --     1.5310                 1.9508                 1.9183
 Frc consts  --     0.0000                 0.0000                 0.0000
 IR Inten    --     1.4578                20.9389                 6.5959
 Raman Activ --     0.0000                 0.0000                 0.0000
 Depolar     --     0.0000                 0.0000                 0.0000
 Atom AN      X      Y      Z        X      Y      Z        X      Y      Z
   1   7     0.00   0.00  -0.00    -0.00  -0.00   0.00     0.00   0.00  -0.00
   2   6    -0.10  -0.17   0.08    -0.00  -0.02  -0.05    -0.02  -0.03   0.01
   3   6     0.00   0.04  -0.02    -0.03  -0.10  -0.27     0.07  -0.26   0.09
   4  17    -0.00   0.00  -0.00     0.00   0.00   0.00    -0.00   0.00  -0.00
   5   1     0.00  -0.00   0.00     0.00  -0.00  -0.00    -0.00  -0.00   0.00
   6   1    -0.00  -0.00   0.03     0.00  -0.00   0.00    -0.00  -0.00   0.01
   7   1    -0.01  -0.02  -0.01    -0.00   0.00  -0.00    -0.00  -0.01  -0.00
   8   1     0.24   0.54   0.36     0.03   0.07   0.04     0.04   0.08   0.06
   9   1     0.12   0.07  -0.65    -0.02  -0.02   0.10     0.02   0.01  -0.09
  10   1    -0.04  -0.09  -0.07     0.24   0.51   0.30     0.13   0.22   0.18
  11   1    -0.02  -0.01   0.11    -0.16  -0.10   0.67     0.06  -0.01  -0.21
  12   1     0.04  -0.06   0.03     0.02  -0.06  -0.02    -0.41   0.71  -0.28
                     28                     29                     30
                        a                      a                      a 
 Frequencies --  3013.5706              3155.6121              3204.6325
 Red. masses --     1.3051                 1.8268                 1.6971
 Frc consts  --     0.0000                 0.0000                 0.0000
 IR Inten    --    10.4871                38.9572                30.4024
 Raman Activ --     0.0000                 0.0000                 0.0000
 Depolar     --     0.0000                 0.0000                 0.0000
 Atom AN      X      Y      Z        X      Y      Z        X      Y      Z
   1   7     0.00   0.00  -0.00     0.02   0.01  -0.25     0.07   0.20   0.10
   2   6     0.02   0.02  -0.01     0.00   0.00  -0.01     0.00   0.01   0.00
   3   6     0.15   0.06  -0.04    -0.00   0.00   0.00    -0.00  -0.00  -0.00
   4  17    -0.00  -0.00   0.00    -0.00   0.00   0.00    -0.00  -0.00  -0.00
   5   1    -0.02   0.00   0.00     0.04   0.00  -0.03     0.05   0.02   0.00
   6   1     0.00   0.00   0.00    -0.17  -0.13   0.93    -0.01   0.00   0.13
   7   1     0.00  -0.00  -0.00     0.04   0.10   0.03    -0.31  -0.77  -0.49
   8   1    -0.03  -0.07  -0.04     0.00  -0.00   0.00    -0.01  -0.02  -0.02
   9   1    -0.01  -0.01   0.08    -0.01  -0.00   0.04    -0.00  -0.00   0.01
  10   1    -0.23  -0.50  -0.33    -0.00  -0.00  -0.00    -0.00   0.00   0.00
  11   1    -0.12  -0.06   0.60    -0.00   0.00  -0.00    -0.00   0.00   0.00
  12   1    -0.18   0.35  -0.14     0.00  -0.01   0.00     0.00  -0.01   0.00
