18
 energy: -22.152217491746 gnorm: 0.000412215229 xtb: 6.5.1 (fef0646)
N            1.19246297539264        0.12622914137105       -0.37016085907371
C            2.65456954124546        0.14278641775630       -0.34034011919088
C            3.14535676407289        1.22472053470692        0.61622122194783
C            4.66508111225578        1.21238994756878        0.75898028259760
C            5.14722898288768        2.30656397837544        1.70304690153720
Cl           0.14537021708055       -0.49468942156562        2.29633746668237
H            0.84324482486734       -0.58729587773833       -1.00028674888207
H            0.82895942029329        1.02762449273058       -0.66197704261388
H            0.64463705561494       -0.19926186964241        1.05152887842251
H            3.08514675211428        0.30887075365050       -1.33858672474479
H            2.98553671288454       -0.83673757685482        0.01256799339526
H            2.68365921256365        1.06287615541620        1.59055021141208
H            2.82372183477951        2.20303172314690        0.25062113365533
H            5.12483954492212        1.34977012250057       -0.22287018727629
H            4.98132969893050        0.23932133746086        1.13975160998275
H            4.86250880778770        3.28746971481966        1.32880019696505
H            6.22963632544040        2.27774755941481        1.80142509872597
H            4.70812021686670        2.17622286688258        2.68912068645771
