 Entering Gaussian System
 *********************************************
 Gaussian 98:
 frequency output generated by the xtb code
 *********************************************
                         Standard orientation:
 --------------------------------------------------------------------
  Center     Atomic     Atomic              Coordinates (Angstroms)
  Number     Number      Type              X           Y           Z
 --------------------------------------------------------------------
    1          7             0        0.894535   -2.246966   -0.830429
    2          6             0       -0.109572   -2.385479    0.258495
    3          6             0       -0.578613   -1.036616    0.795334
    4          6             0       -1.322702   -0.198204   -0.243205
    5          6             0       -1.822923    1.134540    0.315134
    6          6             0       -2.563012    1.978322   -0.723775
    7          6             0       -3.055774    3.302916   -0.162695
    8         17             0        3.397421   -0.120937    0.306918
    9          1             0        0.486685   -1.799326   -1.666009
   10          1             0        1.281480   -3.161949   -1.126919
   11          1             0        1.685470   -1.655060   -0.522593
   12          1             0        0.321008   -2.984710    1.071414
   13          1             0       -0.969386   -2.960445   -0.105981
   14          1             0        0.285282   -0.471450    1.166570
   15          1             0       -1.224430   -1.182331    1.671246
   16          1             0       -2.168386   -0.771800   -0.642991
   17          1             0       -0.672684   -0.009158   -1.105948
   18          1             0       -0.977209    1.705347    0.718691
   19          1             0       -2.478181    0.951355    1.175747
   20          1             0       -3.406017    1.400596   -1.126281
   21          1             0       -1.903844    2.153767   -1.584637
   22          1             0       -3.741222    3.147501    0.673548
   23          1             0       -3.583113    3.897138   -0.913394
   24          1             0       -2.225889    3.907302    0.210521
 --------------------------------------------------------------------
     1 basis functions        1 primitive gaussians
     1 alpha electrons        1 beta electrons

 Harmonic frequencies (cm**-1), IR intensities (km*mol⁻¹),
 Raman scattering activities (A**4/amu), Raman depolarization ratios,
 reduced masses (AMU), force constants (mDyne/A) and normal coordinates:
                      1                      2                      3
                        a                      a                      a 
 Frequencies --  -136.0197                51.4170                73.0006
 Red. masses --    21.4783                23.5106                11.5027
 Frc consts  --     0.0000                 0.0000                 0.0000
 IR Inten    --   140.2907                13.3489                 1.2970
 Raman Activ --     0.0000                 0.0000                 0.0000
 Depolar     --     0.0000                 0.0000                 0.0000
 Atom AN      X      Y      Z        X      Y      Z        X      Y      Z
   1   7     0.44   0.35   0.21     0.08   0.12   0.05    -0.12  -0.20  -0.07
   2   6     0.22   0.12  -0.02     0.01   0.16  -0.01    -0.01   0.04   0.06
   3   6     0.01   0.03   0.03    -0.02   0.16  -0.04     0.25   0.16  -0.00
   4   6     0.01   0.01   0.02    -0.10   0.10  -0.03     0.45   0.25  -0.07
   5   6    -0.00   0.01   0.01    -0.16   0.09  -0.04     0.19   0.13  -0.02
   6   6    -0.01   0.00   0.00    -0.31   0.00  -0.01     0.07   0.03  -0.01
   7   6     0.00   0.01  -0.01    -0.36  -0.02  -0.01    -0.38  -0.17   0.06
   8  17    -0.50  -0.39  -0.18     0.59  -0.43   0.05    -0.27  -0.14   0.04
   9   1     0.15   0.09   0.04     0.06   0.10   0.03    -0.04  -0.06  -0.02
  10   1     0.17   0.11   0.06    -0.03   0.02  -0.02    -0.07  -0.07  -0.01
  11   1     0.10   0.14   0.10     0.07  -0.04   0.04    -0.01  -0.07  -0.05
  12   1     0.04   0.03   0.00    -0.01   0.04   0.00    -0.00   0.01   0.01
  13   1     0.10   0.02  -0.06     0.01   0.05  -0.02    -0.04   0.04   0.06
  14   1    -0.02   0.03   0.04    -0.01   0.06  -0.02     0.10   0.00  -0.00
  15   1    -0.01  -0.03  -0.01     0.01   0.05  -0.00     0.06   0.09  -0.01
  16   1     0.01  -0.00   0.00    -0.02   0.01   0.01     0.17   0.07  -0.10
  17   1     0.01   0.00   0.01    -0.04   0.03  -0.02     0.18   0.12   0.03
  18   1    -0.00   0.01   0.00    -0.05   0.05  -0.03     0.02   0.08   0.01
  19   1    -0.00   0.00   0.00    -0.02   0.02   0.00     0.05  -0.01  -0.02
  20   1    -0.00   0.00   0.00    -0.08  -0.02   0.02     0.08  -0.05  -0.04
  21   1    -0.00  -0.00  -0.00    -0.11   0.01  -0.02     0.03   0.09   0.02
  22   1     0.00   0.00  -0.00    -0.09  -0.01   0.01    -0.13  -0.13  -0.01
  23   1    -0.00   0.00  -0.00    -0.13  -0.02   0.00    -0.12  -0.07   0.02
  24   1     0.00   0.00  -0.01    -0.11   0.01  -0.02    -0.17   0.01   0.07
                      4                      5                      6
                        a                      a                      a 
 Frequencies --   111.2529               128.8108               139.0086
 Red. masses --     7.5038                10.1157                 7.3800
 Frc consts  --     0.0000                 0.0000                 0.0000
 IR Inten    --     3.5704                 7.8868                 2.6229
 Raman Activ --     0.0000                 0.0000                 0.0000
 Depolar     --     0.0000                 0.0000                 0.0000
 Atom AN      X      Y      Z        X      Y      Z        X      Y      Z
   1   7     0.09  -0.15   0.01     0.13  -0.03   0.34     0.09  -0.16   0.14
   2   6    -0.02  -0.02  -0.08    -0.23  -0.14  -0.01     0.08   0.02   0.14
   3   6     0.15   0.07  -0.15    -0.41  -0.20   0.00    -0.00   0.10  -0.14
   4   6    -0.09  -0.04  -0.08     0.18   0.09  -0.18    -0.32  -0.18  -0.14
   5   6     0.34   0.15  -0.16     0.19   0.08  -0.12     0.06   0.00  -0.21
   6   6    -0.31  -0.10   0.09    -0.02   0.05   0.01     0.24   0.26  -0.12
   7   6     0.07   0.04   0.09    -0.08  -0.03   0.16    -0.15  -0.06   0.31
   8  17    -0.16   0.04   0.18     0.16   0.13  -0.17     0.00   0.02  -0.03
   9   1     0.06  -0.02  -0.01     0.08  -0.06   0.04     0.02  -0.09   0.01
  10   1     0.00  -0.05   0.01     0.11   0.00   0.15     0.04  -0.05   0.08
  11   1     0.02  -0.06   0.04    -0.02   0.05   0.12     0.01  -0.01   0.00
  12   1    -0.04  -0.01  -0.01    -0.14  -0.06   0.02     0.03   0.06   0.08
  13   1    -0.02   0.02  -0.03    -0.03  -0.03  -0.10     0.04  -0.04   0.07
  14   1     0.08   0.02  -0.12    -0.16  -0.09   0.15     0.00   0.08  -0.13
  15   1     0.10   0.07   0.01    -0.24  -0.09  -0.10     0.06   0.07   0.01
  16   1    -0.10   0.00   0.11     0.07   0.09  -0.18    -0.15  -0.06   0.10
  17   1    -0.11  -0.10  -0.11     0.16   0.03   0.03    -0.19  -0.14  -0.13
  18   1     0.18   0.06  -0.24     0.06   0.03  -0.07     0.07  -0.07  -0.07
  19   1     0.25   0.12   0.09     0.09   0.01  -0.01     0.02   0.06  -0.05
  20   1    -0.16  -0.06   0.22    -0.01  -0.00   0.03     0.12   0.08  -0.16
  21   1    -0.24  -0.09  -0.11    -0.05   0.04  -0.02     0.13   0.20   0.04
  22   1     0.15   0.07   0.15     0.02  -0.04   0.08    -0.12  -0.15  -0.00
  23   1    -0.10  -0.03   0.07    -0.08  -0.01   0.08     0.01   0.06   0.11
  24   1     0.09   0.03  -0.15    -0.02   0.01   0.02    -0.10  -0.03   0.25
                      7                      8                      9
                        a                      a                      a 
 Frequencies --   143.2399               190.8340               262.0341
 Red. masses --     8.2467                 8.8439                 5.9793
 Frc consts  --     0.0000                 0.0000                 0.0000
 IR Inten    --     3.3042                15.5295                 5.3704
 Raman Activ --     0.0000                 0.0000                 0.0000
 Depolar     --     0.0000                 0.0000                 0.0000
 Atom AN      X      Y      Z        X      Y      Z        X      Y      Z
   1   7     0.07  -0.24   0.10     0.32  -0.38   0.15    -0.06   0.17   0.22
   2   6     0.10   0.04   0.16    -0.19  -0.08  -0.26    -0.32   0.07  -0.07
   3   6     0.08   0.16  -0.15     0.16  -0.00  -0.12     0.16   0.14   0.05
   4   6     0.15   0.06  -0.29    -0.09   0.11   0.14     0.06  -0.06  -0.01
   5   6    -0.36  -0.20  -0.10    -0.15   0.05   0.25    -0.07  -0.13  -0.10
   6   6    -0.26   0.03   0.02     0.04   0.08   0.12     0.09  -0.09  -0.15
   7   6     0.23   0.14   0.21    -0.10   0.14  -0.16     0.15  -0.21   0.14
   8  17    -0.04   0.01  -0.00    -0.01   0.09  -0.07    -0.01   0.06  -0.06
   9   1     0.00  -0.14  -0.01     0.20  -0.13  -0.03     0.11   0.35   0.16
  10   1     0.04  -0.08   0.10     0.10  -0.12   0.12    -0.21   0.03  -0.15
  11   1     0.01  -0.02  -0.03     0.06  -0.09   0.10     0.10  -0.19   0.21
  12   1     0.04   0.07   0.09    -0.21  -0.12  -0.06    -0.21  -0.12  -0.06
  13   1     0.03  -0.02   0.09    -0.08   0.10  -0.19    -0.14   0.16  -0.13
  14   1     0.02   0.06  -0.05     0.10  -0.04  -0.10     0.11   0.01  -0.08
  15   1     0.01   0.09  -0.05     0.11   0.02   0.02     0.10   0.12   0.06
  16   1     0.12  -0.03  -0.18    -0.03   0.02   0.07     0.04  -0.06   0.02
  17   1     0.10   0.11  -0.02    -0.07   0.05   0.01    -0.00  -0.01  -0.02
  18   1    -0.17  -0.04   0.08    -0.06   0.01   0.12    -0.05  -0.03   0.02
  19   1    -0.16  -0.17  -0.09    -0.09  -0.01   0.04    -0.06  -0.05  -0.06
  20   1    -0.13   0.09   0.02     0.04   0.02  -0.01     0.03  -0.01  -0.08
  21   1    -0.09  -0.02  -0.01     0.06   0.00   0.07     0.05   0.00  -0.02
  22   1     0.11   0.08   0.10    -0.09   0.07  -0.09     0.13  -0.12   0.10
  23   1     0.06   0.09   0.11     0.03   0.01  -0.11    -0.04  -0.04   0.12
  24   1     0.14  -0.03   0.02    -0.06   0.06  -0.01     0.07  -0.06  -0.01
                     10                     11                     12
                        a                      a                      a 
 Frequencies --   269.8904               312.5319               359.0035
 Red. masses --     1.9935                 4.0734                 9.1613
 Frc consts  --     0.0000                 0.0000                 0.0000
 IR Inten    --     0.3268                 0.8274                 2.1785
 Raman Activ --     0.0000                 0.0000                 0.0000
 Depolar     --     0.0000                 0.0000                 0.0000
 Atom AN      X      Y      Z        X      Y      Z        X      Y      Z
   1   7     0.02  -0.05  -0.05    -0.10   0.18   0.00     0.11  -0.14  -0.14
   2   6     0.07  -0.02   0.01    -0.22   0.11  -0.11     0.08  -0.07  -0.10
   3   6    -0.02  -0.03  -0.02     0.11   0.13   0.05     0.09  -0.17   0.35
   4   6    -0.07  -0.01   0.02     0.01   0.01   0.07     0.09  -0.03   0.36
   5   6    -0.08  -0.02   0.05    -0.02  -0.02  -0.02    -0.16   0.19  -0.27
   6   6     0.18   0.13  -0.03     0.02  -0.13  -0.10    -0.20   0.18  -0.36
   7   6    -0.08   0.03  -0.02     0.08  -0.20   0.06     0.01   0.08   0.14
   8  17    -0.01  -0.01   0.02     0.09  -0.06   0.03    -0.02   0.01   0.00
   9   1    -0.01  -0.05  -0.02    -0.11  -0.38  -0.19     0.04  -0.04  -0.05
  10   1     0.02  -0.01   0.01     0.33   0.09   0.32     0.01  -0.05  -0.02
  11   1    -0.00   0.01  -0.03    -0.25   0.41  -0.10     0.04  -0.05  -0.04
  12   1     0.05   0.02   0.01    -0.12  -0.04  -0.06     0.01  -0.09  -0.07
  13   1     0.03  -0.04   0.03    -0.10   0.11  -0.08     0.00   0.03  -0.06
  14   1    -0.02   0.00  -0.00     0.08   0.01  -0.05     0.02  -0.07   0.15
  15   1    -0.00  -0.02  -0.00     0.08   0.08   0.05     0.02  -0.14   0.08
  16   1    -0.02  -0.00   0.00     0.00  -0.02   0.06     0.05  -0.04   0.10
  17   1    -0.02   0.00   0.01    -0.02  -0.02  -0.00     0.06  -0.06   0.12
  18   1    -0.04  -0.03   0.09    -0.02   0.01  -0.01    -0.07   0.10  -0.09
  19   1    -0.09  -0.02  -0.04    -0.02   0.00  -0.01    -0.07   0.12  -0.08
  20   1     0.09   0.03  -0.08     0.01  -0.04  -0.03    -0.08   0.08  -0.10
  21   1     0.10   0.08   0.04     0.01  -0.03  -0.02    -0.08   0.09  -0.11
  22   1     0.38  -0.03   0.31     0.06  -0.09   0.05     0.04  -0.05   0.06
  23   1    -0.49  -0.24   0.13    -0.01  -0.03   0.06    -0.02   0.12   0.14
  24   1    -0.01   0.28  -0.46     0.04  -0.07   0.00     0.04  -0.05   0.06
                     13                     14                     15
                        a                      a                      a 
 Frequencies --   399.1749               496.0698               766.8272
 Red. masses --     8.8690                 8.2522                 1.8627
 Frc consts  --     0.0000                 0.0000                 0.0000
 IR Inten    --     7.0987                 5.9854                23.2660
 Raman Activ --     0.0000                 0.0000                 0.0000
 Depolar     --     0.0000                 0.0000                 0.0000
 Atom AN      X      Y      Z        X      Y      Z        X      Y      Z
   1   7    -0.14   0.24   0.14    -0.06   0.09   0.13    -0.04  -0.02   0.04
   2   6    -0.07  -0.33   0.07     0.05  -0.40   0.08     0.05  -0.03   0.02
   3   6     0.28  -0.19  -0.00     0.08  -0.17  -0.32     0.10   0.02  -0.04
   4   6     0.16  -0.24  -0.07    -0.07   0.31   0.08     0.15   0.09  -0.07
   5   6     0.02  -0.15  -0.15    -0.11   0.31   0.14     0.12   0.08  -0.02
   6   6    -0.09   0.23   0.10    -0.03  -0.05  -0.20     0.05   0.03  -0.02
   7   6    -0.20   0.35  -0.06     0.09  -0.16   0.03     0.00  -0.00  -0.00
   8  17     0.04  -0.01  -0.00     0.01  -0.00  -0.00    -0.00   0.00  -0.00
   9   1    -0.10   0.06   0.07    -0.08   0.09   0.10    -0.07   0.01   0.05
  10   1     0.10   0.14  -0.02     0.07   0.10  -0.08     0.01   0.02  -0.03
  11   1    -0.12   0.15   0.08    -0.07   0.07   0.09    -0.02   0.02  -0.02
  12   1    -0.02  -0.14  -0.01     0.09   0.01   0.07    -0.05  -0.06  -0.00
  13   1    -0.03  -0.06  -0.01     0.07  -0.24   0.08    -0.02   0.06  -0.03
  14   1     0.15  -0.09  -0.11     0.10  -0.10  -0.18    -0.06  -0.04   0.26
  15   1     0.14   0.06   0.06     0.10   0.04  -0.02    -0.20  -0.08  -0.19
  16   1     0.06  -0.10   0.01    -0.05   0.14   0.01    -0.15   0.03   0.38
  17   1     0.03  -0.07  -0.03    -0.06   0.15   0.00    -0.25  -0.19  -0.28
  18   1     0.01  -0.06  -0.02    -0.07   0.13   0.04    -0.15   0.04   0.35
  19   1     0.02  -0.08  -0.04    -0.07   0.12   0.02    -0.21  -0.21  -0.24
  20   1    -0.03   0.09   0.02    -0.00  -0.03  -0.04    -0.06  -0.04   0.21
  21   1    -0.04   0.09   0.02     0.00  -0.03  -0.05    -0.15  -0.07  -0.15
  22   1    -0.09   0.14  -0.03     0.06  -0.10   0.02    -0.01  -0.07  -0.02
  23   1    -0.04   0.04  -0.08     0.01   0.04   0.08    -0.02  -0.00   0.01
  24   1    -0.08   0.14  -0.03     0.06  -0.11   0.03    -0.04   0.03   0.04
                     16                     17                     18
                        a                      a                      a 
 Frequencies --   790.9887               829.8810               869.3012
 Red. masses --     2.3897                 2.7374                 3.6420
 Frc consts  --     0.0000                 0.0000                 0.0000
 IR Inten    --     4.9429                31.6918                 3.1734
 Raman Activ --     0.0000                 0.0000                 0.0000
 Depolar     --     0.0000                 0.0000                 0.0000
 Atom AN      X      Y      Z        X      Y      Z        X      Y      Z
   1   7     0.04   0.03  -0.07    -0.09   0.03  -0.04     0.18   0.04  -0.10
   2   6    -0.10   0.04  -0.05    -0.21   0.09  -0.17    -0.02  -0.09   0.13
   3   6    -0.16  -0.03   0.07    -0.04  -0.02  -0.02    -0.24  -0.01   0.16
   4   6    -0.07  -0.07   0.07     0.18   0.01   0.10     0.00   0.04  -0.06
   5   6     0.10   0.01  -0.05     0.05  -0.04  -0.06     0.18   0.10  -0.07
   6   6     0.18   0.09  -0.05    -0.09  -0.05   0.03    -0.11  -0.06   0.06
   7   6     0.03   0.02  -0.00    -0.04   0.00   0.03    -0.08  -0.06   0.02
   8  17     0.00   0.00   0.00     0.00   0.01  -0.01    -0.00  -0.00   0.01
   9   1     0.14  -0.01  -0.09     0.37   0.04  -0.18    -0.12  -0.04   0.03
  10   1    -0.01  -0.03   0.06     0.03  -0.02   0.15    -0.04  -0.02  -0.07
  11   1     0.02  -0.04   0.06    -0.09  -0.07   0.31     0.13   0.01  -0.23
  12   1     0.10   0.12   0.00     0.27   0.33   0.01    -0.09  -0.10   0.02
  13   1     0.04  -0.13   0.07     0.03  -0.29   0.25     0.05   0.00  -0.13
  14   1     0.07   0.01  -0.27     0.06  -0.11  -0.00     0.05   0.01  -0.25
  15   1     0.19   0.11   0.21    -0.01   0.02   0.00     0.13   0.20   0.22
  16   1     0.02   0.06  -0.16    -0.03  -0.00   0.19    -0.12   0.17   0.00
  17   1     0.16  -0.03   0.15    -0.04  -0.15  -0.07     0.06  -0.18  -0.01
  18   1    -0.02  -0.10   0.22    -0.07   0.07   0.03    -0.10   0.07   0.21
  19   1    -0.18  -0.02  -0.18     0.01  -0.12  -0.04    -0.09  -0.18  -0.16
  20   1    -0.13   0.00   0.38     0.07  -0.03  -0.16     0.13  -0.14  -0.13
  21   1    -0.24  -0.17  -0.27     0.07   0.12   0.11     0.02   0.21   0.10
  22   1    -0.03  -0.19  -0.07    -0.00   0.15   0.04     0.01   0.26   0.08
  23   1    -0.06  -0.04   0.01     0.06   0.02  -0.02     0.10   0.03  -0.04
  24   1    -0.14   0.13   0.11     0.08  -0.08  -0.07     0.16  -0.17  -0.13
                     19                     20                     21
                        a                      a                      a 
 Frequencies --   906.9602               944.2940               948.9668
 Red. masses --     7.1753                 4.8400                 4.8490
 Frc consts  --     0.0000                 0.0000                 0.0000
 IR Inten    --    20.7824                 6.2012                 3.5834
 Raman Activ --     0.0000                 0.0000                 0.0000
 Depolar     --     0.0000                 0.0000                 0.0000
 Atom AN      X      Y      Z        X      Y      Z        X      Y      Z
   1   7    -0.18   0.14   0.32     0.06   0.08   0.05     0.19   0.09  -0.14
   2   6     0.10   0.31  -0.16    -0.06  -0.00  -0.03    -0.19  -0.06   0.13
   3   6     0.06  -0.28  -0.28    -0.05  -0.05  -0.02    -0.14   0.03   0.06
   4   6     0.07  -0.11   0.14     0.08   0.15   0.10     0.19   0.00  -0.06
   5   6     0.09  -0.03   0.08    -0.20   0.02  -0.31    -0.02  -0.13   0.23
   6   6    -0.05  -0.00  -0.11     0.05   0.00   0.24    -0.06  -0.03  -0.15
   7   6    -0.07   0.08  -0.01     0.21  -0.18   0.11    -0.00   0.21  -0.11
   8  17    -0.00   0.00   0.01    -0.00   0.00   0.01    -0.00   0.00   0.00
   9   1    -0.13  -0.13   0.03    -0.10  -0.07   0.02    -0.01  -0.05  -0.04
  10   1    -0.33  -0.14   0.25    -0.13  -0.05   0.04    -0.07  -0.04  -0.00
  11   1     0.16  -0.06  -0.25     0.13  -0.02  -0.20     0.14  -0.02  -0.19
  12   1    -0.04   0.14   0.03    -0.03   0.09   0.06    -0.03   0.04   0.06
  13   1     0.10   0.01  -0.12     0.10  -0.13  -0.08     0.06  -0.13  -0.05
  14   1     0.04  -0.09  -0.09     0.08  -0.15  -0.03     0.08  -0.13  -0.05
  15   1     0.09  -0.17  -0.04     0.00   0.06   0.02    -0.06   0.24   0.04
  16   1     0.00   0.02   0.00    -0.01   0.00   0.14    -0.03  -0.01   0.16
  17   1     0.04  -0.02   0.05    -0.05  -0.04  -0.04    -0.08  -0.09  -0.13
  18   1     0.00  -0.01   0.07    -0.08   0.13  -0.19    -0.00   0.08  -0.09
  19   1    -0.02  -0.02  -0.01     0.03   0.01  -0.02     0.18  -0.12   0.18
  20   1     0.02  -0.05  -0.03    -0.10   0.21   0.01    -0.07   0.11  -0.09
  21   1    -0.02   0.03  -0.03     0.03  -0.01   0.07     0.13  -0.24   0.03
  22   1     0.03   0.02   0.03    -0.10   0.01  -0.09     0.07  -0.30  -0.03
  23   1    -0.02   0.12   0.07     0.06  -0.40  -0.25    -0.15   0.21   0.20
  24   1     0.05  -0.06  -0.01    -0.16   0.25   0.00    -0.07   0.05   0.14
                     22                     23                     24
                        a                      a                      a 
 Frequencies --   993.2408              1009.7044              1063.4782
 Red. masses --     5.3288                 3.8628                 8.4360
 Frc consts  --     0.0000                 0.0000                 0.0000
 IR Inten    --    15.1339                11.6479                 9.5816
 Raman Activ --     0.0000                 0.0000                 0.0000
 Depolar     --     0.0000                 0.0000                 0.0000
 Atom AN      X      Y      Z        X      Y      Z        X      Y      Z
   1   7    -0.21   0.14   0.03     0.11   0.21  -0.13     0.14   0.08  -0.26
   2   6     0.23  -0.07   0.05    -0.19  -0.12   0.21    -0.22   0.16   0.47
   3   6     0.07  -0.18   0.19     0.13  -0.03   0.04     0.07  -0.24  -0.34
   4   6    -0.07   0.05  -0.33    -0.06  -0.02  -0.12     0.07  -0.19   0.12
   5   6    -0.07   0.18   0.06    -0.08   0.08   0.04     0.04   0.07   0.07
   6   6    -0.05   0.04   0.07     0.08   0.08   0.01    -0.06  -0.03  -0.09
   7   6     0.09  -0.06  -0.05    -0.07  -0.09   0.01     0.06   0.00   0.09
   8  17    -0.00   0.00  -0.00    -0.01   0.00   0.00    -0.00  -0.00  -0.00
   9   1     0.27  -0.07  -0.20     0.16  -0.08  -0.17     0.14   0.03  -0.11
  10   1    -0.17  -0.10   0.30    -0.18  -0.10   0.19     0.07   0.02  -0.02
  11   1     0.02  -0.11   0.10     0.18  -0.08  -0.16     0.02  -0.00   0.02
  12   1     0.14  -0.29  -0.22     0.04  -0.07  -0.01    -0.13  -0.03   0.10
  13   1    -0.06   0.16   0.00     0.01  -0.08   0.00    -0.19   0.24   0.13
  14   1    -0.02   0.07  -0.05     0.10  -0.19   0.14    -0.09   0.07  -0.06
  15   1     0.07  -0.02   0.09    -0.16   0.16  -0.10     0.02  -0.15  -0.10
  16   1    -0.11   0.14  -0.08     0.12  -0.22  -0.01    -0.04   0.09  -0.04
  17   1    -0.01  -0.08  -0.10    -0.13   0.22  -0.06     0.06  -0.07   0.06
  18   1    -0.08   0.15  -0.01     0.13  -0.20   0.02    -0.09   0.15   0.03
  19   1     0.05  -0.09   0.04    -0.12   0.27  -0.01    -0.02   0.01  -0.01
  20   1    -0.04   0.09  -0.04     0.07  -0.14   0.13    -0.05   0.08  -0.07
  21   1     0.08  -0.07   0.08    -0.13   0.12  -0.09    -0.00   0.03  -0.01
  22   1     0.01  -0.12  -0.04     0.00   0.14   0.04    -0.05   0.05  -0.02
  23   1    -0.02  -0.04   0.00     0.06   0.01  -0.03     0.02  -0.12  -0.08
  24   1    -0.04   0.04   0.04     0.09  -0.12  -0.08    -0.06   0.11   0.00
                     25                     26                     27
                        a                      a                      a 
 Frequencies --  1078.9451              1102.5792              1115.4338
 Red. masses --     9.0846                 7.7446                 7.7168
 Frc consts  --     0.0000                 0.0000                 0.0000
 IR Inten    --     3.9837                 1.8907                 2.3268
 Raman Activ --     0.0000                 0.0000                 0.0000
 Depolar     --     0.0000                 0.0000                 0.0000
 Atom AN      X      Y      Z        X      Y      Z        X      Y      Z
   1   7    -0.06   0.07  -0.02    -0.08  -0.01   0.05    -0.09   0.02   0.01
   2   6     0.10  -0.14   0.07     0.13  -0.08  -0.13     0.16  -0.13  -0.04
   3   6    -0.02   0.05  -0.04    -0.16   0.17  -0.08    -0.17   0.18  -0.11
   4   6    -0.10   0.33   0.19     0.22  -0.40  -0.04     0.13  -0.05   0.20
   5   6     0.12  -0.34  -0.14    -0.13   0.31   0.16     0.17  -0.24   0.27
   6   6     0.13  -0.38  -0.23     0.11  -0.25  -0.11    -0.21   0.33  -0.22
   7   6    -0.09   0.32   0.24    -0.02   0.15   0.21     0.10  -0.23  -0.02
   8  17    -0.00   0.00  -0.00     0.00  -0.00   0.00    -0.00   0.00  -0.00
   9   1     0.10  -0.03  -0.08    -0.01  -0.01   0.00     0.05  -0.01  -0.04
  10   1    -0.06  -0.04   0.11    -0.02  -0.01   0.03    -0.03  -0.02   0.07
  11   1     0.02  -0.04   0.02    -0.02  -0.01   0.03    -0.01  -0.03   0.05
  12   1     0.03  -0.16  -0.07     0.01  -0.05  -0.05     0.01  -0.13  -0.06
  13   1    -0.01   0.05  -0.02     0.06  -0.03  -0.08     0.03   0.02  -0.08
  14   1    -0.03   0.04   0.00    -0.07   0.12  -0.09    -0.07   0.12  -0.08
  15   1    -0.03   0.04  -0.02    -0.11   0.23  -0.04    -0.10   0.21  -0.04
  16   1    -0.07   0.16   0.04     0.10  -0.19   0.03     0.00   0.01   0.08
  17   1    -0.07   0.17   0.03     0.05  -0.13  -0.02    -0.02   0.06   0.03
  18   1     0.02  -0.06  -0.06    -0.10   0.21  -0.00     0.07  -0.09   0.07
  19   1     0.00  -0.04  -0.05    -0.11   0.25   0.01     0.06  -0.03   0.09
  20   1     0.02  -0.08  -0.07     0.05  -0.11  -0.00    -0.14   0.23  -0.07
  21   1     0.01  -0.08  -0.08     0.04  -0.10  -0.02    -0.16   0.25  -0.10
  22   1    -0.08   0.19   0.03    -0.07   0.15   0.02    -0.03   0.01  -0.04
  23   1    -0.00  -0.01  -0.03     0.02  -0.06  -0.05     0.05  -0.16  -0.11
  24   1    -0.08   0.18   0.03    -0.06   0.14   0.01     0.00   0.00  -0.06
                     28                     29                     30
                        a                      a                      a 
 Frequencies --  1139.4273              1163.1071              1209.9320
 Red. masses --     8.0656                 6.8571                 5.2217
 Frc consts  --     0.0000                 0.0000                 0.0000
 IR Inten    --     6.2027                 6.6118                 1.1892
 Raman Activ --     0.0000                 0.0000                 0.0000
 Depolar     --     0.0000                 0.0000                 0.0000
 Atom AN      X      Y      Z        X      Y      Z        X      Y      Z
   1   7    -0.06   0.10  -0.04     0.11   0.13   0.08    -0.08  -0.06  -0.03
   2   6     0.09  -0.21   0.09    -0.24  -0.31  -0.14     0.11   0.11   0.05
   3   6    -0.10   0.19  -0.29     0.25   0.32   0.03    -0.01  -0.06  -0.01
   4   6     0.07  -0.01   0.36    -0.22  -0.13  -0.00    -0.14  -0.05   0.05
   5   6    -0.07   0.00  -0.33     0.19   0.09   0.05     0.24   0.12  -0.08
   6   6     0.06   0.05   0.36    -0.15  -0.06  -0.05    -0.34  -0.17   0.11
   7   6    -0.05  -0.02  -0.22     0.09   0.03   0.03     0.24   0.12  -0.08
   8  17    -0.00   0.00  -0.00    -0.00   0.00   0.00     0.00  -0.00  -0.00
   9   1     0.10  -0.03  -0.10    -0.05  -0.08  -0.01     0.06   0.05  -0.01
  10   1    -0.06  -0.03   0.10    -0.13  -0.04   0.04     0.07   0.02   0.01
  11   1     0.04  -0.05   0.01     0.16  -0.02  -0.19    -0.07  -0.00   0.07
  12   1    -0.04  -0.14  -0.01     0.10   0.05  -0.02    -0.06  -0.01   0.03
  13   1    -0.01   0.04  -0.05    -0.04  -0.21   0.12     0.09   0.02  -0.13
  14   1    -0.12   0.17  -0.05    -0.10   0.21   0.19     0.12  -0.22   0.03
  15   1    -0.08   0.05  -0.11    -0.03  -0.20  -0.11    -0.10   0.20  -0.03
  16   1     0.06  -0.05   0.07    -0.01   0.03  -0.17     0.10  -0.16  -0.06
  17   1     0.09  -0.08   0.13     0.14  -0.06   0.14    -0.05   0.19   0.05
  18   1    -0.04   0.02  -0.06    -0.05   0.08   0.13     0.04  -0.09   0.19
  19   1    -0.02  -0.03  -0.09     0.00  -0.13  -0.05    -0.14   0.04  -0.17
  20   1     0.06  -0.05   0.09    -0.02   0.04  -0.12     0.07  -0.10  -0.21
  21   1     0.07  -0.07   0.12     0.04   0.02   0.05     0.06   0.16   0.18
  22   1     0.11  -0.17   0.01    -0.02  -0.05  -0.04     0.01  -0.25  -0.10
  23   1    -0.06   0.19   0.14    -0.02  -0.06  -0.02    -0.11  -0.05   0.03
  24   1     0.07  -0.17   0.03    -0.06   0.10   0.04    -0.13   0.19   0.14
                     31                     32                     33
                        a                      a                      a 
 Frequencies --  1237.3724              1257.1278              1275.1419
 Red. masses --     2.9984                 3.1385                 3.0546
 Frc consts  --     0.0000                 0.0000                 0.0000
 IR Inten    --    12.6492                 0.9273                 2.1352
 Raman Activ --     0.0000                 0.0000                 0.0000
 Depolar     --     0.0000                 0.0000                 0.0000
 Atom AN      X      Y      Z        X      Y      Z        X      Y      Z
   1   7    -0.18   0.04  -0.15     0.02   0.06  -0.02     0.04  -0.01   0.05
   2   6     0.11  -0.07   0.14    -0.04  -0.10   0.02     0.04   0.02   0.03
   3   6     0.07   0.14   0.02    -0.14   0.02   0.01    -0.13   0.04  -0.15
   4   6    -0.12   0.05  -0.06     0.21   0.17  -0.09    -0.08   0.16   0.06
   5   6    -0.01   0.07   0.05    -0.14  -0.00   0.06    -0.02   0.22  -0.02
   6   6     0.04   0.05  -0.10    -0.12  -0.03  -0.02    -0.09   0.08  -0.14
   7   6    -0.04  -0.03   0.07     0.18   0.08  -0.02    -0.02  -0.03   0.12
   8  17    -0.00  -0.00  -0.00    -0.00  -0.00   0.00     0.00   0.00   0.00
   9   1     0.16   0.03  -0.13    -0.00  -0.03  -0.03    -0.03  -0.01   0.03
  10   1     0.04   0.00   0.09    -0.03  -0.01   0.02     0.00   0.01  -0.04
  11   1    -0.07  -0.08   0.15     0.04  -0.02  -0.01     0.02   0.02  -0.04
  12   1    -0.38   0.10   0.34    -0.05   0.00   0.05     0.15  -0.13  -0.17
  13   1     0.32  -0.17  -0.41    -0.03  -0.02   0.03    -0.14   0.14   0.15
  14   1     0.04  -0.06   0.11    -0.15   0.27  -0.13     0.10  -0.21  -0.02
  15   1     0.09  -0.19   0.02     0.25  -0.37   0.15     0.02  -0.02  -0.01
  16   1     0.06  -0.10  -0.03     0.10  -0.18   0.19     0.18  -0.31   0.07
  17   1     0.11  -0.14   0.05    -0.06  -0.06  -0.13     0.15  -0.24   0.07
  18   1     0.01  -0.01   0.02     0.12  -0.21  -0.02     0.19  -0.32   0.13
  19   1     0.10  -0.18   0.05     0.01   0.06   0.06     0.13  -0.26   0.03
  20   1    -0.02   0.02   0.02     0.18  -0.33   0.00    -0.00  -0.01  -0.02
  21   1     0.03  -0.11  -0.03    -0.12   0.26  -0.01     0.18  -0.31   0.05
  22   1    -0.03   0.09   0.02    -0.01  -0.14  -0.07    -0.05   0.09   0.01
  23   1     0.04  -0.03  -0.04    -0.05  -0.06  -0.00     0.04  -0.09  -0.07
  24   1     0.02  -0.01  -0.04    -0.08   0.14   0.08     0.01   0.01  -0.05
                     34                     35                     36
                        a                      a                      a 
 Frequencies --  1284.2869              1289.7949              1324.9795
 Red. masses --     1.6958                 2.2567                 3.6289
 Frc consts  --     0.0000                 0.0000                 0.0000
 IR Inten    --     2.3655                 0.1394                 8.5877
 Raman Activ --     0.0000                 0.0000                 0.0000
 Depolar     --     0.0000                 0.0000                 0.0000
 Atom AN      X      Y      Z        X      Y      Z        X      Y      Z
   1   7     0.02  -0.03   0.01     0.01   0.01  -0.02    -0.08  -0.11   0.09
   2   6    -0.02   0.04   0.02    -0.04  -0.03  -0.00    -0.15   0.16   0.23
   3   6    -0.07  -0.04  -0.01    -0.10  -0.05   0.07    -0.07   0.21  -0.12
   4   6    -0.15  -0.04   0.05     0.08   0.02  -0.04    -0.00   0.03  -0.05
   5   6     0.06   0.03  -0.02     0.24   0.06  -0.06     0.03  -0.07   0.07
   6   6     0.12   0.06  -0.04    -0.02  -0.05   0.04     0.08  -0.13   0.06
   7   6     0.01   0.00   0.00    -0.12  -0.05   0.01    -0.02   0.00  -0.06
   8  17    -0.00  -0.00   0.00    -0.00  -0.00   0.00    -0.00  -0.00   0.00
   9   1    -0.01   0.02   0.02     0.00  -0.00  -0.01     0.11   0.07   0.01
  10   1     0.01  -0.00   0.00    -0.01  -0.01   0.02     0.14   0.07  -0.09
  11   1    -0.00   0.02  -0.03     0.01  -0.00  -0.01     0.01   0.02  -0.14
  12   1     0.07  -0.06  -0.08    -0.04   0.02   0.03     0.29  -0.27  -0.34
  13   1    -0.01   0.01   0.02     0.01  -0.04  -0.00     0.21  -0.17  -0.23
  14   1    -0.01  -0.00  -0.04    -0.13   0.24  -0.12     0.10  -0.17   0.04
  15   1     0.02  -0.00   0.03     0.15  -0.19   0.12     0.13  -0.28   0.02
  16   1     0.20  -0.36  -0.01     0.16  -0.27   0.10     0.02  -0.06   0.03
  17   1    -0.14   0.33   0.01    -0.23   0.35  -0.12     0.08  -0.14   0.02
  18   1    -0.25   0.43  -0.06     0.01  -0.01   0.13    -0.05   0.09  -0.03
  19   1     0.24  -0.46   0.07    -0.14   0.12  -0.15    -0.08   0.15  -0.02
  20   1     0.10  -0.16   0.11    -0.22   0.39  -0.11    -0.10   0.17  -0.03
  21   1    -0.12   0.14  -0.10     0.18  -0.28   0.10    -0.10   0.17  -0.03
  22   1     0.01  -0.00   0.00     0.00   0.09   0.05     0.02   0.01   0.01
  23   1     0.02   0.01  -0.01     0.02   0.04   0.01    -0.02   0.07   0.05
  24   1    -0.00   0.01  -0.00     0.05  -0.09  -0.05    -0.01  -0.01   0.02
                     37                     38                     39
                        a                      a                      a 
 Frequencies --  1338.4555              1375.2800              1378.4037
 Red. masses --     3.7916                 3.5457                 3.6448
 Frc consts  --     0.0000                 0.0000                 0.0000
 IR Inten    --     8.9889                76.6857                60.9313
 Raman Activ --     0.0000                 0.0000                 0.0000
 Depolar     --     0.0000                 0.0000                 0.0000
 Atom AN      X      Y      Z        X      Y      Z        X      Y      Z
   1   7     0.05   0.11  -0.04    -0.20   0.01   0.09     0.20   0.04  -0.10
   2   6     0.20  -0.17  -0.11     0.09  -0.12  -0.05     0.01   0.01   0.07
   3   6    -0.15   0.14  -0.03    -0.14   0.21   0.01    -0.12   0.23  -0.06
   4   6    -0.10   0.10  -0.10     0.09  -0.17   0.00     0.06  -0.14  -0.01
   5   6     0.07  -0.07   0.10     0.03  -0.07  -0.02     0.07  -0.13  -0.01
   6   6     0.12  -0.20   0.07    -0.09   0.17  -0.02    -0.12   0.21  -0.02
   7   6    -0.03   0.00  -0.09     0.01  -0.00   0.05     0.02  -0.00   0.05
   8  17     0.00   0.00  -0.00    -0.00   0.00   0.00     0.00  -0.00  -0.00
   9   1    -0.07  -0.08  -0.03     0.19   0.09  -0.05    -0.21  -0.13   0.03
  10   1    -0.09  -0.03   0.04     0.36   0.16   0.03    -0.34  -0.16   0.02
  11   1     0.02  -0.04   0.10     0.25  -0.20  -0.32    -0.21   0.13   0.35
  12   1    -0.17   0.09   0.18    -0.05   0.06   0.08     0.03  -0.11  -0.08
  13   1    -0.25   0.23   0.26    -0.13   0.13   0.11     0.03  -0.03  -0.01
  14   1     0.16  -0.31   0.05     0.15  -0.24   0.01     0.13  -0.23   0.08
  15   1     0.08  -0.10   0.06     0.08  -0.18   0.05     0.13  -0.22   0.06
  16   1     0.09  -0.19   0.03    -0.10   0.15  -0.03    -0.08   0.12  -0.01
  17   1     0.11  -0.16   0.04    -0.10   0.19  -0.04    -0.05   0.15  -0.01
  18   1    -0.08   0.16  -0.03    -0.05   0.08  -0.02    -0.08   0.13  -0.02
  19   1    -0.08   0.11  -0.02    -0.03   0.07  -0.01    -0.07   0.13  -0.03
  20   1    -0.14   0.24  -0.05     0.10  -0.17   0.04     0.12  -0.20   0.04
  21   1    -0.14   0.26  -0.05     0.09  -0.18   0.03     0.11  -0.20   0.05
  22   1     0.03   0.01   0.02    -0.02  -0.02  -0.01    -0.02  -0.04  -0.02
  23   1    -0.03   0.10   0.07     0.02  -0.06  -0.05     0.02  -0.07  -0.05
  24   1    -0.02  -0.01   0.03     0.03  -0.01  -0.03     0.02  -0.00  -0.03
                     40                     41                     42
                        a                      a                      a 
 Frequencies --  1387.6808              1402.9505              1439.0173
 Red. masses --     5.3351                 1.6720                 3.2501
 Frc consts  --     0.0000                 0.0000                 0.0000
 IR Inten    --     0.6161                69.4355                 0.7868
 Raman Activ --     0.0000                 0.0000                 0.0000
 Depolar     --     0.0000                 0.0000                 0.0000
 Atom AN      X      Y      Z        X      Y      Z        X      Y      Z
   1   7    -0.04   0.01   0.02    -0.02   0.15  -0.10    -0.00   0.00  -0.00
   2   6    -0.03   0.04  -0.01    -0.06   0.08   0.02    -0.00   0.00   0.00
   3   6     0.09  -0.17   0.02     0.02  -0.01  -0.00    -0.00   0.01  -0.00
   4   6    -0.17   0.29  -0.08     0.01  -0.04   0.00     0.01  -0.02   0.01
   5   6     0.19  -0.33   0.09    -0.03   0.06  -0.02     0.00  -0.01  -0.02
   6   6    -0.13   0.24  -0.02     0.03  -0.05   0.01    -0.04   0.08  -0.02
   7   6     0.02  -0.02   0.04    -0.00   0.02  -0.00     0.15  -0.39  -0.14
   8  17    -0.00   0.00   0.00    -0.01   0.01  -0.01    -0.00   0.00  -0.00
   9   1    -0.04  -0.04  -0.00    -0.43  -0.31   0.03    -0.01  -0.00   0.00
  10   1     0.10   0.06  -0.03     0.30   0.11   0.08     0.01   0.00   0.01
  11   1     0.08  -0.10  -0.00     0.26  -0.55   0.37     0.01  -0.02   0.01
  12   1     0.00   0.01  -0.01     0.07  -0.06  -0.09     0.00  -0.00  -0.00
  13   1     0.01  -0.02  -0.01     0.05  -0.05  -0.04     0.00  -0.00   0.00
  14   1    -0.08   0.13  -0.02     0.01   0.00  -0.02     0.00  -0.01   0.00
  15   1    -0.06   0.13  -0.03    -0.03  -0.01  -0.03     0.00  -0.00   0.00
  16   1     0.14  -0.25   0.06    -0.04   0.03   0.03    -0.01   0.02  -0.00
  17   1     0.16  -0.27   0.05    -0.00   0.07   0.02    -0.01   0.02  -0.00
  18   1    -0.16   0.29  -0.08     0.03  -0.05   0.02     0.00  -0.01  -0.01
  19   1    -0.18   0.30  -0.07     0.03  -0.06   0.01    -0.00  -0.01  -0.01
  20   1     0.11  -0.18   0.03    -0.02   0.04  -0.02     0.02  -0.07   0.05
  21   1     0.09  -0.19   0.04    -0.02   0.04  -0.01     0.06  -0.05   0.04
  22   1    -0.03  -0.02  -0.02    -0.00  -0.01  -0.00    -0.07   0.50   0.02
  23   1     0.01  -0.04  -0.02    -0.01   0.00   0.00    -0.06   0.36   0.35
  24   1     0.02  -0.00  -0.04     0.01  -0.02   0.00    -0.33   0.38   0.10
                     43                     44                     45
                        a                      a                      a 
 Frequencies --  1449.5930              1485.5283              1492.5261
 Red. masses --     1.9173                 1.8712                 1.9324
 Frc consts  --     0.0000                 0.0000                 0.0000
 IR Inten    --    90.0427                15.8625                 2.9028
 Raman Activ --     0.0000                 0.0000                 0.0000
 Depolar     --     0.0000                 0.0000                 0.0000
 Atom AN      X      Y      Z        X      Y      Z        X      Y      Z
   1   7    -0.04   0.08   0.25     0.00   0.02   0.02     0.02  -0.02  -0.03
   2   6     0.02  -0.01   0.02     0.09   0.22  -0.07    -0.04  -0.12   0.06
   3   6    -0.00  -0.01   0.02     0.02   0.03   0.13     0.03   0.07   0.23
   4   6     0.01  -0.02   0.00     0.00   0.00   0.01    -0.02   0.03  -0.01
   5   6    -0.00   0.01  -0.01    -0.01  -0.01  -0.02     0.00  -0.02  -0.02
   6   6     0.00  -0.00  -0.00     0.00   0.00   0.00     0.00   0.00   0.01
   7   6     0.00  -0.00  -0.00    -0.00  -0.00  -0.00     0.00  -0.00   0.00
   8  17    -0.00   0.00   0.00     0.00   0.00   0.00     0.00  -0.00  -0.00
   9   1     0.20  -0.51  -0.36     0.05  -0.03  -0.05    -0.03   0.04   0.04
  10   1    -0.14   0.16  -0.65    -0.01   0.02  -0.07    -0.03  -0.03   0.06
  11   1     0.01  -0.01   0.05     0.01   0.02  -0.03    -0.04   0.03   0.04
  12   1     0.03   0.08   0.04    -0.44  -0.39  -0.05     0.23   0.21   0.04
  13   1     0.00   0.07  -0.08     0.09  -0.39   0.43    -0.04   0.22  -0.25
  14   1     0.01  -0.00  -0.02     0.14   0.00  -0.31     0.24   0.01  -0.54
  15   1    -0.02   0.01  -0.01    -0.22  -0.14  -0.19    -0.38  -0.29  -0.31
  16   1    -0.01   0.01  -0.00     0.00   0.01  -0.01     0.00  -0.02   0.02
  17   1    -0.03   0.05  -0.00    -0.01  -0.01  -0.00     0.02  -0.00   0.02
  18   1     0.00  -0.00   0.01    -0.02  -0.01   0.04    -0.03   0.00   0.06
  19   1     0.01  -0.02   0.00     0.03   0.02   0.03     0.04   0.04   0.04
  20   1     0.00  -0.00  -0.00     0.00  -0.00  -0.01     0.01   0.00  -0.02
  21   1     0.00  -0.00  -0.00    -0.01  -0.00  -0.01    -0.01  -0.01  -0.01
  22   1     0.00   0.01   0.00     0.00   0.00   0.00    -0.00   0.00  -0.00
  23   1    -0.00   0.00   0.00     0.00  -0.00  -0.00    -0.00   0.01   0.00
  24   1    -0.00   0.00   0.00    -0.00   0.00   0.00    -0.00   0.00  -0.00
                     46                     47                     48
                        a                      a                      a 
 Frequencies --  1510.8940              1513.5960              1516.6496
 Red. masses --     1.5269                 1.6829                 1.8777
 Frc consts  --     0.0000                 0.0000                 0.0000
 IR Inten    --     3.3297                 0.4437                 1.5999
 Raman Activ --     0.0000                 0.0000                 0.0000
 Depolar     --     0.0000                 0.0000                 0.0000
 Atom AN      X      Y      Z        X      Y      Z        X      Y      Z
   1   7     0.00  -0.00  -0.00    -0.00  -0.01   0.00    -0.00  -0.01   0.01
   2   6     0.00  -0.00  -0.00     0.00   0.00  -0.00     0.00   0.01  -0.01
   3   6    -0.00   0.00  -0.00     0.01  -0.02  -0.00     0.01  -0.03  -0.02
   4   6    -0.00   0.00   0.01    -0.02  -0.05  -0.15    -0.04  -0.06  -0.22
   5   6    -0.00  -0.00  -0.01     0.01   0.03   0.08    -0.03   0.00  -0.08
   6   6     0.04   0.01  -0.02    -0.01   0.05   0.05     0.03  -0.02   0.05
   7   6     0.19   0.09  -0.04    -0.03   0.03  -0.14     0.04  -0.02   0.11
   8  17     0.00  -0.00  -0.00     0.00  -0.00   0.00     0.00  -0.00   0.00
   9   1     0.00   0.00   0.00     0.02   0.02  -0.00     0.03   0.02  -0.00
  10   1    -0.01  -0.00   0.00    -0.00  -0.00  -0.00    -0.00   0.00  -0.01
  11   1    -0.01   0.01   0.00    -0.01   0.02  -0.02    -0.01   0.03  -0.03
  12   1    -0.00   0.00   0.00    -0.01  -0.00   0.00    -0.01  -0.00   0.00
  13   1    -0.00   0.00   0.00    -0.00  -0.00   0.01    -0.00  -0.01   0.02
  14   1     0.00  -0.00   0.00    -0.00   0.01  -0.02    -0.02   0.01   0.02
  15   1     0.00  -0.00   0.00    -0.01   0.01  -0.01     0.01   0.03   0.01
  16   1     0.01  -0.00  -0.02    -0.15  -0.02   0.36    -0.21  -0.02   0.49
  17   1    -0.02  -0.01  -0.01     0.24   0.19   0.23     0.33   0.25   0.31
  18   1    -0.02   0.02   0.01     0.09   0.00  -0.18    -0.06  -0.02   0.15
  19   1     0.02  -0.00   0.01    -0.12  -0.11  -0.11     0.11   0.07   0.10
  20   1    -0.02   0.02   0.03     0.09  -0.02  -0.17     0.02   0.02  -0.06
  21   1     0.02  -0.01  -0.00    -0.10  -0.12  -0.11    -0.05  -0.01  -0.04
  22   1    -0.33   0.29  -0.23     0.30   0.18   0.27    -0.25  -0.11  -0.22
  23   1    -0.62  -0.29   0.21    -0.02  -0.19  -0.14    -0.02   0.14   0.13
  24   1     0.18  -0.35   0.20    -0.12  -0.12   0.46     0.10   0.08  -0.34
                     49                     50                     51
                        a                      a                      a 
 Frequencies --  1519.5574              1527.1522              2880.9466
 Red. masses --     1.7867                 2.0062                 1.9987
 Frc consts  --     0.0000                 0.0000                 0.0000
 IR Inten    --     2.4285                 0.0655              1622.9723
 Raman Activ --     0.0000                 0.0000                 0.0000
 Depolar     --     0.0000                 0.0000                 0.0000
 Atom AN      X      Y      Z        X      Y      Z        X      Y      Z
   1   7    -0.00   0.00  -0.00     0.00   0.00  -0.00    -0.20  -0.16  -0.10
   2   6    -0.00  -0.00  -0.00    -0.00  -0.00   0.00     0.03   0.02   0.02
   3   6    -0.00  -0.01  -0.03    -0.00   0.01  -0.00     0.01   0.01  -0.01
   4   6    -0.01   0.02   0.00     0.02   0.01   0.07    -0.00  -0.00  -0.00
   5   6    -0.03  -0.08  -0.23    -0.00   0.04   0.06     0.00   0.00  -0.00
   6   6     0.01   0.01   0.05     0.04   0.07   0.26    -0.01  -0.01   0.00
   7   6    -0.02   0.01  -0.07     0.03  -0.03   0.05     0.00  -0.00   0.00
   8  17    -0.00   0.00  -0.00     0.00  -0.00  -0.00     0.01   0.01   0.00
   9   1    -0.01  -0.00   0.00    -0.01  -0.00   0.00     0.00  -0.03   0.03
  10   1     0.01   0.00   0.00    -0.00  -0.00  -0.00    -0.02   0.02   0.00
  11   1     0.01  -0.01   0.00    -0.00  -0.00   0.01     0.72   0.53   0.30
  12   1     0.00   0.00  -0.00     0.00  -0.00  -0.00    -0.00   0.02  -0.01
  13   1    -0.00   0.00  -0.00     0.00  -0.00  -0.00    -0.10  -0.07  -0.05
  14   1    -0.03  -0.00   0.07     0.00  -0.00   0.00    -0.02  -0.01  -0.01
  15   1     0.05   0.04   0.04     0.00  -0.00   0.00    -0.02  -0.00   0.03
  16   1     0.03  -0.01  -0.05     0.06   0.01  -0.14     0.02   0.02   0.01
  17   1    -0.03  -0.04  -0.04    -0.10  -0.07  -0.09    -0.01   0.00   0.00
  18   1    -0.25  -0.02   0.56     0.06  -0.01  -0.12    -0.00  -0.00  -0.00
  19   1     0.38   0.31   0.36    -0.08  -0.08  -0.07    -0.01  -0.00   0.01
  20   1     0.07   0.00  -0.17     0.25   0.03  -0.57     0.02   0.02   0.01
  21   1    -0.11  -0.09  -0.11    -0.40  -0.30  -0.37     0.01   0.00  -0.02
  22   1     0.15   0.08   0.14    -0.12  -0.02  -0.10    -0.00  -0.00   0.00
  23   1     0.01  -0.07  -0.06    -0.02   0.07   0.08    -0.00   0.00  -0.00
  24   1    -0.07  -0.03   0.21     0.03   0.05  -0.14    -0.00  -0.00  -0.00
                     52                     53                     54
                        a                      a                      a 
 Frequencies --  2899.2443              2906.2121              2924.9882
 Red. masses --     1.9101                 1.9086                 1.9754
 Frc consts  --     0.0000                 0.0000                 0.0000
 IR Inten    --    45.9915                23.2924                80.1128
 Raman Activ --     0.0000                 0.0000                 0.0000
 Depolar     --     0.0000                 0.0000                 0.0000
 Atom AN      X      Y      Z        X      Y      Z        X      Y      Z
   1   7     0.01   0.01   0.00    -0.01  -0.00  -0.00     0.00   0.00   0.00
   2   6     0.00  -0.00   0.00    -0.00   0.00  -0.00    -0.00  -0.00  -0.00
   3   6     0.00   0.00  -0.00    -0.04  -0.02   0.02     0.08   0.03  -0.04
   4   6    -0.00  -0.00   0.00     0.23   0.12  -0.06    -0.08  -0.04   0.02
   5   6     0.07   0.03  -0.03    -0.08  -0.04   0.03    -0.21  -0.10   0.09
   6   6    -0.24  -0.12   0.06    -0.04  -0.02   0.01    -0.07  -0.04   0.01
   7   6     0.01   0.01  -0.00     0.00   0.00  -0.00     0.01   0.01  -0.01
   8  17    -0.00  -0.00  -0.00     0.00   0.00   0.00    -0.00   0.00  -0.00
   9   1    -0.00   0.00  -0.00     0.00  -0.00   0.01    -0.00   0.00  -0.00
  10   1     0.00  -0.00   0.00     0.00  -0.00   0.00     0.00  -0.00  -0.00
  11   1    -0.03  -0.02  -0.01     0.02   0.01   0.01    -0.01  -0.01  -0.00
  12   1    -0.00   0.00  -0.00     0.00  -0.00   0.01    -0.00  -0.00  -0.00
  13   1     0.00   0.00   0.00     0.00  -0.00  -0.00     0.03   0.02   0.01
  14   1    -0.00  -0.00  -0.00     0.10   0.06   0.05    -0.12  -0.08  -0.06
  15   1    -0.00  -0.00   0.00     0.08   0.02  -0.12    -0.16  -0.03   0.22
  16   1     0.01   0.01   0.01    -0.51  -0.34  -0.25     0.16   0.11   0.08
  17   1     0.02   0.00  -0.02    -0.33  -0.09   0.45     0.10   0.03  -0.13
  18   1    -0.15  -0.10  -0.08     0.16   0.11   0.09     0.36   0.24   0.19
  19   1    -0.13  -0.04   0.18     0.14   0.04  -0.19     0.40   0.11  -0.52
  20   1     0.52   0.35   0.26     0.08   0.06   0.04     0.17   0.12   0.08
  21   1     0.35   0.09  -0.48     0.05   0.01  -0.06     0.07   0.02  -0.10
  22   1    -0.03  -0.00   0.04    -0.01  -0.00   0.01    -0.02  -0.01   0.03
  23   1     0.00   0.00  -0.00     0.00   0.00  -0.00     0.00   0.00  -0.00
  24   1    -0.04  -0.03  -0.02    -0.01  -0.00  -0.00    -0.03  -0.02  -0.01
                     55                     56                     57
                        a                      a                      a 
 Frequencies --  2933.7461              2934.4415              2940.4150
 Red. masses --     1.7734                 1.6426                 1.9317
 Frc consts  --     0.0000                 0.0000                 0.0000
 IR Inten    --    28.2120                11.7416                 2.2354
 Raman Activ --     0.0000                 0.0000                 0.0000
 Depolar     --     0.0000                 0.0000                 0.0000
 Atom AN      X      Y      Z        X      Y      Z        X      Y      Z
   1   7    -0.01  -0.00  -0.00    -0.00  -0.00  -0.00    -0.02  -0.02  -0.01
   2   6    -0.05  -0.01  -0.04    -0.05  -0.01  -0.04    -0.20   0.02  -0.18
   3   6     0.16   0.06  -0.10     0.12   0.05  -0.06    -0.05  -0.00   0.07
   4   6     0.07   0.05   0.04     0.04   0.02  -0.03    -0.02  -0.01   0.02
   5   6     0.06   0.03  -0.01     0.02  -0.00  -0.03    -0.02  -0.01  -0.01
   6   6     0.01  -0.02  -0.11     0.02   0.05   0.16    -0.01  -0.01  -0.01
   7   6    -0.00  -0.01   0.01    -0.01   0.01  -0.02     0.00   0.00   0.00
   8  17     0.00   0.00   0.00     0.00   0.00   0.00     0.00   0.00   0.00
   9   1    -0.00   0.00  -0.00    -0.00   0.00   0.00    -0.00   0.00  -0.01
  10   1    -0.00  -0.00  -0.00    -0.00  -0.00  -0.00    -0.00   0.01   0.00
  11   1     0.01   0.01   0.01     0.00   0.01   0.00     0.08   0.06   0.03
  12   1     0.04  -0.06   0.07     0.03  -0.05   0.06     0.25  -0.36   0.49
  13   1     0.17   0.11   0.07     0.15   0.10   0.06     0.45   0.31   0.18
  14   1    -0.22  -0.15  -0.11    -0.20  -0.14  -0.10    -0.06  -0.03  -0.01
  15   1    -0.35  -0.08   0.47    -0.24  -0.05   0.33     0.21   0.05  -0.28
  16   1    -0.27  -0.18  -0.11    -0.03  -0.03  -0.02     0.03   0.02   0.02
  17   1     0.05   0.02  -0.04    -0.10  -0.03   0.13     0.05   0.01  -0.06
  18   1    -0.15  -0.10  -0.07     0.05   0.03   0.02     0.06   0.04   0.03
  19   1    -0.06  -0.01   0.09    -0.10  -0.03   0.12     0.00  -0.00  -0.01
  20   1     0.23   0.15   0.08    -0.42  -0.28  -0.16     0.03   0.02   0.01
  21   1    -0.27  -0.08   0.32     0.36   0.11  -0.42    -0.01  -0.00   0.01
  22   1     0.03   0.01  -0.03    -0.03  -0.01   0.03    -0.00  -0.00   0.00
  23   1    -0.02   0.02  -0.02     0.02  -0.03   0.03    -0.00   0.00  -0.01
  24   1    -0.01  -0.01  -0.00     0.03   0.02   0.01    -0.01  -0.01  -0.00
                     58                     59                     60
                        a                      a                      a 
 Frequencies --  2943.4763              2954.3682              2966.1750
 Red. masses --     1.4852                 1.5574                 1.5516
 Frc consts  --     0.0000                 0.0000                 0.0000
 IR Inten    --    21.1543                55.5907                32.3915
 Raman Activ --     0.0000                 0.0000                 0.0000
 Depolar     --     0.0000                 0.0000                 0.0000
 Atom AN      X      Y      Z        X      Y      Z        X      Y      Z
   1   7     0.00   0.00  -0.00     0.00   0.00   0.00     0.01   0.01   0.01
   2   6    -0.02  -0.01  -0.01     0.02  -0.02   0.03     0.01   0.11  -0.08
   3   6     0.04   0.03   0.01     0.05   0.04   0.04    -0.06  -0.06  -0.13
   4   6     0.01  -0.03  -0.17    -0.00  -0.02  -0.07    -0.01  -0.02  -0.05
   5   6     0.04   0.04   0.07    -0.05  -0.07  -0.16    -0.01  -0.02  -0.04
   6   6     0.00  -0.01  -0.03    -0.01  -0.02  -0.05    -0.00  -0.00  -0.01
   7   6    -0.00  -0.00  -0.00     0.01  -0.01   0.04     0.01  -0.00   0.02
   8  17    -0.00  -0.00   0.00    -0.00  -0.00   0.00    -0.00  -0.00  -0.00
   9   1     0.00  -0.00   0.01     0.00  -0.00   0.01    -0.01   0.01  -0.01
  10   1    -0.00   0.00   0.00    -0.00  -0.00   0.00     0.00  -0.01  -0.00
  11   1    -0.01  -0.00  -0.00    -0.02  -0.01  -0.01    -0.03  -0.02  -0.02
  12   1     0.00  -0.01   0.00    -0.05   0.07  -0.10     0.22  -0.27   0.39
  13   1     0.07   0.04   0.03    -0.00  -0.00   0.00    -0.25  -0.14  -0.12
  14   1    -0.15  -0.10  -0.06    -0.24  -0.16  -0.10     0.45   0.29   0.17
  15   1    -0.01   0.00   0.02     0.06   0.02  -0.06    -0.25  -0.06   0.30
  16   1     0.40   0.26   0.14     0.16   0.10   0.06     0.14   0.09   0.05
  17   1    -0.42  -0.14   0.51    -0.15  -0.05   0.18    -0.11  -0.04   0.13
  18   1    -0.29  -0.20  -0.12     0.50   0.33   0.20     0.13   0.08   0.05
  19   1     0.14   0.04  -0.16    -0.33  -0.10   0.38    -0.09  -0.03   0.10
  20   1     0.07   0.04   0.03     0.13   0.08   0.05     0.03   0.02   0.01
  21   1    -0.08  -0.03   0.09    -0.10  -0.03   0.12    -0.02  -0.01   0.03
  22   1     0.00   0.00  -0.00     0.05   0.01  -0.05     0.03   0.01  -0.03
  23   1    -0.00   0.00  -0.00    -0.04   0.05  -0.06    -0.03   0.03  -0.04
  24   1     0.01   0.00   0.00    -0.05  -0.03  -0.02    -0.03  -0.02  -0.01
                     61                     62                     63
                        a                      a                      a 
 Frequencies --  2970.3840              2982.2713              2986.5048
 Red. masses --     1.5848                 1.8920                 1.9298
 Frc consts  --     0.0000                 0.0000                 0.0000
 IR Inten    --     4.0991                59.0486                50.1743
 Raman Activ --     0.0000                 0.0000                 0.0000
 Depolar     --     0.0000                 0.0000                 0.0000
 Atom AN      X      Y      Z        X      Y      Z        X      Y      Z
   1   7     0.02   0.01   0.01    -0.00  -0.00  -0.00    -0.00   0.00   0.00
   2   6     0.09   0.15  -0.03    -0.00  -0.00  -0.00    -0.00  -0.00  -0.00
   3   6     0.09   0.07   0.08    -0.00  -0.00  -0.01    -0.00  -0.00  -0.00
   4   6     0.02   0.01   0.02    -0.00  -0.00  -0.01    -0.00  -0.00   0.00
   5   6     0.01   0.01   0.02    -0.00  -0.01  -0.02    -0.01  -0.00   0.00
   6   6     0.00   0.00   0.00    -0.00  -0.00  -0.03    -0.03  -0.01   0.01
   7   6    -0.01   0.00  -0.01    -0.08   0.12  -0.24    -0.26  -0.10   0.05
   8  17    -0.00  -0.00  -0.00    -0.00   0.00   0.00    -0.00   0.00   0.00
   9   1    -0.01   0.01  -0.02    -0.00  -0.00   0.00    -0.00  -0.00  -0.00
  10   1     0.00  -0.00  -0.00    -0.00   0.00   0.00     0.00   0.00  -0.00
  11   1    -0.06  -0.04  -0.02     0.00   0.00   0.00     0.00  -0.00   0.00
  12   1     0.19  -0.21   0.33     0.00  -0.00   0.00     0.00  -0.00   0.00
  13   1    -0.50  -0.31  -0.23     0.01   0.01   0.01     0.00   0.00   0.00
  14   1    -0.43  -0.28  -0.17     0.03   0.02   0.01     0.00   0.00   0.00
  15   1     0.12   0.03  -0.13    -0.02  -0.00   0.02     0.00   0.00  -0.00
  16   1    -0.09  -0.06  -0.04     0.02   0.02   0.01     0.01   0.01   0.00
  17   1     0.03   0.01  -0.04    -0.02  -0.01   0.02     0.01   0.00  -0.01
  18   1    -0.06  -0.04  -0.03     0.06   0.04   0.02     0.02   0.01   0.01
  19   1     0.04   0.01  -0.04    -0.05  -0.02   0.06     0.01   0.00  -0.02
  20   1    -0.02  -0.01  -0.01     0.06   0.04   0.02     0.05   0.03   0.02
  21   1     0.01   0.00  -0.01    -0.06  -0.02   0.07     0.03   0.01  -0.04
  22   1    -0.01  -0.00   0.01    -0.24  -0.04   0.24     0.40   0.10  -0.54
  23   1     0.02  -0.03   0.03     0.42  -0.46   0.60     0.04  -0.10   0.12
  24   1     0.02   0.01   0.00     0.11   0.10   0.01     0.49   0.35   0.24
                     64                     65                     66
                        a                      a                      a 
 Frequencies --  3001.7471              3150.9207              3203.1377
 Red. masses --     1.3084                 1.8202                 1.6985
 Frc consts  --     0.0000                 0.0000                 0.0000
 IR Inten    --    34.2181                41.6981                37.2348
 Raman Activ --     0.0000                 0.0000                 0.0000
 Depolar     --     0.0000                 0.0000                 0.0000
 Atom AN      X      Y      Z        X      Y      Z        X      Y      Z
   1   7    -0.00  -0.00  -0.00     0.11  -0.22  -0.04    -0.08   0.09  -0.20
   2   6     0.00  -0.00   0.00     0.00  -0.00  -0.00     0.00   0.01  -0.01
   3   6     0.00   0.00   0.00    -0.00   0.00  -0.00     0.00   0.00  -0.00
   4   6     0.00   0.00   0.00     0.00   0.00  -0.00    -0.00  -0.00   0.00
   5   6     0.00   0.00   0.01    -0.00  -0.00  -0.00    -0.00   0.00   0.00
   6   6     0.00   0.01   0.02     0.00   0.00   0.00    -0.00   0.00   0.00
   7   6    -0.00   0.12   0.11     0.00  -0.00   0.00    -0.00   0.00  -0.00
   8  17     0.00  -0.00   0.00     0.00   0.00  -0.00     0.00   0.00   0.00
   9   1    -0.00   0.00  -0.00    -0.03   0.02  -0.09     0.40  -0.42   0.77
  10   1    -0.00   0.00  -0.00    -0.35   0.86   0.26    -0.05   0.10   0.01
  11   1     0.00   0.00   0.00    -0.02  -0.04  -0.02    -0.05  -0.02  -0.03
  12   1    -0.00   0.00  -0.00    -0.00   0.00  -0.00     0.01  -0.01   0.02
  13   1     0.00   0.00   0.00    -0.00  -0.00  -0.00    -0.01  -0.00  -0.00
  14   1    -0.01  -0.00  -0.00     0.00   0.00   0.00    -0.00  -0.00  -0.00
  15   1     0.00   0.00  -0.01    -0.00  -0.00   0.00    -0.00   0.00   0.00
  16   1    -0.01  -0.00  -0.00    -0.00  -0.00  -0.00    -0.00  -0.00  -0.00
  17   1     0.01   0.00  -0.01    -0.00   0.00   0.00     0.01   0.00  -0.01
  18   1    -0.03  -0.02  -0.01     0.00   0.00   0.00    -0.00  -0.00   0.00
  19   1     0.02   0.01  -0.02    -0.00  -0.00   0.00     0.00  -0.00  -0.00
  20   1    -0.03  -0.02  -0.01    -0.00  -0.00  -0.00    -0.00  -0.00  -0.00
  21   1     0.02   0.01  -0.03     0.00  -0.00  -0.00     0.00   0.00  -0.00
  22   1     0.38   0.11  -0.44     0.00   0.00  -0.00     0.00  -0.00  -0.00
  23   1     0.18  -0.18   0.27    -0.00   0.00  -0.00     0.00  -0.00   0.00
  24   1    -0.55  -0.37  -0.22    -0.00  -0.00  -0.00     0.00  -0.00   0.00
