      -----------------------------------------------------------      
     |                   =====================                   |     
     |                           x T B                           |     
     |                   =====================                   |     
     |                         S. Grimme                         |     
     |          Mulliken Center for Theoretical Chemistry        |     
     |                    University of Bonn                     |     
      -----------------------------------------------------------      

   * xtb version 6.5.1 (fef0646) compiled by 'conda@b96dff2e9fd6' on 2023-01-04

   xtb is free software: you can redistribute it and/or modify it under
   the terms of the GNU Lesser General Public License as published by
   the Free Software Foundation, either version 3 of the License, or
   (at your option) any later version.
   
   xtb is distributed in the hope that it will be useful,
   but WITHOUT ANY WARRANTY; without even the implied warranty of
   MERCHANTABILITY or FITNESS FOR A PARTICULAR PURPOSE.  See the
   GNU Lesser General Public License for more details.
   
   Cite this work as:
   * C. Bannwarth, E. Caldeweyher, S. Ehlert, A. Hansen, P. Pracht,
     J. Seibert, S. Spicher, S. Grimme, WIREs Comput. Mol. Sci., 2020, 11,
     e01493. DOI: 10.1002/wcms.1493
   
   for GFN2-xTB:
   * C. Bannwarth, S. Ehlert and S. Grimme., J. Chem. Theory Comput., 2019,
     15, 1652-1671. DOI: 10.1021/acs.jctc.8b01176
   for GFN1-xTB:
   * S. Grimme, C. Bannwarth, P. Shushkov, J. Chem. Theory Comput., 2017,
     13, 1989-2009. DOI: 10.1021/acs.jctc.7b00118
   for GFN0-xTB:
   * P. Pracht, E. Caldeweyher, S. Ehlert, S. Grimme, ChemRxiv, 2019, preprint.
     DOI: 10.26434/chemrxiv.8326202.v1
   for GFN-FF:
   * S. Spicher and S. Grimme, Angew. Chem. Int. Ed., 2020, 59, 15665-15673.
     DOI: 10.1002/anie.202004239
   
   for ALPB and GBSA implicit solvation:
   * S. Ehlert, M. Stahn, S. Spicher, S. Grimme, J. Chem. Theory Comput.,
     2021, 17, 4250-4261. DOI: 10.1021/acs.jctc.1c00471
   
   for DFT-D4:
   * E. Caldeweyher, C. Bannwarth and S. Grimme, J. Chem. Phys., 2017,
     147, 034112. DOI: 10.1063/1.4993215
   * E. Caldeweyher, S. Ehlert, A. Hansen, H. Neugebauer, S. Spicher,
     C. Bannwarth and S. Grimme, J. Chem. Phys., 2019, 150, 154122.
     DOI: 10.1063/1.5090222
   * E. Caldeweyher, J.-M. Mewes, S. Ehlert and S. Grimme, Phys. Chem. Chem. Phys.
     2020, 22, 8499-8512. DOI: 10.1039/D0CP00502A
   
   for sTDA-xTB:
   * S. Grimme and C. Bannwarth, J. Chem. Phys., 2016, 145, 054103.
     DOI: 10.1063/1.4959605
   
   in the mass-spec context:
   * V. Asgeirsson, C. Bauer and S. Grimme, Chem. Sci., 2017, 8, 4879.
     DOI: 10.1039/c7sc00601b
   * J. Koopman and S. Grimme, ACS Omega 2019, 4, 12, 15120-15133.
     DOI: 10.1021/acsomega.9b02011
   
   for metadynamics refer to:
   * S. Grimme, J. Chem. Theory Comput., 2019, 155, 2847-2862
     DOI: 10.1021/acs.jctc.9b00143
   
   for SPH calculations refer to:
   * S. Spicher and S. Grimme, J. Chem. Theory Comput., 2021, 17, 1701-1714
     DOI: 10.1021/acs.jctc.0c01306
   
   with help from (in alphabetical order)
   P. Atkinson, C. Bannwarth, F. Bohle, G. Brandenburg, E. Caldeweyher
   M. Checinski, S. Dohm, S. Ehlert, S. Ehrlich, I. Gerasimov, C. Hölzer
   A. Katbashev, J. Koopman, C. Lavigne, S. Lehtola, F. März, M. Müller,
   F. Musil, H. Neugebauer, J. Pisarek, C. Plett, P. Pracht, F. Pultar,
   J. Seibert, P. Shushkov, S. Spicher, M. Stahn, M. Steiner, T. Strunk,
   J. Stückrath, T. Rose, and J. Unsleber
   
 * started run on 2023/01/24 at 14:56:56.541     

           -------------------------------------------------
          |                Calculation Setup                |
           -------------------------------------------------

          program call               : xtb init.xyz --opt -c 1 -u 0 -P 16 --alpb water
          hostname                   : gpg-woodward
          coordinate file            : init.xyz
          omp threads                :                    16

   ID    Z sym.   atoms
    1    7 N      1, 24, 26
    2    6 C      2-21, 23, 27
    3   16 S      22, 25, 28, 29
    4    1 H      30-49

           -------------------------------------------------
          |                 G F N 2 - x T B                 |
           -------------------------------------------------

        Reference                      10.1021/acs.jctc.8b01176
      * Hamiltonian:
        H0-scaling (s, p, d)           1.850000    2.230000    2.230000
        zeta-weighting                 0.500000
      * Dispersion:
        s8                             2.700000
        a1                             0.520000
        a2                             5.000000
        s9                             5.000000
      * Repulsion:
        kExp                           1.500000    1.000000
        rExp                           1.000000
      * Coulomb:
        alpha                          2.000000
        third order                    shell-resolved
        anisotropic                    true
        a3                             3.000000
        a5                             4.000000
        cn-shift                       1.200000
        cn-exp                         4.000000
        max-rad                        5.000000

      * Solvation model:               ALPB
        Solvent                        water
        Parameter file                 internal GFN2-xTB/ALPB
        Dielectric constant                8.0200E+01
        Reference state                gsolv [1 M gas/solution]
        Free energy shift                  1.0808E-03 Eh       6.7819E-01 kcal/mol
        Temperature                        2.9815E+02 K
        Density                            1.0000E+00 kg/L
        Solvent mass                       1.8000E+01 g/mol
        Interaction kernel             P16
        Born radius scaling (c1)           1.4744E+00
        Born radii integrator          GBOBC
        Born offset                        0.0000E+00 a0       0.0000E+00 AA
        H-bond correction              true
        Ion screening                  false
        Surface tension                    1.0000E-05 Eh       1.5569E+01 dyn/cm
        Grid points                               230 per atom

          ...................................................
          :                      SETUP                      :
          :.................................................:
          :  # basis functions                 160          :
          :  # atomic orbitals                 156          :
          :  # shells                           82          :
          :  # electrons                       146          :
          :  max. iterations                   250          :
          :  Hamiltonian                  GFN2-xTB          :
          :  restarted?                      false          :
          :  GBSA solvation                   true          :
          :  PC potential                    false          :
          :  electronic temp.          300.0000000     K    :
          :  accuracy                    1.0000000          :
          :  -> integral cutoff          0.2500000E+02      :
          :  -> integral neglect         0.1000000E-07      :
          :  -> SCF convergence          0.1000000E-05 Eh   :
          :  -> wf. convergence          0.1000000E-03 e    :
          :  Broyden damping             0.4000000          :
          ...................................................

 iter      E             dE          RMSdq      gap      omega  full diag
   1    -79.6449601 -0.796450E+02  0.387E+00    1.40       0.0  T
   2    -79.7619647 -0.117005E+00  0.233E+00    1.34       1.0  T
   3    -79.7625256 -0.560934E-03  0.129E+00    1.29       1.0  T
   4    -79.7859021 -0.233765E-01  0.546E-01    1.29       1.0  T
   5    -79.7895004 -0.359828E-02  0.269E-01    1.26       1.0  T
   6    -79.7907993 -0.129892E-02  0.138E-01    1.26       1.0  T
   7    -79.7908894 -0.901239E-04  0.558E-02    1.26       1.0  T
   8    -79.7909095 -0.200447E-04  0.307E-02    1.25       1.0  T
   9    -79.7909199 -0.103853E-04  0.145E-02    1.25       1.0  T
  10    -79.7909218 -0.196775E-05  0.730E-03    1.25       2.0  T
  11    -79.7909227 -0.859919E-06  0.355E-03    1.25       4.0  T
  12    -79.7909229 -0.179483E-06  0.107E-03    1.25      13.3  T
  13    -79.7909229 -0.146328E-07  0.588E-04    1.25      24.3  T
  14    -79.7909229 -0.117180E-08  0.338E-04    1.25      42.3  T

   *** convergence criteria satisfied after 14 iterations ***

         #    Occupation            Energy/Eh            Energy/eV
      -------------------------------------------------------------
         1        2.0000           -0.7641381             -20.7933
       ...           ...                  ...                  ...
        67        2.0000           -0.4148861             -11.2896
        68        2.0000           -0.4055203             -11.0348
        69        2.0000           -0.4018147             -10.9339
        70        2.0000           -0.3956581             -10.7664
        71        2.0000           -0.3925546             -10.6820
        72        2.0000           -0.3832932             -10.4299
        73        2.0000           -0.3664977              -9.9729 (HOMO)
        74                         -0.3205940              -8.7238 (LUMO)
        75                         -0.2755591              -7.4983
        76                         -0.2560066              -6.9663
        77                         -0.2397914              -6.5251
        78                         -0.2335020              -6.3539
       ...                                ...                  ...
       156                          0.6943632              18.8946
      -------------------------------------------------------------
                  HL-Gap            0.0459037 Eh            1.2491 eV
             Fermi-level           -0.3435458 Eh           -9.3484 eV

 SCC (total)                   0 d,  0 h,  0 min,  0.366 sec
 SCC setup                      ...        0 min,  0.001 sec (  0.241%)
 Dispersion                     ...        0 min,  0.001 sec (  0.358%)
 classical contributions        ...        0 min,  0.000 sec (  0.023%)
 integral evaluation            ...        0 min,  0.006 sec (  1.706%)
 iterations                     ...        0 min,  0.343 sec ( 93.680%)
 molecular gradient             ...        0 min,  0.012 sec (  3.329%)
 printout                       ...        0 min,  0.002 sec (  0.561%)

         :::::::::::::::::::::::::::::::::::::::::::::::::::::
         ::                     SUMMARY                     ::
         :::::::::::::::::::::::::::::::::::::::::::::::::::::
         :: total energy             -78.723950382604 Eh    ::
         :: total w/o Gsasa/hb       -78.713805478053 Eh    ::
         :: gradient norm              0.099556969365 Eh/a0 ::
         :: HOMO-LUMO gap              1.249103194834 eV    ::
         ::.................................................::
         :: SCC energy               -79.790922893629 Eh    ::
         :: -> isotropic ES            0.156957761917 Eh    ::
         :: -> anisotropic ES         -0.025662561301 Eh    ::
         :: -> anisotropic XC          0.044114229096 Eh    ::
         :: -> dispersion             -0.063875478857 Eh    ::
         :: -> Gsolv                  -0.128235331738 Eh    ::
         ::    -> Gelec               -0.118090427187 Eh    ::
         ::    -> Gsasa                0.000193839538 Eh    ::
         ::    -> Ghb                 -0.011419503787 Eh    ::
         ::    -> Gshift               0.001080759698 Eh    ::
         :: repulsion energy           1.067394032731 Eh    ::
         :: add. restraining           0.000000000000 Eh    ::
         :: total charge               1.000000000000 e     ::
         :::::::::::::::::::::::::::::::::::::::::::::::::::::

      ----------------------------------------------------------- 
     |                   =====================                   |
     |                        A N C O P T                        |
     |                   =====================                   |
     |               Approximate Normal Coordinate               |
     |                Rational Function Optimizer                |
      ----------------------------------------------------------- 

          ...................................................
          :                      SETUP                      :
          :.................................................:
          :   optimization level            normal          :
          :   max. optcycles                   200          :
          :   ANC micro-cycles                  20          :
          :   degrees of freedom               141          :
          :.................................................:
          :   RF solver                   davidson          :
          :   write xtbopt.log                true          :
          :   linear?                        false          :
          :   energy convergence         0.5000000E-05 Eh   :
          :   grad. convergence          0.1000000E-02 Eh/α :
          :   maximium RF displ.         1.0000000          :
          :   Hlow (freq-cutoff)         0.1000000E-01      :
          :   Hmax (freq-cutoff)         5.0000000          :
          :   S6 in model hess.         20.0000000          :
          ...................................................

generating ANC from model Hessian ...
Using Lindh-Hessian (1995)
 Shifting diagonal of input Hessian by    9.9067372135333721E-003
 Lowest  eigenvalues of input Hessian
    0.000000    0.000000    0.000000    0.000000    0.000000    0.000000
    0.010000    0.010220    0.010281    0.010551    0.010570    0.011124
    0.011628    0.011942    0.012597    0.013178    0.014251    0.014794
 Highest eigenvalues
    1.813841    1.823603    1.836901    1.924795    1.940706    1.972055


........................................................................
.............................. CYCLE    1 ..............................
........................................................................
   1    -79.7909229 -0.797909E+02  0.127E-04    1.25       0.0  T
   2    -79.7909229 -0.947722E-10  0.923E-05    1.25     154.7  T
   3    -79.7909229 -0.574261E-10  0.667E-05    1.25     214.2  T
     SCC iter.                  ...        0 min,  0.056 sec
     gradient                   ...        0 min,  0.011 sec
 * total energy  :   -78.7239504 Eh     change       -0.2030717E-08 Eh
   gradient norm :     0.0995575 Eh/α   predicted     0.0000000E+00 (-100.00%)
   displ. norm   :     0.3991469 α      lambda       -0.2155874E-01
   maximum displ.:     0.1734077 α      in ANC's #28, #14, #27, ...

........................................................................
.............................. CYCLE    2 ..............................
........................................................................
   1    -79.8562183 -0.798562E+02  0.206E-01    1.31       0.0  T
   2    -79.8563433 -0.125057E-03  0.122E-01    1.31       1.0  T
   3    -79.8563114  0.318747E-04  0.523E-02    1.30       1.0  T
   4    -79.8563792 -0.677198E-04  0.215E-02    1.30       1.0  T
   5    -79.8563845 -0.529783E-05  0.882E-03    1.30       1.6  T
   6    -79.8563855 -0.108638E-05  0.475E-03    1.30       3.0  T
   7    -79.8563858 -0.243214E-06  0.242E-03    1.30       5.9  T
   8    -79.8563858 -0.216879E-07  0.111E-03    1.30      12.8  T
   9    -79.8563858 -0.162031E-07  0.535E-04    1.30      26.7  T
  10    -79.8563858 -0.328197E-08  0.251E-04    1.30      56.9  T
     SCC iter.                  ...        0 min,  0.157 sec
     gradient                   ...        0 min,  0.013 sec
 * total energy  :   -78.7393766 Eh     change       -0.1542618E-01 Eh
   gradient norm :     0.0502641 Eh/α   predicted    -0.1249674E-01 ( -18.99%)
   displ. norm   :     0.4179714 α      lambda       -0.8773512E-02
   maximum displ.:     0.2040012 α      in ANC's #14, #28, #27, ...

........................................................................
.............................. CYCLE    3 ..............................
........................................................................
   1    -79.8974352 -0.798974E+02  0.166E-01    1.34       0.0  T
   2    -79.8975252 -0.900105E-04  0.953E-02    1.34       1.0  T
   3    -79.8975091  0.160566E-04  0.410E-02    1.33       1.0  T
   4    -79.8975443 -0.351713E-04  0.194E-02    1.33       1.0  T
   5    -79.8975500 -0.567724E-05  0.687E-03    1.33       2.1  T
   6    -79.8975508 -0.782597E-06  0.355E-03    1.33       4.0  T
   7    -79.8975509 -0.138091E-06  0.199E-03    1.33       7.2  T
   8    -79.8975509 -0.136885E-07  0.873E-04    1.33      16.4  T
   9    -79.8975509 -0.621731E-08  0.409E-04    1.33      34.9  T
     SCC iter.                  ...        0 min,  0.188 sec
     gradient                   ...        0 min,  0.013 sec
 * total energy  :   -78.7446408 Eh     change       -0.5264263E-02 Eh
   gradient norm :     0.0201128 Eh/α   predicted    -0.5153122E-02 (  -2.11%)
   displ. norm   :     0.3144086 α      lambda       -0.2003960E-02
   maximum displ.:     0.1823683 α      in ANC's #14, #18, #5, ...

........................................................................
.............................. CYCLE    4 ..............................
........................................................................
   1    -79.9033545 -0.799034E+02  0.993E-02    1.32       0.0  T
   2    -79.9033717 -0.172767E-04  0.544E-02    1.32       1.0  T
   3    -79.9033652  0.653924E-05  0.210E-02    1.31       1.0  T
   4    -79.9033752 -0.100232E-04  0.876E-03    1.31       1.6  T
   5    -79.9033763 -0.112605E-05  0.358E-03    1.31       4.0  T
   6    -79.9033766 -0.291638E-06  0.130E-03    1.31      11.0  T
   7    -79.9033766 -0.132509E-07  0.732E-04    1.31      19.5  T
   8    -79.9033766 -0.127601E-08  0.408E-04    1.31      35.0  T
     SCC iter.                  ...        0 min,  0.160 sec
     gradient                   ...        0 min,  0.013 sec
 * total energy  :   -78.7461102 Eh     change       -0.1469376E-02 Eh
   gradient norm :     0.0124822 Eh/α   predicted    -0.1101170E-02 ( -25.06%)
   displ. norm   :     0.4015069 α      lambda       -0.1506189E-02
   maximum displ.:     0.2157107 α      in ANC's #14, #4, #5, ...

........................................................................
.............................. CYCLE    5 ..............................
........................................................................
   1    -79.9033031 -0.799033E+02  0.106E-01    1.29       0.0  T
   2    -79.9033190 -0.159247E-04  0.584E-02    1.29       1.0  T
   3    -79.9033117  0.737075E-05  0.211E-02    1.29       1.0  T
   4    -79.9033226 -0.109530E-04  0.790E-03    1.29       1.8  T
   5    -79.9033233 -0.720383E-06  0.339E-03    1.29       4.2  T
   6    -79.9033236 -0.303332E-06  0.122E-03    1.29      11.8  T
   7    -79.9033236 -0.126057E-07  0.643E-04    1.29      22.2  T
   8    -79.9033236 -0.102025E-08  0.406E-04    1.29      35.2  T
     SCC iter.                  ...        0 min,  0.157 sec
     gradient                   ...        0 min,  0.013 sec
 * total energy  :   -78.7471417 Eh     change       -0.1031503E-02 Eh
   gradient norm :     0.0101128 Eh/α   predicted    -0.8744995E-03 ( -15.22%)
   displ. norm   :     0.3521669 α      lambda       -0.7595993E-03
   maximum displ.:     0.1706040 α      in ANC's #4, #5, #14, ...

........................................................................
.............................. CYCLE    6 ..............................
........................................................................
   1    -79.9023537 -0.799024E+02  0.774E-02    1.27       0.0  T
   2    -79.9023589 -0.518050E-05  0.427E-02    1.27       1.0  T
   3    -79.9023566  0.235363E-05  0.120E-02    1.27       1.2  T
   4    -79.9023599 -0.329423E-05  0.489E-03    1.27       2.9  T
   5    -79.9023602 -0.342759E-06  0.160E-03    1.27       8.9  T
   6    -79.9023602 -0.388054E-07  0.774E-04    1.27      18.5  T
   7    -79.9023602 -0.778277E-08  0.418E-04    1.27      34.2  T
     SCC iter.                  ...        0 min,  0.136 sec
     gradient                   ...        0 min,  0.012 sec
 * total energy  :   -78.7477211 Eh     change       -0.5794291E-03 Eh
   gradient norm :     0.0113272 Eh/α   predicted    -0.4269041E-03 ( -26.32%)
   displ. norm   :     0.3842074 α      lambda       -0.7277776E-03
   maximum displ.:     0.2158682 α      in ANC's #4, #5, #18, ...

........................................................................
.............................. CYCLE    7 ..............................
........................................................................
   1    -79.9028712 -0.799029E+02  0.791E-02    1.26       0.0  T
   2    -79.9028749 -0.374616E-05  0.440E-02    1.26       1.0  T
   3    -79.9028738  0.115452E-05  0.988E-03    1.26       1.4  T
   4    -79.9028753 -0.155472E-05  0.500E-03    1.26       2.9  T
   5    -79.9028758 -0.486302E-06  0.159E-03    1.26       9.0  T
   6    -79.9028758 -0.235839E-07  0.747E-04    1.26      19.1  T
   7    -79.9028758 -0.955171E-08  0.424E-04    1.26      33.7  T
     SCC iter.                  ...        0 min,  0.137 sec
     gradient                   ...        0 min,  0.013 sec
 * total energy  :   -78.7482895 Eh     change       -0.5683612E-03 Eh
   gradient norm :     0.0098552 Eh/α   predicted    -0.4176045E-03 ( -26.52%)
   displ. norm   :     0.3976608 α      lambda       -0.6295022E-03
   maximum displ.:     0.2491044 α      in ANC's #4, #5, #16, ...

........................................................................
.............................. CYCLE    8 ..............................
........................................................................
   1    -79.9046061 -0.799046E+02  0.792E-02    1.25       0.0  T
   2    -79.9046102 -0.406087E-05  0.439E-02    1.25       1.0  T
   3    -79.9046084  0.176882E-05  0.109E-02    1.26       1.3  T
   4    -79.9046108 -0.239523E-05  0.495E-03    1.26       2.9  T
   5    -79.9046112 -0.403828E-06  0.187E-03    1.26       7.6  T
   6    -79.9046113 -0.613056E-07  0.745E-04    1.26      19.2  T
   7    -79.9046113 -0.788687E-08  0.406E-04    1.26      35.2  T
     SCC iter.                  ...        0 min,  0.107 sec
     gradient                   ...        0 min,  0.011 sec
 * total energy  :   -78.7487646 Eh     change       -0.4750743E-03 Eh
   gradient norm :     0.0071196 Eh/α   predicted    -0.3645239E-03 ( -23.27%)
   displ. norm   :     0.3660542 α      lambda       -0.4091143E-03
   maximum displ.:     0.2475207 α      in ANC's #4, #5, #16, ...

........................................................................
.............................. CYCLE    9 ..............................
........................................................................
   1    -79.9061650 -0.799062E+02  0.683E-02    1.25       0.0  T
   2    -79.9061680 -0.304087E-05  0.379E-02    1.25       1.0  T
   3    -79.9061663  0.167638E-05  0.986E-03    1.26       1.4  T
   4    -79.9061687 -0.233202E-05  0.392E-03    1.26       3.6  T
   5    -79.9061688 -0.196066E-06  0.160E-03    1.25       8.9  T
   6    -79.9061689 -0.526708E-07  0.611E-04    1.25      23.4  T
   7    -79.9061689 -0.461264E-08  0.312E-04    1.25      45.7  T
     SCC iter.                  ...        0 min,  0.115 sec
     gradient                   ...        0 min,  0.013 sec
 * total energy  :   -78.7490830 Eh     change       -0.3184733E-03 Eh
   gradient norm :     0.0057136 Eh/α   predicted    -0.2319674E-03 ( -27.16%)
   displ. norm   :     0.3379112 α      lambda       -0.3126125E-03
   maximum displ.:     0.2422234 α      in ANC's #4, #5, #16, ...

........................................................................
.............................. CYCLE   10 ..............................
........................................................................
   1    -79.9076617 -0.799077E+02  0.612E-02    1.26       0.0  T
   2    -79.9076641 -0.237949E-05  0.340E-02    1.25       1.0  T
   3    -79.9076630  0.110646E-05  0.836E-03    1.26       1.7  T
   4    -79.9076645 -0.156406E-05  0.337E-03    1.26       4.2  T
   5    -79.9076647 -0.162584E-06  0.125E-03    1.26      11.4  T
   6    -79.9076647 -0.262319E-07  0.522E-04    1.26      27.4  T
   7    -79.9076647 -0.440622E-08  0.239E-04    1.26      59.7  T
     SCC iter.                  ...        0 min,  0.136 sec
     gradient                   ...        0 min,  0.012 sec
 * total energy  :   -78.7493318 Eh     change       -0.2487294E-03 Eh
   gradient norm :     0.0054050 Eh/α   predicted    -0.1741550E-03 ( -29.98%)
   displ. norm   :     0.3548894 α      lambda       -0.2713239E-03
   maximum displ.:     0.2547383 α      in ANC's #4, #5, #16, ...

........................................................................
.............................. CYCLE   11 ..............................
........................................................................
   1    -79.9065185 -0.799065E+02  0.607E-02    1.26       0.0  T
   2    -79.9065203 -0.174394E-05  0.344E-02    1.26       1.0  T
   3    -79.9065195  0.791325E-06  0.702E-03    1.26       2.0  T
   4    -79.9065206 -0.114235E-05  0.302E-03    1.26       4.7  T
   5    -79.9065207 -0.142194E-06  0.105E-03    1.26      13.6  T
   6    -79.9065208 -0.159038E-07  0.436E-04    1.26      32.8  T
   7    -79.9065208 -0.394502E-08  0.194E-04    1.26      73.8  T
     SCC iter.                  ...        0 min,  0.140 sec
     gradient                   ...        0 min,  0.012 sec
 * total energy  :   -78.7495342 Eh     change       -0.2024552E-03 Eh
   gradient norm :     0.0056146 Eh/α   predicted    -0.1527526E-03 ( -24.55%)
   displ. norm   :     0.3281228 α      lambda       -0.2799377E-03
   maximum displ.:     0.2458081 α      in ANC's #4, #5, #7, ...

........................................................................
.............................. CYCLE   12 ..............................
........................................................................
   1    -79.9085210 -0.799085E+02  0.574E-02    1.26       0.0  T
   2    -79.9085233 -0.229627E-05  0.326E-02    1.26       1.0  T
   3    -79.9085225  0.790974E-06  0.679E-03    1.26       2.1  T
   4    -79.9085236 -0.106898E-05  0.324E-03    1.26       4.4  T
   5    -79.9085238 -0.239144E-06  0.110E-03    1.26      13.0  T
   6    -79.9085238 -0.840366E-08  0.447E-04    1.26      32.0  T
   7    -79.9085238 -0.416991E-08  0.195E-04    1.26      73.1  T
     SCC iter.                  ...        0 min,  0.139 sec
     gradient                   ...        0 min,  0.013 sec
 * total energy  :   -78.7497127 Eh     change       -0.1784591E-03 Eh
   gradient norm :     0.0068709 Eh/α   predicted    -0.1550393E-03 ( -13.12%)
   displ. norm   :     0.3057203 α      lambda       -0.1926317E-03
   maximum displ.:     0.2292682 α      in ANC's #4, #5, #7, ...

........................................................................
.............................. CYCLE   13 ..............................
........................................................................
   1    -79.9068073 -0.799068E+02  0.490E-02    1.26       0.0  T
   2    -79.9068084 -0.112857E-05  0.281E-02    1.26       1.0  T
   3    -79.9068076  0.779497E-06  0.572E-03    1.25       2.5  T
   4    -79.9068087 -0.103133E-05  0.253E-03    1.25       5.7  T
   5    -79.9068088 -0.118130E-06  0.876E-04    1.26      16.3  T
   6    -79.9068088 -0.963439E-08  0.370E-04    1.26      38.6  T
     SCC iter.                  ...        0 min,  0.118 sec
     gradient                   ...        0 min,  0.013 sec
 * total energy  :   -78.7498690 Eh     change       -0.1563060E-03 Eh
   gradient norm :     0.0052905 Eh/α   predicted    -0.1053204E-03 ( -32.62%)
   displ. norm   :     0.3071052 α      lambda       -0.2089469E-03
   maximum displ.:     0.2312093 α      in ANC's #4, #5, #7, ...

........................................................................
.............................. CYCLE   14 ..............................
........................................................................
   1    -79.9071310 -0.799071E+02  0.514E-02    1.26       0.0  T
   2    -79.9071326 -0.157771E-05  0.289E-02    1.26       1.0  T
   3    -79.9071315  0.108378E-05  0.725E-03    1.25       2.0  T
   4    -79.9071330 -0.143991E-05  0.303E-03    1.25       4.7  T
   5    -79.9071331 -0.150814E-06  0.107E-03    1.25      13.4  T
   6    -79.9071331 -0.174911E-07  0.512E-04    1.25      27.9  T
   7    -79.9071331 -0.236288E-08  0.255E-04    1.25      56.1  T
     SCC iter.                  ...        0 min,  0.138 sec
     gradient                   ...        0 min,  0.013 sec
 * total energy  :   -78.7500358 Eh     change       -0.1667803E-03 Eh
   gradient norm :     0.0043057 Eh/α   predicted    -0.1143311E-03 ( -31.45%)
   displ. norm   :     0.3871124 α      lambda       -0.2293603E-03
   maximum displ.:     0.2825868 α      in ANC's #4, #7, #5, ...

........................................................................
.............................. CYCLE   15 ..............................
........................................................................
   1    -79.9058050 -0.799058E+02  0.683E-02    1.25       0.0  T
   2    -79.9058077 -0.272880E-05  0.384E-02    1.25       1.0  T
   3    -79.9058063  0.142855E-05  0.908E-03    1.25       1.6  T
   4    -79.9058083 -0.205497E-05  0.374E-03    1.25       3.8  T
   5    -79.9058086 -0.214315E-06  0.135E-03    1.25      10.6  T
   6    -79.9058086 -0.249506E-07  0.670E-04    1.25      21.3  T
   7    -79.9058086 -0.371854E-08  0.351E-04    1.25      40.7  T
     SCC iter.                  ...        0 min,  0.135 sec
     gradient                   ...        0 min,  0.013 sec
 * total energy  :   -78.7501996 Eh     change       -0.1638349E-03 Eh
   gradient norm :     0.0059144 Eh/α   predicted    -0.1318678E-03 ( -19.51%)
   displ. norm   :     0.3805547 α      lambda       -0.2304442E-03
   maximum displ.:     0.2691408 α      in ANC's #4, #7, #8, ...

........................................................................
.............................. CYCLE   16 ..............................
........................................................................
   1    -79.9078320 -0.799078E+02  0.726E-02    1.25       0.0  T
   2    -79.9078351 -0.314421E-05  0.407E-02    1.25       1.0  T
   3    -79.9078333  0.175718E-05  0.995E-03    1.25       1.4  T
   4    -79.9078358 -0.251001E-05  0.388E-03    1.25       3.7  T
   5    -79.9078361 -0.212725E-06  0.148E-03    1.25       9.6  T
   6    -79.9078361 -0.309081E-07  0.736E-04    1.25      19.4  T
   7    -79.9078361 -0.489555E-08  0.395E-04    1.25      36.1  T
     SCC iter.                  ...        0 min,  0.140 sec
     gradient                   ...        0 min,  0.013 sec
 * total energy  :   -78.7503403 Eh     change       -0.1406466E-03 Eh
   gradient norm :     0.0071827 Eh/α   predicted    -0.1319105E-03 (  -6.21%)
   displ. norm   :     0.2539949 α      lambda       -0.1498280E-03
   maximum displ.:     0.1647708 α      in ANC's #4, #6, #7, ...

........................................................................
.............................. CYCLE   17 ..............................
........................................................................
   1    -79.9085895 -0.799086E+02  0.507E-02    1.25       0.0  T
   2    -79.9085910 -0.148039E-05  0.286E-02    1.25       1.0  T
   3    -79.9085902  0.807001E-06  0.655E-03    1.25       2.2  T
   4    -79.9085913 -0.114537E-05  0.273E-03    1.25       5.2  T
   5    -79.9085914 -0.112904E-06  0.116E-03    1.25      12.3  T
   6    -79.9085915 -0.255585E-07  0.543E-04    1.25      26.3  T
   7    -79.9085915 -0.256280E-08  0.324E-04    1.25      44.1  T
     SCC iter.                  ...        0 min,  0.134 sec
     gradient                   ...        0 min,  0.013 sec
 * total energy  :   -78.7504528 Eh     change       -0.1125473E-03 Eh
   gradient norm :     0.0063034 Eh/α   predicted    -0.7975224E-04 ( -29.14%)
   displ. norm   :     0.4245657 α      lambda       -0.2142451E-03
   maximum displ.:     0.2775522 α      in ANC's #4, #6, #7, ...

........................................................................
.............................. CYCLE   18 ..............................
........................................................................
   1    -79.9069934 -0.799070E+02  0.853E-02    1.25       0.0  T
   2    -79.9069973 -0.386395E-05  0.479E-02    1.24       1.0  T
   3    -79.9069952  0.207061E-05  0.105E-02    1.25       1.4  T
   4    -79.9069983 -0.309951E-05  0.438E-03    1.25       3.3  T
   5    -79.9069986 -0.295281E-06  0.188E-03    1.25       7.6  T
   6    -79.9069987 -0.628196E-07  0.925E-04    1.25      15.5  T
   7    -79.9069987 -0.935262E-08  0.513E-04    1.25      27.8  T
     SCC iter.                  ...        0 min,  0.138 sec
     gradient                   ...        0 min,  0.013 sec
 * total energy  :   -78.7505890 Eh     change       -0.1361882E-03 Eh
   gradient norm :     0.0059183 Eh/α   predicted    -0.1264335E-03 (  -7.16%)
   displ. norm   :     0.2715012 α      lambda       -0.2287491E-03
   maximum displ.:     0.1433714 α      in ANC's #6, #2, #1, ...

........................................................................
.............................. CYCLE   19 ..............................
........................................................................
   1    -79.9114443 -0.799114E+02  0.626E-02    1.24       0.0  T
   2    -79.9114488 -0.449693E-05  0.338E-02    1.24       1.0  T
   3    -79.9114470  0.178955E-05  0.104E-02    1.24       1.4  T
   4    -79.9114495 -0.246768E-05  0.439E-03    1.24       3.3  T
   5    -79.9114498 -0.363139E-06  0.164E-03    1.24       8.7  T
   6    -79.9114499 -0.396137E-07  0.802E-04    1.24      17.8  T
   7    -79.9114499 -0.999856E-08  0.409E-04    1.24      34.9  T
     SCC iter.                  ...        0 min,  0.134 sec
     gradient                   ...        0 min,  0.013 sec
 * total energy  :   -78.7506894 Eh     change       -0.1004430E-03 Eh
   gradient norm :     0.0060285 Eh/α   predicted    -0.1228067E-03 (  22.27%)
   displ. norm   :     0.2627275 α      lambda       -0.1223586E-03
   maximum displ.:     0.1758281 α      in ANC's #4, #6, #7, ...

........................................................................
.............................. CYCLE   20 ..............................
........................................................................
   1    -79.9089167 -0.799089E+02  0.503E-02    1.24       0.0  T
   2    -79.9089181 -0.135709E-05  0.282E-02    1.24       1.0  T
   3    -79.9089181  0.159493E-08  0.438E-03    1.24       3.3  T
   4    -79.9089183 -0.240752E-06  0.227E-03    1.24       6.3  T
   5    -79.9089184 -0.909832E-07  0.974E-04    1.24      14.7  T
   6    -79.9089184 -0.106939E-07  0.461E-04    1.24      31.0  T
     SCC iter.                  ...        0 min,  0.117 sec
     gradient                   ...        0 min,  0.013 sec
 * total energy  :   -78.7507757 Eh     change       -0.8621838E-04 Eh
   gradient norm :     0.0054470 Eh/α   predicted    -0.6540323E-04 ( -24.14%)
   displ. norm   :     0.2234586 α      lambda       -0.1564052E-03
   maximum displ.:     0.1103285 α      in ANC's #4, #6, #2, ...
 * RMSD in coord.:     0.7240904 α      energy gain  -0.2682527E-01 Eh

generating ANC from model Hessian ...
Using Lindh-Hessian (1995)
 Shifting diagonal of input Hessian by    9.8840884131607288E-003
 Lowest  eigenvalues of input Hessian
    0.000000    0.000000    0.000000    0.000000    0.000000    0.000000
    0.010000    0.010269    0.010318    0.010593    0.010707    0.011282
    0.011575    0.012436    0.012814    0.013788    0.014728    0.015197
 Highest eigenvalues
    1.905083    1.933766    1.952151    2.014151    2.099738    2.179495


........................................................................
.............................. CYCLE   21 ..............................
........................................................................
   1    -79.9075810 -0.799076E+02  0.452E-02    1.24       0.0  T
   2    -79.9075822 -0.117191E-05  0.257E-02    1.24       1.0  T
   3    -79.9075807  0.149001E-05  0.740E-03    1.24       1.9  T
   4    -79.9075825 -0.185715E-05  0.240E-03    1.24       6.0  T
   5    -79.9075826 -0.920813E-07  0.893E-04    1.24      16.0  T
   6    -79.9075826 -0.682687E-08  0.417E-04    1.24      34.3  T
     SCC iter.                  ...        0 min,  0.117 sec
     gradient                   ...        0 min,  0.012 sec
 * total energy  :   -78.7508812 Eh     change       -0.1055347E-03 Eh
   gradient norm :     0.0049762 Eh/α   predicted     0.0000000E+00 (-100.00%)
   displ. norm   :     0.0477139 α      lambda       -0.7045537E-04
   maximum displ.:     0.0206605 α      in ANC's #5, #7, #4, ...

........................................................................
.............................. CYCLE   22 ..............................
........................................................................
   1    -79.9086962 -0.799087E+02  0.145E-02    1.24       0.0  T
   2    -79.9086965 -0.267344E-06  0.816E-03    1.24       1.7  T
   3    -79.9086963  0.180182E-06  0.283E-03    1.24       5.1  T
   4    -79.9086966 -0.227732E-06  0.103E-03    1.24      13.9  T
   5    -79.9086966 -0.228379E-07  0.380E-04    1.24      37.6  T
   6    -79.9086966 -0.138549E-08  0.176E-04    1.24      81.1  T
     SCC iter.                  ...        0 min,  0.117 sec
     gradient                   ...        0 min,  0.013 sec
 * total energy  :   -78.7509352 Eh     change       -0.5402067E-04 Eh
   gradient norm :     0.0023057 Eh/α   predicted    -0.3588476E-04 ( -33.57%)
   displ. norm   :     0.1044164 α      lambda       -0.7113427E-04
   maximum displ.:     0.0473449 α      in ANC's #5, #7, #4, ...

........................................................................
.............................. CYCLE   23 ..............................
........................................................................
   1    -79.9094931 -0.799095E+02  0.241E-02    1.24       0.0  T
   2    -79.9094937 -0.567993E-06  0.134E-02    1.24       1.1  T
   3    -79.9094933  0.444772E-06  0.439E-03    1.24       3.3  T
   4    -79.9094938 -0.553032E-06  0.161E-03    1.24       8.9  T
   5    -79.9094939 -0.553724E-07  0.566E-04    1.24      25.2  T
   6    -79.9094939 -0.402876E-08  0.242E-04    1.24      58.9  T
     SCC iter.                  ...        0 min,  0.118 sec
     gradient                   ...        0 min,  0.012 sec
 * total energy  :   -78.7509849 Eh     change       -0.4964854E-04 Eh
   gradient norm :     0.0018693 Eh/α   predicted    -0.3595534E-04 ( -27.58%)
   displ. norm   :     0.1941247 α      lambda       -0.5103372E-04
   maximum displ.:     0.0845144 α      in ANC's #5, #4, #7, ...

........................................................................
.............................. CYCLE   24 ..............................
........................................................................
   1    -79.9092998 -0.799093E+02  0.396E-02    1.24       0.0  T
   2    -79.9093007 -0.952039E-06  0.222E-02    1.24       1.0  T
   3    -79.9093000  0.763226E-06  0.570E-03    1.24       2.5  T
   4    -79.9093009 -0.939127E-06  0.231E-03    1.24       6.2  T
   5    -79.9093010 -0.110194E-06  0.824E-04    1.24      17.3  T
   6    -79.9093010 -0.100731E-07  0.343E-04    1.24      41.6  T
     SCC iter.                  ...        0 min,  0.118 sec
     gradient                   ...        0 min,  0.011 sec
 * total energy  :   -78.7510388 Eh     change       -0.5391357E-04 Eh
   gradient norm :     0.0037966 Eh/α   predicted    -0.2598151E-04 ( -51.81%)
   displ. norm   :     0.1455235 α      lambda       -0.5179924E-04
   maximum displ.:     0.0639039 α      in ANC's #4, #5, #2, ...

........................................................................
.............................. CYCLE   25 ..............................
........................................................................
   1    -79.9087183 -0.799087E+02  0.275E-02    1.24       0.0  T
   2    -79.9087185 -0.266786E-06  0.156E-02    1.24       1.0  T
   3    -79.9087183  0.276154E-06  0.358E-03    1.24       4.0  T
   4    -79.9087186 -0.364955E-06  0.135E-03    1.24      10.6  T
   5    -79.9087186 -0.190522E-07  0.502E-04    1.24      28.5  T
   6    -79.9087187 -0.423822E-08  0.242E-04    1.24      59.1  T
     SCC iter.                  ...        0 min,  0.114 sec
     gradient                   ...        0 min,  0.011 sec
 * total energy  :   -78.7510829 Eh     change       -0.4411386E-04 Eh
   gradient norm :     0.0033007 Eh/α   predicted    -0.2644866E-04 ( -40.04%)
   displ. norm   :     0.2610734 α      lambda       -0.8031229E-04
   maximum displ.:     0.1214956 α      in ANC's #4, #5, #2, ...

........................................................................
.............................. CYCLE   26 ..............................
........................................................................
   1    -79.9076552 -0.799077E+02  0.476E-02    1.23       0.0  T
   2    -79.9076559 -0.751770E-06  0.271E-02    1.23       1.0  T
   3    -79.9076549  0.101623E-05  0.675E-03    1.23       2.1  T
   4    -79.9076563 -0.133237E-05  0.228E-03    1.23       6.3  T
   5    -79.9076563 -0.300361E-07  0.852E-04    1.23      16.8  T
   6    -79.9076563 -0.120711E-07  0.448E-04    1.23      31.9  T
     SCC iter.                  ...        0 min,  0.116 sec
     gradient                   ...        0 min,  0.012 sec
 * total energy  :   -78.7511391 Eh     change       -0.5625271E-04 Eh
   gradient norm :     0.0027921 Eh/α   predicted    -0.4289741E-04 ( -23.74%)
   displ. norm   :     0.1625906 α      lambda       -0.4006254E-04
   maximum displ.:     0.0834341 α      in ANC's #4, #2, #5, ...

........................................................................
.............................. CYCLE   27 ..............................
........................................................................
   1    -79.9076143 -0.799076E+02  0.278E-02    1.23       0.0  T
   2    -79.9076146 -0.289815E-06  0.158E-02    1.23       1.0  T
   3    -79.9076142  0.440416E-06  0.443E-03    1.23       3.2  T
   4    -79.9076147 -0.568201E-06  0.142E-03    1.23      10.1  T
   5    -79.9076147 -0.130221E-07  0.572E-04    1.23      25.0  T
   6    -79.9076147 -0.429694E-08  0.316E-04    1.23      45.2  T
     SCC iter.                  ...        0 min,  0.115 sec
     gradient                   ...        0 min,  0.011 sec
 * total energy  :   -78.7511718 Eh     change       -0.3265498E-04 Eh
   gradient norm :     0.0026456 Eh/α   predicted    -0.2057993E-04 ( -36.98%)
   displ. norm   :     0.1866202 α      lambda       -0.5966355E-04
   maximum displ.:     0.1021534 α      in ANC's #4, #2, #3, ...

........................................................................
.............................. CYCLE   28 ..............................
........................................................................
   1    -79.9084145 -0.799084E+02  0.304E-02    1.23       0.0  T
   2    -79.9084150 -0.520428E-06  0.170E-02    1.23       1.0  T
   3    -79.9084144  0.623161E-06  0.541E-03    1.23       2.6  T
   4    -79.9084152 -0.810932E-06  0.178E-03    1.23       8.0  T
   5    -79.9084152 -0.339170E-07  0.710E-04    1.23      20.1  T
   6    -79.9084152 -0.571330E-08  0.379E-04    1.23      37.7  T
     SCC iter.                  ...        0 min,  0.114 sec
     gradient                   ...        0 min,  0.013 sec
 * total energy  :   -78.7512194 Eh     change       -0.4764122E-04 Eh
   gradient norm :     0.0024004 Eh/α   predicted    -0.3087092E-04 ( -35.20%)
   displ. norm   :     0.2371226 α      lambda       -0.6218622E-04
   maximum displ.:     0.1331259 α      in ANC's #4, #2, #3, ...

........................................................................
.............................. CYCLE   29 ..............................
........................................................................
   1    -79.9089287 -0.799089E+02  0.370E-02    1.22       0.0  T
   2    -79.9089294 -0.638956E-06  0.209E-02    1.22       1.0  T
   3    -79.9089288  0.582250E-06  0.544E-03    1.23       2.6  T
   4    -79.9089296 -0.792025E-06  0.211E-03    1.23       6.8  T
   5    -79.9089296 -0.530810E-07  0.829E-04    1.23      17.2  T
   6    -79.9089297 -0.688595E-08  0.462E-04    1.23      30.9  T
     SCC iter.                  ...        0 min,  0.116 sec
     gradient                   ...        0 min,  0.013 sec
 * total energy  :   -78.7512667 Eh     change       -0.4728545E-04 Eh
   gradient norm :     0.0028709 Eh/α   predicted    -0.3284222E-04 ( -30.54%)
   displ. norm   :     0.2320185 α      lambda       -0.4747017E-04
   maximum displ.:     0.1323307 α      in ANC's #4, #2, #1, ...

........................................................................
.............................. CYCLE   30 ..............................
........................................................................
   1    -79.9090086 -0.799090E+02  0.349E-02    1.22       0.0  T
   2    -79.9090090 -0.396834E-06  0.199E-02    1.22       1.0  T
   3    -79.9090088  0.156818E-06  0.350E-03    1.22       4.1  T
   4    -79.9090091 -0.283833E-06  0.183E-03    1.22       7.8  T
   5    -79.9090091 -0.449261E-07  0.709E-04    1.22      20.1  T
   6    -79.9090091 -0.451250E-08  0.414E-04    1.22      34.5  T
     SCC iter.                  ...        0 min,  0.115 sec
     gradient                   ...        0 min,  0.013 sec
 * total energy  :   -78.7513053 Eh     change       -0.3854368E-04 Eh
   gradient norm :     0.0029337 Eh/α   predicted    -0.2501624E-04 ( -35.10%)
   displ. norm   :     0.2567016 α      lambda       -0.4917789E-04
   maximum displ.:     0.1474800 α      in ANC's #4, #1, #3, ...

........................................................................
.............................. CYCLE   31 ..............................
........................................................................
   1    -79.9088913 -0.799089E+02  0.384E-02    1.22       0.0  T
   2    -79.9088917 -0.435748E-06  0.220E-02    1.22       1.0  T
   3    -79.9088916  0.749059E-07  0.311E-03    1.22       4.6  T
   4    -79.9088918 -0.206621E-06  0.190E-03    1.22       7.5  T
   5    -79.9088919 -0.598176E-07  0.725E-04    1.22      19.7  T
   6    -79.9088919 -0.392346E-08  0.401E-04    1.22      35.7  T
     SCC iter.                  ...        0 min,  0.116 sec
     gradient                   ...        0 min,  0.013 sec
 * total energy  :   -78.7513453 Eh     change       -0.3998850E-04 Eh
   gradient norm :     0.0024070 Eh/α   predicted    -0.2621103E-04 ( -34.45%)
   displ. norm   :     0.2559416 α      lambda       -0.4486279E-04
   maximum displ.:     0.1481426 α      in ANC's #4, #1, #3, ...

........................................................................
.............................. CYCLE   32 ..............................
........................................................................
   1    -79.9087723 -0.799088E+02  0.387E-02    1.22       0.0  T
   2    -79.9087729 -0.541944E-06  0.221E-02    1.22       1.0  T
   3    -79.9087727  0.140409E-06  0.342E-03    1.22       4.2  T
   4    -79.9087730 -0.287093E-06  0.187E-03    1.22       7.6  T
   5    -79.9087731 -0.593048E-07  0.787E-04    1.22      18.2  T
   6    -79.9087731 -0.507747E-08  0.410E-04    1.22      34.8  T
     SCC iter.                  ...        0 min,  0.117 sec
     gradient                   ...        0 min,  0.012 sec
 * total energy  :   -78.7513791 Eh     change       -0.3388136E-04 Eh
   gradient norm :     0.0017149 Eh/α   predicted    -0.2390265E-04 ( -29.45%)
   displ. norm   :     0.2994614 α      lambda       -0.2961781E-04
   maximum displ.:     0.1726916 α      in ANC's #4, #1, #3, ...

........................................................................
.............................. CYCLE   33 ..............................
........................................................................
   1    -79.9087697 -0.799088E+02  0.469E-02    1.22       0.0  T
   2    -79.9087707 -0.959057E-06  0.266E-02    1.22       1.0  T
   3    -79.9087704  0.258021E-06  0.442E-03    1.22       3.2  T
   4    -79.9087709 -0.480590E-06  0.222E-03    1.22       6.4  T
   5    -79.9087710 -0.900278E-07  0.925E-04    1.22      15.4  T
   6    -79.9087710 -0.952019E-08  0.470E-04    1.22      30.4  T
     SCC iter.                  ...        0 min,  0.115 sec
     gradient                   ...        0 min,  0.013 sec
 * total energy  :   -78.7514071 Eh     change       -0.2794924E-04 Eh
   gradient norm :     0.0017692 Eh/α   predicted    -0.1539966E-04 ( -44.90%)
   displ. norm   :     0.1130918 α      lambda       -0.1325328E-04
   maximum displ.:     0.0616210 α      in ANC's #1, #4, #3, ...

........................................................................
.............................. CYCLE   34 ..............................
........................................................................
   1    -79.9091787 -0.799092E+02  0.199E-02    1.22       0.0  T
   2    -79.9091788 -0.139157E-06  0.113E-02    1.22       1.3  T
   3    -79.9091788  0.229508E-07  0.167E-03    1.22       8.6  T
   4    -79.9091788 -0.567868E-07  0.846E-04    1.22      16.9  T
   5    -79.9091789 -0.105032E-07  0.327E-04    1.22      43.8  T
     SCC iter.                  ...        0 min,  0.097 sec
     gradient                   ...        0 min,  0.013 sec
 * total energy  :   -78.7514232 Eh     change       -0.1616393E-04 Eh
   gradient norm :     0.0014541 Eh/α   predicted    -0.6666562E-05 ( -58.76%)
   displ. norm   :     0.2222822 α      lambda       -0.2271667E-04
   maximum displ.:     0.1194183 α      in ANC's #1, #4, #3, ...

........................................................................
.............................. CYCLE   35 ..............................
........................................................................
   1    -79.9085720 -0.799086E+02  0.423E-02    1.22       0.0  T
   2    -79.9085725 -0.483981E-06  0.241E-02    1.22       1.0  T
   3    -79.9085722  0.226573E-06  0.392E-03    1.22       3.6  T
   4    -79.9085726 -0.375533E-06  0.170E-03    1.22       8.4  T
   5    -79.9085726 -0.336435E-07  0.533E-04    1.22      26.8  T
   6    -79.9085727 -0.554657E-08  0.233E-04    1.22      61.4  T
     SCC iter.                  ...        0 min,  0.118 sec
     gradient                   ...        0 min,  0.013 sec
 * total energy  :   -78.7514469 Eh     change       -0.2368098E-04 Eh
   gradient norm :     0.0016944 Eh/α   predicted    -0.1161028E-04 ( -50.97%)
   displ. norm   :     0.1982521 α      lambda       -0.2238616E-04
   maximum displ.:     0.1118569 α      in ANC's #1, #3, #6, ...

........................................................................
.............................. CYCLE   36 ..............................
........................................................................
   1    -79.9097864 -0.799098E+02  0.401E-02    1.22       0.0  T
   2    -79.9097868 -0.471951E-06  0.229E-02    1.22       1.0  T
   3    -79.9097867  0.119832E-06  0.340E-03    1.22       4.2  T
   4    -79.9097869 -0.212306E-06  0.159E-03    1.22       9.0  T
   5    -79.9097870 -0.343752E-07  0.601E-04    1.22      23.8  T
   6    -79.9097870 -0.855447E-08  0.203E-04    1.22      70.2  T
     SCC iter.                  ...        0 min,  0.120 sec
     gradient                   ...        0 min,  0.014 sec
 * total energy  :   -78.7514651 Eh     change       -0.1814462E-04 Eh
   gradient norm :     0.0023355 Eh/α   predicted    -0.1139236E-04 ( -37.21%)
   displ. norm   :     0.1122877 α      lambda       -0.1425991E-04
   maximum displ.:     0.0653540 α      in ANC's #1, #3, #4, ...

........................................................................
.............................. CYCLE   37 ..............................
........................................................................
   1    -79.9092786 -0.799093E+02  0.215E-02    1.22       0.0  T
   2    -79.9092788 -0.142615E-06  0.122E-02    1.22       1.2  T
   3    -79.9092788  0.142202E-07  0.166E-03    1.22       8.6  T
   4    -79.9092788 -0.439727E-07  0.847E-04    1.22      16.9  T
   5    -79.9092788 -0.115741E-07  0.307E-04    1.22      46.6  T
     SCC iter.                  ...        0 min,  0.096 sec
     gradient                   ...        0 min,  0.014 sec
 * total energy  :   -78.7514765 Eh     change       -0.1144722E-04 Eh
   gradient norm :     0.0015507 Eh/α   predicted    -0.7222930E-05 ( -36.90%)
   displ. norm   :     0.1827024 α      lambda       -0.1649388E-04
   maximum displ.:     0.1106825 α      in ANC's #1, #3, #4, ...

........................................................................
.............................. CYCLE   38 ..............................
........................................................................
   1    -79.9086847 -0.799087E+02  0.354E-02    1.22       0.0  T
   2    -79.9086852 -0.443370E-06  0.201E-02    1.22       1.0  T
   3    -79.9086849  0.221786E-06  0.365E-03    1.22       3.9  T
   4    -79.9086853 -0.333713E-06  0.162E-03    1.22       8.8  T
   5    -79.9086853 -0.324556E-07  0.558E-04    1.22      25.6  T
   6    -79.9086853 -0.575437E-08  0.268E-04    1.22      53.4  T
     SCC iter.                  ...        0 min,  0.117 sec
     gradient                   ...        0 min,  0.014 sec
 * total energy  :   -78.7514923 Eh     change       -0.1576569E-04 Eh
   gradient norm :     0.0010029 Eh/α   predicted    -0.8370904E-05 ( -46.90%)
   displ. norm   :     0.0892328 α      lambda       -0.8067729E-05
   maximum displ.:     0.0542324 α      in ANC's #1, #5, #3, ...

........................................................................
.............................. CYCLE   39 ..............................
........................................................................
   1    -79.9088854 -0.799089E+02  0.169E-02    1.22       0.0  T
   2    -79.9088855 -0.949363E-07  0.966E-03    1.22       1.5  T
   3    -79.9088854  0.167044E-06  0.252E-03    1.22       5.7  T
   4    -79.9088856 -0.201934E-06  0.878E-04    1.22      16.3  T
   5    -79.9088856 -0.809746E-08  0.314E-04    1.22      45.5  T
     SCC iter.                  ...        0 min,  0.102 sec
     gradient                   ...        0 min,  0.014 sec
 * total energy  :   -78.7515018 Eh     change       -0.9469264E-05 Eh
   gradient norm :     0.0010214 Eh/α   predicted    -0.4050081E-05 ( -57.23%)
   displ. norm   :     0.1344275 α      lambda       -0.1087320E-04
   maximum displ.:     0.0822014 α      in ANC's #1, #5, #3, ...

........................................................................
.............................. CYCLE   40 ..............................
........................................................................
   1    -79.9090640 -0.799091E+02  0.243E-02    1.22       0.0  T
   2    -79.9090641 -0.158238E-06  0.139E-02    1.22       1.0  T
   3    -79.9090639  0.232777E-06  0.309E-03    1.22       4.6  T
   4    -79.9090642 -0.286131E-06  0.122E-03    1.22      11.7  T
   5    -79.9090642 -0.165273E-07  0.362E-04    1.22      39.4  T
   6    -79.9090642 -0.260872E-08  0.179E-04    1.22      79.9  T
     SCC iter.                  ...        0 min,  0.120 sec
     gradient                   ...        0 min,  0.013 sec
 * total energy  :   -78.7515138 Eh     change       -0.1208352E-04 Eh
   gradient norm :     0.0011976 Eh/α   predicted    -0.5484007E-05 ( -54.62%)
   displ. norm   :     0.1469205 α      lambda       -0.9573525E-05
   maximum displ.:     0.0928879 α      in ANC's #1, #3, #5, ...

........................................................................
.............................. CYCLE   41 ..............................
........................................................................
   1    -79.9091654 -0.799092E+02  0.257E-02    1.22       0.0  T
   2    -79.9091655 -0.148046E-06  0.147E-02    1.22       1.0  T
   3    -79.9091654  0.172443E-06  0.283E-03    1.22       5.0  T
   4    -79.9091656 -0.214693E-06  0.129E-03    1.22      11.1  T
   5    -79.9091656 -0.222425E-07  0.364E-04    1.22      39.3  T
   6    -79.9091656 -0.325554E-08  0.176E-04    1.22      81.1  T
     SCC iter.                  ...        0 min,  0.119 sec
     gradient                   ...        0 min,  0.014 sec
 * total energy  :   -78.7515243 Eh     change       -0.1046935E-04 Eh
   gradient norm :     0.0010166 Eh/α   predicted    -0.4833825E-05 ( -53.83%)
   displ. norm   :     0.1312286 α      lambda       -0.7587387E-05
   maximum displ.:     0.0873061 α      in ANC's #1, #3, #2, ...

........................................................................
.............................. CYCLE   42 ..............................
........................................................................
   1    -79.9092486 -0.799092E+02  0.224E-02    1.22       0.0  T
   2    -79.9092488 -0.161664E-06  0.127E-02    1.22       1.1  T
   3    -79.9092487  0.523801E-07  0.208E-03    1.22       6.9  T
   4    -79.9092488 -0.781613E-07  0.108E-03    1.22      13.2  T
   5    -79.9092488 -0.214545E-07  0.355E-04    1.22      40.2  T
   6    -79.9092488 -0.322051E-08  0.137E-04    1.22     104.1  T
     SCC iter.                  ...        0 min,  0.121 sec
     gradient                   ...        0 min,  0.014 sec
 * total energy  :   -78.7515329 Eh     change       -0.8636982E-05 Eh
   gradient norm :     0.0007157 Eh/α   predicted    -0.3827029E-05 ( -55.69%)
   displ. norm   :     0.1065742 α      lambda       -0.6357102E-05
   maximum displ.:     0.0737553 α      in ANC's #1, #3, #2, ...
 * RMSD in coord.:     0.4559880 α      energy gain  -0.7572900E-03 Eh

generating ANC from model Hessian ...
Using Lindh-Hessian (1995)
 Shifting diagonal of input Hessian by    9.8836391452865220E-003
 Lowest  eigenvalues of input Hessian
    0.000000    0.000000    0.000000    0.000000    0.000000    0.000000
    0.010000    0.010283    0.010298    0.010617    0.010787    0.011248
    0.011496    0.012478    0.012900    0.013794    0.014729    0.015312
 Highest eigenvalues
    1.905553    1.933062    1.952343    2.018208    2.099554    2.178566


........................................................................
.............................. CYCLE   43 ..............................
........................................................................
   1    -79.9093873 -0.799094E+02  0.179E-02    1.22       0.0  T
   2    -79.9093875 -0.102826E-06  0.101E-02    1.22       1.4  T
   3    -79.9093874  0.230035E-07  0.158E-03    1.22       9.0  T
   4    -79.9093875 -0.400059E-07  0.804E-04    1.22      17.8  T
   5    -79.9093875 -0.119461E-07  0.283E-04    1.22      50.6  T
     SCC iter.                  ...        0 min,  0.098 sec
     gradient                   ...        0 min,  0.013 sec
 * total energy  :   -78.7515406 Eh     change       -0.7616712E-05 Eh
   gradient norm :     0.0005633 Eh/α   predicted     0.0000000E+00 (-100.00%)
   displ. norm   :     0.0198490 α      lambda       -0.2398293E-05
   maximum displ.:     0.0098868 α      in ANC's #1, #5, #8, ...

........................................................................
.............................. CYCLE   44 ..............................
........................................................................
   1    -79.9094256 -0.799094E+02  0.349E-03    1.22       0.0  T
   2    -79.9094256 -0.782404E-08  0.198E-03    1.22       7.2  T
   3    -79.9094256  0.933477E-08  0.604E-04    1.22      23.6  T
   4    -79.9094256 -0.120477E-07  0.194E-04    1.22      73.6  T
     SCC iter.                  ...        0 min,  0.077 sec
     gradient                   ...        0 min,  0.014 sec
 * total energy  :   -78.7515438 Eh     change       -0.3198799E-05 Eh
   gradient norm :     0.0002612 Eh/α   predicted    -0.1223352E-05 ( -61.76%)
   displ. norm   :     0.0718246 α      lambda       -0.6609701E-05
   maximum displ.:     0.0357219 α      in ANC's #1, #5, #8, ...

   *** GEOMETRY OPTIMIZATION CONVERGED AFTER 44 ITERATIONS ***

------------------------------------------------------------------------
 total energy gain   :        -0.0275934 Eh      -17.3151 kcal/mol
 total RMSD          :         1.0531035 a0        0.5573 Å
 total power (kW/mol):        -1.6465092 (step)  -11.3031 (real)
------------------------------------------------------------------------

 ANCopt (total)                0 d,  0 h,  0 min,  6.409 sec
 optimizer setup                ...        0 min,  0.000 sec (  0.003%)
 model hessian                  ...        0 min,  0.031 sec (  0.487%)
 ANC generation                 ...        0 min,  0.038 sec (  0.591%)
 coordinate transformation      ...        0 min,  0.003 sec (  0.049%)
 single point calculation       ...        0 min,  6.312 sec ( 98.485%)
 optimization log               ...        0 min,  0.008 sec (  0.120%)
 hessian update                 ...        0 min,  0.003 sec (  0.044%)
 rational function              ...        0 min,  0.008 sec (  0.121%)

================
 final structure:
================
49
 xtb: 6.5.1 (fef0646)
N            3.47906882241961       -1.11689926045710       -0.80256295882423
C            2.74781839351175       -0.29147744250110        0.18274789697312
C            3.52398513809593       -0.20959670547410        1.49994847702107
C            4.75750057132382        0.62093409528637        1.38264709315005
C            5.00449897040956        1.85181243914033        1.91110409660871
C            6.27370966671166        2.36251788573086        1.57994392150545
C            7.01557653686535        1.52363468470795        0.78926966251386
C            8.31718640548229        1.71823653674549        0.24721450743508
C            9.06534125830556        0.84726226902624       -0.50543040940351
C           10.31256828151739        1.36038574252054       -0.90016143504775
C           11.28324586385595        0.53574774928622       -1.67936550966982
C           10.51820690841267        2.64975447149616       -0.44373268749889
C           11.62081514969085        3.55076462350082       -0.64823167585810
C           12.49332564458665        3.48887502086141       -1.72265180824836
C           13.54244577297218        4.39290333222872       -1.90549571712848
C           13.79853045854238        5.44336952764978       -1.04084098796889
C           14.86799253382622        6.39343924242504       -1.22562856388330
C           15.46321122285396        6.83948973907096       -2.38564457672238
C           15.07154590371268        6.46968918859276       -3.77868406105999
C           16.49672361994827        7.77026798773635       -2.12552635741466
C           16.67948902900200        8.02130043603676       -0.80457756678328
S           15.57637683724309        7.14894826079309        0.17903142056060
C           12.93508937847572        5.53898976745819        0.08044111562463
N           12.97695367344889        6.45382657709679        1.05041952149117
S           11.78912682020436        6.17172578932455        2.09462775261186
N           11.15422359372120        4.87976539995298        1.37052834944214
C           11.85380780299923        4.61174207381758        0.26695320554387
S            9.17330797028216        3.21154907224135        0.51317496354210
S            6.13649021966514        0.07010919277276        0.46406272064438
H            2.98609347810491       -1.14063370129301       -1.70112922921330
H            3.58817055813717       -2.07564724994064       -0.45372797809086
H            4.42382687857470       -0.72958198734295       -0.94475399839711
H            1.77161678522998       -0.73590859482231        0.37137578769612
H            2.60763096935880        0.71109418162937       -0.21983079323429
H            3.78938620204220       -1.21296806648571        1.83422643862008
H            2.88456671912534        0.23997803172333        2.25842092553808
H            4.30330751585700        2.38758155110654        2.52496119870077
H            6.65102819402942        3.31649516903974        1.90435889244234
H            8.73369405348691       -0.14247816947718       -0.76758733543835
H           11.07591184611537       -0.51896992526290       -1.51769234101541
H           12.30577451499900        0.74427964248597       -1.37321683672181
H           11.19115052523824        0.73726017221141       -2.74631378690680
H           12.35323728426833        2.73026644913889       -2.47270153629141
H           14.18968741676806        4.24597294487941       -2.75298513263187
H           14.00356373413743        6.27681735883502       -3.84516199913295
H           15.60965518073263        5.58035819972461       -4.10607841175140
H           15.32803444621134        7.28205521688497       -4.45409067180231
H           17.07703107567593        8.23204790123893       -2.90398068453827
H           17.38977017381031        8.67585317864931       -0.34132289699200

 Bond Distances (Angstroems)
 ---------------------------
N1-C2=1.4788         N1-H30=1.0252        N1-H31=1.0261        N1-H32=1.0309        C2-N1=1.4788         C2-C3=1.5311         
C2-H33=1.0891        C2-H34=1.0894        C3-C2=1.5311         C3-C4=1.4917         C3-H35=1.0904        C3-H36=1.0892        
C4-C3=1.4917         C4-C5=1.3621         C4-S29=1.7461        C5-C4=1.3621         C5-C6=1.4076         C5-H37=1.0750        
C6-C5=1.4076         C6-C7=1.3709         C6-H38=1.0760        C7-C6=1.3709         C7-C8=1.4233         C7-S29=1.7295        
C8-C7=1.4233         C8-C9=1.3729         C8-S28=1.7417        C9-C8=1.3729         C9-C10=1.4052        C9-H39=1.0762        
C10-C9=1.4052        C10-C11=1.4931       C10-C12=1.3831       C11-C10=1.4931       C11-H40=1.0870       C11-H41=1.0876       
C11-H42=1.0897       C12-C10=1.3831       C12-C13=1.4385       C12-S28=1.7436       C13-C12=1.4385       C13-C14=1.3855       
C13-C27=1.4204       C14-C13=1.3855       C14-C15=1.3969       C14-H43=1.0760       C15-C14=1.3969       C15-C16=1.3844       
C15-H44=1.0765       C16-C15=1.3844       C16-C17=1.4424       C16-C23=1.4184       C17-C16=1.4424       C17-C18=1.3780       
C17-S22=1.7452       C18-C17=1.3780       C18-C19=1.4936       C18-C20=1.4150       C19-C18=1.4936       C19-H45=1.0873       
C19-H46=1.0898       C19-H47=1.0872       C20-C18=1.4150       C20-C21=1.3570       C20-H48=1.0752       C21-C20=1.3570       
C21-S22=1.7162       C21-H49=1.0712       S22-C17=1.7452       S22-C21=1.7162       C23-C16=1.4184       C23-N24=1.3340       
C23-C27=1.4366       N24-C23=1.3340       N24-S25=1.6065       S25-N24=1.6065       S25-N26=1.6114       N26-S25=1.6114       
N26-C27=1.3338       C27-C13=1.4204       C27-C23=1.4366       C27-N26=1.3338       S28-C8=1.7417        S28-C12=1.7436       
S29-C4=1.7461        S29-C7=1.7295        H30-N1=1.0252        H31-N1=1.0261        H32-N1=1.0309        H33-C2=1.0891        
H34-C2=1.0894        H35-C3=1.0904        H36-C3=1.0892        H37-C5=1.0750        H38-C6=1.0760        H39-C9=1.0762        
H40-C11=1.0870       H41-C11=1.0876       H42-C11=1.0897       H43-C14=1.0760       H44-C15=1.0765       H45-C19=1.0873       
H46-C19=1.0898       H47-C19=1.0872       H48-C20=1.0752       H49-C21=1.0712       
 C  H  Rav=1.0831 sigma=0.0068  Rmin=1.0712  Rmax=1.0904    17
 C  C  Rav=1.4185 sigma=0.0466  Rmin=1.3570  Rmax=1.5311    22
 N  H  Rav=1.0274 sigma=0.0025  Rmin=1.0252  Rmax=1.0309     3
 N  C  Rav=1.3822 sigma=0.0683  Rmin=1.3338  Rmax=1.4788     3
 S  C  Rav=1.7371 sigma=0.0108  Rmin=1.7162  Rmax=1.7461     6
 S  N  Rav=1.6090 sigma=0.0024  Rmin=1.6065  Rmax=1.6114     2

 selected bond angles (degree)
 --------------------
H30-N1-C2=111.05               H31-N1-C2=110.34               H31-N1-H30=109.12              H32-N1-C2=109.59               
H32-N1-H30=109.18              H32-N1-H31=107.49              C3-C2-N1=110.63                H33-C2-N1=109.32               
H33-C2-C3=109.10               H34-C2-N1=109.33               H34-C2-C3=109.51               H34-C2-H33=108.92              
C4-C3-C2=112.42                H35-C3-C2=109.75               H35-C3-C4=109.58               H36-C3-C2=108.88               
H36-C3-C4=108.08               H36-C3-H35=108.01              C5-C4-C3=128.50                S29-C4-C3=121.25               
S29-C4-C5=110.24               C6-C5-C4=113.58                H37-C5-C4=123.62               H37-C5-C6=122.80               
C7-C6-C5=113.68                H38-C6-C5=124.54               H38-C6-C7=121.78               C8-C7-C6=129.11                
S29-C7-C6=110.34               S29-C7-C8=120.54               C9-C8-C7=128.34                S28-C8-C7=120.57               
S28-C8-C9=111.09               C10-C9-C8=113.95               H39-C9-C8=123.30               H39-C9-C10=122.74              
C11-C10-C9=121.46              C12-C10-C9=112.31              C12-C10-C11=126.19             

 selected dihedral angles (degree)
 ---------------------------------
C3-C2-N1-H30=182.61           C3-C2-N1-H31= 61.48           C3-C2-N1-H32=303.31           H33-C2-N1-H30= 62.44          
H33-C2-N1-H31=301.32          H33-C2-N1-H32=183.14          H34-C2-N1-H30=303.29          H34-C2-N1-H31=182.17          
H34-C2-N1-H32= 63.99          C4-C3-C2-N1= 70.77            C4-C3-C2-H33=191.07           C4-C3-C2-H34=310.19           
H35-C3-C2-N1=308.54           H35-C3-C2-H33= 68.84          H35-C3-C2-H34=187.96          H36-C3-C2-N1=190.50           
H36-C3-C2-H33=310.80          H36-C3-C2-H34= 69.93          C5-C4-C3-C2=109.09            C5-C4-C3-H35=231.42           
C5-C4-C3-H36=348.90           S29-C4-C3-C2=289.74           S29-C4-C3-H35= 52.07          S29-C4-C3-H36=169.55          
C6-C5-C4-C3=181.18            C6-C5-C4-S29=  0.59           H37-C5-C4-C3=  1.30           H37-C5-C4-S29=180.71          
C7-C6-C5-C4=  0.04            C7-C6-C5-H37=179.92           H38-C6-C5-C4=180.13           H38-C6-C5-H37=  0.00          
C8-C7-C6-C5=178.74            C8-C7-C6-H38=358.65           S29-C7-C6-C5=359.34           S29-C7-C6-H38=179.25          
C9-C8-C7-C6=177.50            C9-C8-C7-S29=356.85           S28-C8-C7-C6=357.82           S28-C8-C7-S29=177.16          
C10-C9-C8-C7=179.18           C10-C9-C8-S28=358.90          H39-C9-C8-C7=358.85           H39-C9-C8-S28=178.56          
C11-C10-C9-C8=177.61          C11-C10-C9-H39=357.94         C12-C10-C9-C8=359.79          C12-C10-C9-H39=180.12         
           -------------------------------------------------
          |                Final Singlepoint                |
           -------------------------------------------------

          ...................................................
          :                      SETUP                      :
          :.................................................:
          :  # basis functions                 160          :
          :  # atomic orbitals                 156          :
          :  # shells                           82          :
          :  # electrons                       146          :
          :  max. iterations                   250          :
          :  Hamiltonian                  GFN2-xTB          :
          :  restarted?                      false          :
          :  GBSA solvation                   true          :
          :  PC potential                    false          :
          :  electronic temp.          300.0000000     K    :
          :  accuracy                    1.0000000          :
          :  -> integral cutoff          0.2500000E+02      :
          :  -> integral neglect         0.1000000E-07      :
          :  -> SCF convergence          0.1000000E-05 Eh   :
          :  -> wf. convergence          0.1000000E-03 e    :
          :  Broyden damping             0.4000000          :
          ...................................................

 iter      E             dE          RMSdq      gap      omega  full diag
   1    -79.9094256 -0.799094E+02  0.816E-05    1.22       0.0  T
   2    -79.9094256 -0.639062E-10  0.507E-05    1.22     281.7  T
   3    -79.9094256 -0.498090E-10  0.307E-05    1.22     465.6  T

   *** convergence criteria satisfied after 3 iterations ***

         #    Occupation            Energy/Eh            Energy/eV
      -------------------------------------------------------------
         1        2.0000           -0.7709876             -20.9796
       ...           ...                  ...                  ...
        67        2.0000           -0.4203441             -11.4381
        68        2.0000           -0.4087200             -11.1218
        69        2.0000           -0.4024052             -10.9500
        70        2.0000           -0.3954056             -10.7595
        71        2.0000           -0.3921897             -10.6720
        72        2.0000           -0.3833415             -10.4313
        73        2.0000           -0.3618367              -9.8461 (HOMO)
        74                         -0.3169400              -8.6244 (LUMO)
        75                         -0.2791944              -7.5973
        76                         -0.2567558              -6.9867
        77                         -0.2320021              -6.3131
        78                         -0.2292788              -6.2390
       ...                                ...                  ...
       156                          0.7127519              19.3950
      -------------------------------------------------------------
                  HL-Gap            0.0448966 Eh            1.2217 eV
             Fermi-level           -0.3393883 Eh           -9.2352 eV

 SCC (total)                   0 d,  0 h,  0 min,  0.080 sec
 SCC setup                      ...        0 min,  0.000 sec (  0.599%)
 Dispersion                     ...        0 min,  0.001 sec (  1.288%)
 classical contributions        ...        0 min,  0.000 sec (  0.080%)
 integral evaluation            ...        0 min,  0.005 sec (  6.153%)
 iterations                     ...        0 min,  0.058 sec ( 72.952%)
 molecular gradient             ...        0 min,  0.013 sec ( 16.199%)
 printout                       ...        0 min,  0.002 sec (  2.330%)

         :::::::::::::::::::::::::::::::::::::::::::::::::::::
         ::                     SUMMARY                     ::
         :::::::::::::::::::::::::::::::::::::::::::::::::::::
         :: total energy             -78.751543761853 Eh    ::
         :: total w/o Gsasa/hb       -78.741931687586 Eh    ::
         :: gradient norm              0.000262806409 Eh/a0 ::
         :: HOMO-LUMO gap              1.221699934586 eV    ::
         ::.................................................::
         :: SCC energy               -79.909425624855 Eh    ::
         :: -> isotropic ES            0.161112438546 Eh    ::
         :: -> anisotropic ES         -0.034814583625 Eh    ::
         :: -> anisotropic XC          0.042368392043 Eh    ::
         :: -> dispersion             -0.065235641612 Eh    ::
         :: -> Gsolv                  -0.129541770626 Eh    ::
         ::    -> Gelec               -0.119929696359 Eh    ::
         ::    -> Gsasa                0.000690379397 Eh    ::
         ::    -> Ghb                 -0.011383213363 Eh    ::
         ::    -> Gshift               0.001080759698 Eh    ::
         :: repulsion energy           1.158402500468 Eh    ::
         :: add. restraining           0.000000000000 Eh    ::
         :: total charge               1.000000000000 e     ::
         :::::::::::::::::::::::::::::::::::::::::::::::::::::

           -------------------------------------------------
          |                Property Printout                |
           -------------------------------------------------

    * Orbital Energies and Occupations

         #    Occupation            Energy/Eh            Energy/eV
      -------------------------------------------------------------
         1        2.0000           -0.7709876             -20.9796
       ...           ...                  ...                  ...
        61        2.0000           -0.4479984             -12.1907
        62        2.0000           -0.4456446             -12.1266
        63        2.0000           -0.4408822             -11.9970
        64        2.0000           -0.4301027             -11.7037
        65        2.0000           -0.4232237             -11.5165
        66        2.0000           -0.4208666             -11.4524
        67        2.0000           -0.4203441             -11.4381
        68        2.0000           -0.4087200             -11.1218
        69        2.0000           -0.4024052             -10.9500
        70        2.0000           -0.3954056             -10.7595
        71        2.0000           -0.3921897             -10.6720
        72        2.0000           -0.3833415             -10.4313
        73        2.0000           -0.3618367              -9.8461 (HOMO)
        74                         -0.3169400              -8.6244 (LUMO)
        75                         -0.2791944              -7.5973
        76                         -0.2567558              -6.9867
        77                         -0.2320021              -6.3131
        78                         -0.2292788              -6.2390
        79                         -0.2257362              -6.1426
        80                         -0.2187964              -5.9538
        81                         -0.2030818              -5.5261
        82                         -0.2029240              -5.5218
        83                         -0.1948154              -5.3012
        84                         -0.1773413              -4.8257
       ...                                ...                  ...
       156                          0.7127519              19.3950
      -------------------------------------------------------------
                  HL-Gap            0.0448966 Eh            1.2217 eV
             Fermi-level           -0.3393883 Eh           -9.2352 eV

     #   Z          covCN         q      C6AA      α(0)
     1   7 N        3.485    -0.164    24.535     7.357
     2   6 C        3.733    -0.042    21.409     6.604
     3   6 C        3.822    -0.096    22.316     6.723
     4   6 C        2.984     0.026    27.415     8.589
     5   6 C        3.110    -0.059    29.309     8.869
     6   6 C        3.122    -0.052    29.096     8.834
     7   6 C        3.020     0.009    27.794     8.648
     8   6 C        3.023     0.021    27.520     8.605
     9   6 C        3.099    -0.068    29.562     8.910
    10   6 C        3.123     0.001    27.815     8.637
    11   6 C        3.755    -0.120    22.845     6.815
    12   6 C        2.995     0.008    27.828     8.653
    13   6 C        3.003    -0.011    28.279     8.723
    14   6 C        2.923    -0.049    29.218     8.864
    15   6 C        2.923    -0.048    29.180     8.858
    16   6 C        2.996    -0.009    28.238     8.717
    17   6 C        2.997     0.007    27.849     8.657
    18   6 C        3.135    -0.001    27.829     8.635
    19   6 C        3.755    -0.118    22.819     6.811
    20   6 C        3.117    -0.059    29.286     8.864
    21   6 C        2.932    -0.025    28.627     8.775
    22  16 S        2.329    -0.055   143.348    20.151
    23   6 C        3.344     0.068    23.972     7.732
    24   7 N        1.861    -0.302    28.671     7.937
    25  16 S        2.655     0.349   127.625    19.014
    26   7 N        1.878    -0.298    28.565     7.923
    27   6 C        3.343     0.070    23.967     7.734
    28  16 S        2.363    -0.082   144.466    20.229
    29  16 S        2.377    -0.024   142.051    20.060
    30   1 H        0.859     0.321     0.654     1.267
    31   1 H        0.859     0.315     0.670     1.282
    32   1 H        0.859     0.304     0.702     1.312
    33   1 H        0.925     0.126     1.565     1.957
    34   1 H        0.925     0.116     1.646     2.006
    35   1 H        0.924     0.107     1.726     2.055
    36   1 H        0.925     0.095     1.832     2.117
    37   1 H        0.926     0.050     2.319     2.381
    38   1 H        0.926     0.024     2.679     2.560
    39   1 H        0.926     0.068     2.108     2.270
    40   1 H        0.925     0.067     2.115     2.274
    41   1 H        0.925     0.048     2.348     2.396
    42   1 H        0.925     0.064     2.155     2.296
    43   1 H        0.926     0.067     2.123     2.278
    44   1 H        0.926     0.062     2.171     2.304
    45   1 H        0.925     0.055     2.261     2.351
    46   1 H        0.925     0.063     2.162     2.300
    47   1 H        0.925     0.061     2.191     2.315
    48   1 H        0.926     0.051     2.304     2.374
    49   1 H        0.926     0.059     2.216     2.328

 Mol. C6AA /au·bohr⁶  :      41494.688152
 Mol. C8AA /au·bohr⁸  :    1231532.383275
 Mol. α(0) /au        :        327.351462


Wiberg/Mayer (AO) data.
largest (>0.10) Wiberg bond orders for each atom

 ---------------------------------------------------------------------------
     #   Z sym  total        # sym  WBO       # sym  WBO       # sym  WBO
 ---------------------------------------------------------------------------
     1   7 N    3.649 --     2 C    0.973    31 H    0.885    30 H    0.883
                            32 H    0.873
     2   6 C    3.926 --     3 C    0.993     1 N    0.973    34 H    0.965
                            33 H    0.961
     3   6 C    3.983 --     4 C    1.026     2 C    0.993    36 H    0.959
                            35 H    0.952
     4   6 C    3.921 --     5 C    1.578    29 S    1.144     3 C    1.026
     5   6 C    3.985 --     4 C    1.578     6 C    1.299    37 H    0.962
     6   6 C    3.972 --     7 C    1.512     5 C    1.299    38 H    0.961
     7   6 C    3.954 --     6 C    1.512     8 C    1.163    29 S    1.109
     8   6 C    3.922 --     9 C    1.477     7 C    1.163    28 S    1.126
     9   6 C    3.974 --     8 C    1.477    10 C    1.310    39 H    0.959
    10   6 C    3.950 --    12 C    1.451     9 C    1.310    11 C    1.027
    11   6 C    3.992 --    10 C    1.027    40 H    0.978    41 H    0.975
                            42 H    0.961
    12   6 C    3.929 --    10 C    1.451    13 C    1.140    28 S    1.118
    13   6 C    3.950 --    14 C    1.431    27 C    1.190    12 C    1.140
    14   6 C    3.975 --    13 C    1.431    15 C    1.363    43 H    0.961
    15   6 C    3.987 --    16 C    1.438    14 C    1.363    44 H    0.963
    16   6 C    3.943 --    15 C    1.438    23 C    1.195    17 C    1.123
    17   6 C    3.941 --    18 C    1.488    16 C    1.123    22 S    1.121
    18   6 C    3.951 --    17 C    1.488    20 C    1.269    19 C    1.027
    19   6 C    3.993 --    18 C    1.027    47 H    0.978    45 H    0.976
                            46 H    0.962
    20   6 C    3.982 --    21 C    1.607    18 C    1.269    48 H    0.963
    21   6 C    3.925 --    20 C    1.607    22 S    1.202    49 H    0.968
    22  16 S    2.623 --    21 C    1.202    17 C    1.121
    23   6 C    3.970 --    24 N    1.384    16 C    1.195    27 C    1.171
    24   7 N    3.081 --    25 S    1.420    23 C    1.384    26 N    0.161
    25  16 S    3.166 --    24 N    1.420    26 N    1.409    27 C    0.101
    26   7 N    3.084 --    25 S    1.409    27 C    1.387    24 N    0.161
    27   6 C    3.968 --    26 N    1.387    13 C    1.190    23 C    1.171
                            25 S    0.101
    28  16 S    2.596 --     8 C    1.126    12 C    1.118
    29  16 S    2.575 --     4 C    1.144     7 C    1.109
    30   1 H    0.897 --     1 N    0.883
    31   1 H    0.901 --     1 N    0.885
    32   1 H    0.908 --     1 N    0.873
    33   1 H    0.983 --     2 C    0.961
    34   1 H    0.987 --     2 C    0.965
    35   1 H    0.987 --     3 C    0.952
    36   1 H    0.991 --     3 C    0.959
    37   1 H    0.997 --     5 C    0.962
    38   1 H    0.999 --     6 C    0.961
    39   1 H    0.995 --     9 C    0.959
    40   1 H    0.995 --    11 C    0.978
    41   1 H    0.997 --    11 C    0.975
    42   1 H    0.993 --    11 C    0.961
    43   1 H    0.994 --    14 C    0.961
    44   1 H    0.994 --    15 C    0.963
    45   1 H    0.996 --    19 C    0.976
    46   1 H    0.994 --    19 C    0.962
    47   1 H    0.996 --    19 C    0.978
    48   1 H    0.997 --    20 C    0.963
    49   1 H    0.996 --    21 C    0.968
 ---------------------------------------------------------------------------

Topologies differ in total number of bonds
Writing topology from bond orders to xtbtopo.mol

molecular dipole:
                 x           y           z       tot (Debye)
 q only:        5.707      -3.243      -2.278
   full:        6.894      -2.440      -2.319      19.501
molecular quadrupole (traceless):
                xx          xy          yy          xz          yz          zz
 q only:       28.843     -48.980     -25.767     -60.158      -6.957      -3.075
  q+dip:       61.264     -24.853     -38.234     -66.466      -9.385     -23.030
   full:       61.533     -27.230     -38.988     -64.559     -11.077     -22.545

           -------------------------------------------------
          |                Geometry Summary                 |
           -------------------------------------------------

      molecular mass/u    :      454.6742641
   center of mass at/Å    :       10.4361166       3.5786094      -0.0655436
  moments of inertia/u·Å² :        0.1220390E+04   0.1088778E+05   0.1173662E+05
rotational constants/cm⁻¹ :        0.1381332E-01   0.1548308E-02   0.1436328E-02

 * 50 selected distances

     #   Z          #   Z                                           value/Å
     1   7 N        2   6 C                                       1.4788124
     2   6 C        3   6 C                                       1.5310640
     4   6 C        5   6 C                                       1.3621075
     5   6 C        6   6 C                                       1.4076162
     6   6 C        7   6 C                                       1.3708602
     7   6 C        8   6 C                                       1.4233349
     8   6 C        9   6 C                                       1.3728826
     9   6 C       10   6 C                                       1.4052345
    10   6 C       11   6 C                                       1.4931183
    10   6 C       12   6 C                                       1.3831437
    13   6 C       14   6 C                                       1.3854544
    14   6 C       15   6 C                                       1.3969082
    15   6 C       16   6 C                                       1.3844446
    17   6 C       18   6 C                                       1.3779999
    18   6 C       19   6 C                                       1.4935574
    18   6 C       20   6 C                                       1.4149763
    20   6 C       21   6 C                                       1.3569549
    17   6 C       22  16 S                                       1.7451855
    21   6 C       22  16 S                                       1.7161999
    16   6 C       23   6 C                                       1.4184314
    23   6 C       24   7 N                                       1.3339930
    24   7 N       25  16 S                                       1.6065132
    25  16 S       26   7 N                                       1.6113920
    13   6 C       27   6 C                                       1.4203952
    23   6 C       27   6 C                                       1.4365741
    26   7 N       27   6 C                                       1.3338414
     8   6 C       28  16 S                                       1.7417411
    12   6 C       28  16 S                                       1.7435708
     4   6 C       29  16 S                                       1.7460866 (max)
     7   6 C       29  16 S                                       1.7295344
     1   7 N       30   1 H                                       1.0251876 (min)
     1   7 N       31   1 H                                       1.0260541
     1   7 N       32   1 H                                       1.0309224
     2   6 C       33   1 H                                       1.0890681
     2   6 C       34   1 H                                       1.0894366
     3   6 C       35   1 H                                       1.0903824
     3   6 C       36   1 H                                       1.0891529
     5   6 C       37   1 H                                       1.0749599
     6   6 C       38   1 H                                       1.0759587
     9   6 C       39   1 H                                       1.0762446
    11   6 C       40   1 H                                       1.0869937
    11   6 C       41   1 H                                       1.0875558
    11   6 C       42   1 H                                       1.0897099
    14   6 C       43   1 H                                       1.0759584
    15   6 C       44   1 H                                       1.0764520
    19   6 C       45   1 H                                       1.0872925
    19   6 C       46   1 H                                       1.0897975
    19   6 C       47   1 H                                       1.0871519
    20   6 C       48   1 H                                       1.0751692
    21   6 C       49   1 H                                       1.0712347

 * 6 distinct bonds (by element types)

   Z      Z             #   av. dist./Å        max./Å        min./Å
   1 H    6 C          17     1.0830893     1.0903824     1.0712347
   6 C    6 C          19     1.4123715     1.5310640     1.3569549
   1 H    7 N           3     1.0273880     1.0309224     1.0251876
   6 C    7 N           3     1.3822156     1.4788124     1.3338414
   6 C   16 S           6     1.7370530     1.7460866     1.7161999
   7 N   16 S           2     1.6089526     1.6113920     1.6065132


optimized geometry written to: xtbopt.xyz


           -------------------------------------------------
          | TOTAL ENERGY              -78.751543761853 Eh   |
          | GRADIENT NORM               0.000262806409 Eh/α |
          | HOMO-LUMO GAP               1.221699934586 eV   |
           -------------------------------------------------

------------------------------------------------------------------------
 * finished run on 2023/01/24 at 14:57:03.426     
------------------------------------------------------------------------
 total:
 * wall-time:     0 d,  0 h,  0 min,  6.884 sec
 *  cpu-time:     0 d,  0 h, 16 min, 19.428 sec
 * ratio c/w:   142.267 speedup
 SCF:
 * wall-time:     0 d,  0 h,  0 min,  0.367 sec
 *  cpu-time:     0 d,  0 h,  0 min, 52.227 sec
 * ratio c/w:   142.237 speedup
 ANC optimizer:
 * wall-time:     0 d,  0 h,  0 min,  6.491 sec
 *  cpu-time:     0 d,  0 h, 15 min, 23.581 sec
 * ratio c/w:   142.296 speedup

