47
 energy: -77.663798851914 gnorm: 0.000735092373 xtb: 6.5.1 (fef0646)
N            5.46478791802757        1.94194647698156        2.97659270536009
C            4.32705274586529        1.43426222328737        2.17742086464405
C            4.06962079583050        2.32263015683406        0.96710253654206
C            5.15624953615234        2.27261885123949       -0.05775867640995
C            5.25558305082719        3.01273090487759       -1.20133066289516
C            6.38785109892414        2.70353073185998       -1.97320962806336
C            7.17504631423130        1.72154939826687       -1.42340661229897
C            8.38042368503509        1.15202289861015       -1.91484586098202
C            9.14941559514126        0.16857534849201       -1.33741773636842
C           10.28024264246570       -0.18534212264355       -2.08299623296400
C           11.24219486003488       -1.22775190422670       -1.63760857750073
C           10.38111581896602        0.54534593171715       -3.26189852130936
C           11.36851467873006        0.46852973167897       -4.27433426755785
C           11.45534934726960        1.20163423136152       -5.45264170154613
C           10.56038315088846        2.19030178640106       -5.86834890703135
N            9.84209079486005        3.01015675714137       -6.24005202028632
C           12.58874659897399        0.85507085692124       -6.25422799676480
C           12.80847688795649        1.49370259542808       -7.47899095255589
N           12.92942345233474        2.05372152717778       -8.47713823891122
C           13.37636577774655       -0.14098705356367       -5.69665340045521
C           14.56842095926498       -0.71983249913828       -6.21112434867383
C           15.32965554361769       -1.75109951160766       -5.68418937771636
C           15.03816205519042       -2.49002822117962       -4.42574887034011
C           16.44794185103989       -2.04049398747606       -6.49479461808660
C           16.53713162334430       -1.25595461827753       -7.59958583975206
S           15.25430948611154       -0.12048087202723       -7.70895077058185
S           12.70307827543522       -0.64528379683201       -4.17721563399999
S            9.05675842800307        1.68054819377396       -3.43294022539470
S            6.49300955698321        1.16669298011195        0.06492834784514
H            5.63818190013787        1.33303284989522        3.78311029567034
H            5.27742047693629        2.89380574437766        3.30986988660943
H            6.30936049474420        1.95600769046428        2.39004176670489
H            3.43352555041746        1.40978771739650        2.79983582143807
H            4.55660125722865        0.42354517637062        1.84069253391741
H            3.91918590313163        3.36058840995556        1.27098676787404
H            3.13991428105833        2.00111769647126        0.49236328754404
H            4.53871589468445        3.75943579149222       -1.49102222498248
H            6.63489564633961        3.17487401846154       -2.90919831529987
H            8.90184974376334       -0.29150116722110       -0.39714371738171
H           10.93044493348790       -1.63365642052783       -0.68060636980780
H           12.24260265307481       -0.80973221484377       -1.53633037096477
H           11.29486025957371       -2.03732031243929       -2.36415414078104
H           14.05161833451276       -2.94965915744296       -4.46616965179529
H           15.06137267994583       -1.81745803577344       -3.56933842652045
H           15.78105032937156       -3.26778387076147       -4.27899502664206
H           17.16061535108639       -2.80917355055727       -6.25877957724420
H           17.28153178124342       -1.26887736047465       -8.37003731427976
