 Entering Gaussian System
 *********************************************
 Gaussian 98:
 frequency output generated by the xtb code
 *********************************************
                         Standard orientation:
 --------------------------------------------------------------------
  Center     Atomic     Atomic              Coordinates (Angstroms)
  Number     Number      Type              X           Y           Z
 --------------------------------------------------------------------
    1          7             0       -2.412473    1.730452   -0.617805
    2          6             0       -1.367998    2.013888    0.410081
    3          6             0       -0.145033    1.165211    0.242028
    4          6             0        1.107090    1.742095    0.083843
    5          6             0        2.232505    0.959268   -0.065759
    6          6             0        2.142728   -0.431521   -0.059467
    7          6             0        3.319733   -1.289078   -0.219819
    8          6             0        4.571936   -0.902124   -0.018274
    9          6             0        0.881105   -1.003935    0.092969
   10          6             0       -0.241020   -0.217448    0.242161
   11         17             0       -3.464909   -1.589102    0.029445
   12          1             0       -3.223350    2.358796   -0.530733
   13          1             0       -2.755838    0.759544   -0.526632
   14          1             0       -2.026766    1.834248   -1.565446
   15          1             0       -1.779196    1.857152    1.413903
   16          1             0       -1.087883    3.072397    0.368038
   17          1             0        1.193965    2.815664    0.076891
   18          1             0        3.191557    1.427853   -0.202894
   19          1             0        3.130766   -2.309558   -0.512807
   20          1             0        4.808352    0.093875    0.299113
   21          1             0        5.398502   -1.574219   -0.148296
   22          1             0        0.790430   -2.077354    0.095481
   23          1             0       -1.209472   -0.676583    0.348885
 --------------------------------------------------------------------
     1 basis functions        1 primitive gaussians
     1 alpha electrons        1 beta electrons

 Harmonic frequencies (cm**-1), IR intensities (km*mol⁻¹),
 Raman scattering activities (A**4/amu), Raman depolarization ratios,
 reduced masses (AMU), force constants (mDyne/A) and normal coordinates:
                      1                      2                      3
                        a                      a                      a 
 Frequencies --  -135.8512               -77.7499                44.0035
 Red. masses --    19.4440                 7.4691                13.2515
 Frc consts  --     0.0000                 0.0000                 0.0000
 IR Inten    --   127.5071                 0.7854                 3.1925
 Raman Activ --     0.0000                 0.0000                 0.0000
 Depolar     --     0.0000                 0.0000                 0.0000
 Atom AN      X      Y      Z        X      Y      Z        X      Y      Z
   1   7     0.20   0.58  -0.16     0.02   0.03   0.08    -0.05  -0.06   0.02
   2   6     0.07   0.13   0.08     0.04   0.02   0.06     0.07   0.13  -0.17
   3   6     0.01   0.06   0.01     0.03   0.01   0.01     0.04   0.07  -0.12
   4   6     0.02   0.02  -0.03     0.01   0.01  -0.14     0.11   0.05   0.27
   5   6     0.00  -0.01  -0.04    -0.01  -0.00  -0.22     0.10   0.03   0.31
   6   6    -0.03  -0.01   0.00    -0.02   0.00  -0.18     0.04   0.03  -0.03
   7   6    -0.05  -0.03   0.05     0.01   0.07  -0.35     0.02   0.01  -0.03
   8   6    -0.03  -0.02  -0.04    -0.10  -0.06   0.55     0.02  -0.08   0.13
   9   6    -0.05   0.03   0.02     0.00  -0.00  -0.03    -0.02   0.06  -0.39
  10   6    -0.03   0.06   0.02     0.03   0.01   0.09    -0.02   0.08  -0.43
  11  17    -0.10  -0.59   0.07     0.00  -0.06   0.04    -0.19  -0.20   0.27
  12   1     0.05   0.15  -0.01     0.01   0.01   0.03     0.01   0.02  -0.03
  13   1     0.06   0.17  -0.15     0.00   0.01   0.03    -0.05   0.01   0.10
  14   1     0.09   0.25  -0.02    -0.00   0.01   0.02    -0.03  -0.12  -0.02
  15   1    -0.03  -0.03  -0.01     0.02   0.00   0.02     0.05   0.11  -0.02
  16   1     0.05   0.03   0.12     0.01   0.00   0.02     0.03   0.03  -0.12
  17   1     0.01   0.01  -0.02     0.00   0.00  -0.06     0.05   0.01   0.15
  18   1     0.00  -0.01  -0.02    -0.00  -0.01  -0.11     0.04   0.01   0.18
  19   1    -0.02  -0.02   0.05     0.04   0.09  -0.38    -0.00   0.02  -0.06
  20   1    -0.00   0.00  -0.05    -0.10  -0.10   0.47     0.01  -0.04   0.08
  21   1    -0.01  -0.01   0.00     0.00   0.03   0.11    -0.00  -0.03   0.03
  22   1    -0.02   0.01   0.01     0.00  -0.00   0.00    -0.02   0.02  -0.18
  23   1    -0.01   0.02   0.01     0.01   0.01   0.06    -0.01   0.02  -0.18
                      4                      5                      6
                        a                      a                      a 
 Frequencies --    74.8561                96.6362               115.4477
 Red. masses --    22.6243                11.5407                16.3000
 Frc consts  --     0.0000                 0.0000                 0.0000
 IR Inten    --    25.5745                16.2247                16.0336
 Raman Activ --     0.0000                 0.0000                 0.0000
 Depolar     --     0.0000                 0.0000                 0.0000
 Atom AN      X      Y      Z        X      Y      Z        X      Y      Z
   1   7     0.05   0.05  -0.02    -0.20   0.18   0.30     0.16   0.17  -0.37
   2   6     0.02  -0.20   0.09     0.00  -0.06   0.15    -0.13  -0.19   0.05
   3   6     0.04  -0.15  -0.03    -0.04  -0.05  -0.19    -0.12  -0.17   0.07
   4   6    -0.00  -0.07  -0.07    -0.05  -0.05  -0.22    -0.14  -0.10   0.18
   5   6     0.05   0.02  -0.08    -0.04  -0.05  -0.18    -0.11  -0.04   0.12
   6   6     0.16   0.01  -0.03    -0.01  -0.05  -0.08    -0.06  -0.05  -0.06
   7   6     0.24   0.11   0.07     0.02  -0.07   0.33     0.00   0.05  -0.11
   8   6     0.20   0.25   0.07     0.00   0.05   0.25    -0.04   0.14   0.03
   9   6     0.19  -0.08  -0.05    -0.04  -0.05  -0.26    -0.04  -0.12  -0.16
  10   6     0.13  -0.16  -0.05    -0.05  -0.05  -0.31    -0.08  -0.17  -0.10
  11  17    -0.69   0.12   0.05     0.26   0.10   0.03     0.34   0.28   0.27
  12   1     0.06   0.07  -0.02    -0.08  -0.00   0.20     0.09   0.12  -0.19
  13   1    -0.07   0.04  -0.02     0.01   0.02  -0.01    -0.05   0.08  -0.11
  14   1     0.05  -0.01   0.01    -0.12   0.18   0.07     0.15  -0.00  -0.06
  15   1    -0.01  -0.12   0.01     0.05  -0.07   0.05    -0.12  -0.14  -0.04
  16   1     0.01  -0.06   0.09     0.00  -0.01   0.09    -0.02  -0.06   0.13
  17   1    -0.02  -0.02  -0.03    -0.01  -0.01  -0.06    -0.05  -0.03   0.09
  18   1     0.00   0.02  -0.03    -0.01  -0.01  -0.04    -0.04   0.00   0.05
  19   1     0.10   0.02   0.05     0.02  -0.06   0.23     0.03   0.02  -0.07
  20   1     0.03   0.09  -0.01    -0.01   0.06  -0.07    -0.05   0.03   0.05
  21   1     0.08   0.09   0.05     0.01  -0.00   0.18     0.01   0.07  -0.00
  22   1     0.08  -0.03  -0.01    -0.01  -0.01  -0.08     0.00  -0.04  -0.08
  23   1     0.04  -0.06  -0.01    -0.02  -0.02  -0.10    -0.02  -0.06  -0.05
                      7                      8                      9
                        a                      a                      a 
 Frequencies --   188.5997               205.4276               251.5759
 Red. masses --     9.2136                 8.2227                 4.5320
 Frc consts  --     0.0000                 0.0000                 0.0000
 IR Inten    --     8.7051                 3.8703                 4.9497
 Raman Activ --     0.0000                 0.0000                 0.0000
 Depolar     --     0.0000                 0.0000                 0.0000
 Atom AN      X      Y      Z        X      Y      Z        X      Y      Z
   1   7    -0.25   0.26   0.10    -0.26   0.14  -0.10     0.18  -0.18  -0.12
   2   6     0.13   0.16  -0.25    -0.17  -0.18  -0.06     0.03  -0.01  -0.04
   3   6    -0.05  -0.13  -0.16    -0.07  -0.04  -0.18     0.08   0.06   0.06
   4   6    -0.00  -0.18   0.01    -0.09   0.06  -0.03     0.11   0.00   0.12
   5   6    -0.01  -0.19   0.19     0.04   0.16   0.18     0.03  -0.10   0.04
   6   6    -0.01  -0.19   0.19     0.15   0.15   0.13    -0.07  -0.09  -0.08
   7   6     0.12   0.04  -0.12     0.05   0.03  -0.10    -0.01  -0.01  -0.05
   8   6     0.04   0.30  -0.09     0.16  -0.41  -0.03    -0.09   0.22   0.02
   9   6    -0.02  -0.17   0.21     0.19   0.07   0.10    -0.09  -0.03  -0.08
  10   6    -0.05  -0.13   0.01     0.09  -0.05  -0.03    -0.01   0.07   0.00
  11  17     0.07   0.04  -0.03    -0.01   0.07   0.08    -0.11   0.06   0.08
  12   1    -0.06   0.07   0.13    -0.14  -0.09   0.16    -0.19  -0.39   0.23
  13   1    -0.05   0.07   0.03     0.06  -0.02  -0.19     0.40  -0.20  -0.29
  14   1    -0.17   0.10  -0.01    -0.14   0.29  -0.03    -0.07   0.41  -0.03
  15   1     0.09   0.16  -0.03    -0.05  -0.15  -0.03    -0.01  -0.03  -0.02
  16   1     0.11   0.02  -0.17    -0.07  -0.04   0.08    -0.03   0.01   0.00
  17   1     0.01  -0.05  -0.01    -0.05   0.02  -0.02     0.06  -0.00   0.05
  18   1    -0.00  -0.06   0.07     0.01   0.07   0.10     0.02  -0.05   0.01
  19   1     0.10   0.04  -0.17    -0.06   0.05  -0.13     0.04  -0.01  -0.00
  20   1    -0.06   0.06   0.12     0.14  -0.17   0.08    -0.08   0.08  -0.00
  21   1     0.07   0.18  -0.15    -0.02  -0.18  -0.09     0.01   0.11   0.03
  22   1    -0.01  -0.05   0.09     0.08   0.02   0.05    -0.05  -0.01  -0.03
  23   1    -0.02  -0.03  -0.02     0.04  -0.04  -0.01    -0.01   0.04   0.02
                     10                     11                     12
                        a                      a                      a 
 Frequencies --   314.0851               360.6882               371.0234
 Red. masses --     8.4203                 8.9069                 9.1568
 Frc consts  --     0.0000                 0.0000                 0.0000
 IR Inten    --     2.1902                 2.6540                 0.7889
 Raman Activ --     0.0000                 0.0000                 0.0000
 Depolar     --     0.0000                 0.0000                 0.0000
 Atom AN      X      Y      Z        X      Y      Z        X      Y      Z
   1   7    -0.13   0.11  -0.05    -0.23   0.04  -0.06     0.29  -0.06   0.09
   2   6     0.02   0.20  -0.20    -0.14  -0.11  -0.03     0.19   0.11   0.03
   3   6    -0.12  -0.15   0.26     0.07   0.14  -0.07    -0.08  -0.19   0.03
   4   6    -0.13  -0.10   0.26     0.19   0.04   0.43    -0.16  -0.04   0.13
   5   6    -0.07   0.08  -0.13     0.04  -0.08  -0.30    -0.11   0.15  -0.26
   6   6     0.07   0.07  -0.38     0.03  -0.08  -0.16    -0.03   0.16   0.19
   7   6     0.08  -0.01  -0.02     0.02  -0.13  -0.07    -0.08   0.15   0.05
   8   6     0.10  -0.10   0.10    -0.05   0.04   0.04    -0.00  -0.08  -0.03
   9   6     0.13  -0.00  -0.12     0.05   0.02   0.36     0.05  -0.01   0.24
  10   6     0.04  -0.17   0.27     0.06   0.14  -0.22    -0.15  -0.19  -0.40
  11  17     0.00   0.01  -0.01     0.01  -0.01   0.00    -0.02   0.01   0.00
  12   1    -0.06  -0.01   0.05    -0.01   0.07  -0.01     0.02  -0.10   0.03
  13   1     0.02   0.01  -0.02    -0.12   0.03  -0.01     0.16  -0.05   0.00
  14   1    -0.10   0.07  -0.04    -0.06  -0.02  -0.02     0.07   0.04   0.03
  15   1    -0.02   0.26  -0.03    -0.04  -0.13  -0.02     0.05   0.15   0.03
  16   1     0.11   0.02  -0.22    -0.10  -0.01   0.07     0.13   0.01  -0.08
  17   1    -0.06  -0.03   0.13     0.11   0.01   0.28    -0.10  -0.01   0.08
  18   1    -0.04   0.07  -0.04     0.01  -0.03  -0.17    -0.05   0.05  -0.19
  19   1     0.01  -0.05   0.17     0.03  -0.06   0.04    -0.06   0.07  -0.05
  20   1     0.06   0.02  -0.16    -0.07   0.04  -0.05     0.06  -0.06   0.06
  21   1     0.00  -0.10   0.22     0.02   0.04   0.09    -0.04  -0.06  -0.10
  22   1     0.07  -0.00  -0.05     0.00   0.01   0.25     0.08  -0.01   0.13
  23   1     0.03  -0.09   0.11     0.01   0.05  -0.13    -0.05  -0.08  -0.24
                     13                     14                     15
                        a                      a                      a 
 Frequencies --   397.7078               484.4738               519.3555
 Red. masses --     9.8865                 8.9349                 9.1696
 Frc consts  --     0.0000                 0.0000                 0.0000
 IR Inten    --     2.6560                 9.2311                 4.7654
 Raman Activ --     0.0000                 0.0000                 0.0000
 Depolar     --     0.0000                 0.0000                 0.0000
 Atom AN      X      Y      Z        X      Y      Z        X      Y      Z
   1   7     0.04   0.02   0.06     0.20  -0.05   0.10     0.10  -0.02   0.04
   2   6     0.25  -0.22  -0.11     0.04   0.09   0.10    -0.15   0.22   0.15
   3   6     0.16  -0.20  -0.28    -0.13   0.05  -0.46    -0.25   0.04  -0.07
   4   6     0.07   0.06   0.01    -0.10   0.01  -0.01    -0.18  -0.14  -0.13
   5   6     0.14   0.20   0.16    -0.15  -0.08   0.16     0.03   0.03   0.17
   6   6    -0.08   0.22  -0.14    -0.13  -0.07  -0.33     0.29  -0.01  -0.03
   7   6    -0.34   0.02  -0.06     0.16   0.19  -0.11     0.03  -0.43  -0.16
   8   6    -0.41   0.09   0.03     0.24  -0.05   0.06    -0.16   0.03   0.00
   9   6     0.10  -0.03   0.09    -0.13  -0.05   0.18     0.25   0.21   0.12
  10   6     0.07  -0.17   0.10    -0.12   0.04   0.03     0.05   0.02  -0.14
  11  17     0.00  -0.00  -0.01    -0.01  -0.00  -0.01    -0.01   0.00  -0.00
  12   1     0.06   0.06   0.07     0.02  -0.05  -0.06    -0.04  -0.07  -0.09
  13   1    -0.05   0.03   0.01     0.09  -0.03   0.05     0.10  -0.03   0.02
  14   1    -0.03  -0.00  -0.00     0.11  -0.04   0.05     0.11  -0.02   0.04
  15   1     0.11  -0.09  -0.02     0.06  -0.04   0.04    -0.04   0.08   0.05
  16   1     0.08  -0.07  -0.01    -0.01   0.03   0.07    -0.02   0.06   0.02
  17   1    -0.04   0.02   0.06     0.01  -0.00   0.15    -0.04  -0.04  -0.05
  18   1     0.05   0.05   0.13    -0.01  -0.03   0.24    -0.04   0.12   0.09
  19   1    -0.13  -0.02   0.09     0.07   0.02   0.06    -0.01  -0.13  -0.00
  20   1    -0.16   0.07  -0.10     0.18  -0.00  -0.10    -0.28   0.08  -0.06
  21   1    -0.10   0.03   0.14    -0.01  -0.13   0.14     0.10   0.16   0.12
  22   1     0.11  -0.02   0.07    -0.04  -0.01   0.23     0.07   0.06   0.07
  23   1     0.02  -0.03   0.09    -0.03   0.02   0.14     0.06  -0.08  -0.05
                     16                     17                     18
                        a                      a                      a 
 Frequencies --   603.3834               620.3175               700.5901
 Red. masses --    10.3149                 8.6473                 9.0344
 Frc consts  --     0.0000                 0.0000                 0.0000
 IR Inten    --     1.5302                 5.2066                 0.4716
 Raman Activ --     0.0000                 0.0000                 0.0000
 Depolar     --     0.0000                 0.0000                 0.0000
 Atom AN      X      Y      Z        X      Y      Z        X      Y      Z
   1   7    -0.00  -0.02  -0.00    -0.07  -0.02  -0.04     0.08  -0.01   0.05
   2   6    -0.00  -0.02   0.01     0.00  -0.06   0.00     0.09  -0.04  -0.08
   3   6    -0.09  -0.10  -0.17     0.07  -0.05   0.31    -0.05   0.01  -0.35
   4   6     0.11  -0.37   0.10     0.12  -0.20  -0.20    -0.05   0.03   0.28
   5   6     0.37   0.04  -0.17     0.27  -0.04   0.19    -0.13   0.00  -0.14
   6   6     0.07   0.11  -0.06    -0.03   0.03   0.01     0.09  -0.02   0.48
   7   6     0.02  -0.04   0.20     0.03   0.20  -0.35     0.09  -0.03  -0.31
   8   6     0.05   0.04  -0.05     0.04   0.01   0.10     0.04  -0.05   0.08
   9   6    -0.14   0.41  -0.10    -0.12   0.15   0.23    -0.07   0.09  -0.15
  10   6    -0.40  -0.03   0.18    -0.28   0.00  -0.16    -0.07   0.03   0.25
  11  17     0.00   0.00  -0.00     0.00   0.00   0.00    -0.00  -0.00  -0.00
  12   1    -0.00  -0.01  -0.01     0.01   0.02   0.03     0.03   0.00   0.02
  13   1     0.00  -0.01   0.00    -0.05   0.01  -0.03     0.02   0.00   0.03
  14   1     0.00  -0.01   0.00    -0.04   0.01  -0.02    -0.00  -0.02   0.00
  15   1     0.01  -0.07  -0.00    -0.03  -0.01  -0.01     0.07  -0.10  -0.01
  16   1    -0.02   0.00   0.05    -0.01  -0.02  -0.00    -0.00  -0.00   0.05
  17   1    -0.01  -0.10   0.13     0.00  -0.05  -0.21    -0.04   0.01  -0.07
  18   1     0.09   0.06   0.02     0.06  -0.02  -0.06    -0.08   0.02  -0.25
  19   1     0.02   0.02  -0.07     0.01  -0.01   0.12    -0.01  -0.05   0.08
  20   1     0.01  -0.04   0.15     0.09   0.07  -0.24    -0.06   0.08  -0.20
  21   1     0.02   0.06  -0.18    -0.05  -0.12   0.31     0.05  -0.00   0.22
  22   1     0.02   0.11   0.03    -0.03   0.04  -0.04    -0.07   0.03  -0.24
  23   1    -0.09  -0.05   0.13    -0.10   0.00  -0.19    -0.03   0.01  -0.03
                     19                     20                     21
                        a                      a                      a 
 Frequencies --   721.2504               809.4703               830.7146
 Red. masses --     9.3578                 5.0999                 2.9888
 Frc consts  --     0.0000                 0.0000                 0.0000
 IR Inten    --     5.7807                14.1060                45.4355
 Raman Activ --     0.0000                 0.0000                 0.0000
 Depolar     --     0.0000                 0.0000                 0.0000
 Atom AN      X      Y      Z        X      Y      Z        X      Y      Z
   1   7     0.09  -0.04   0.03     0.04   0.04   0.02     0.07   0.09  -0.08
   2   6     0.25  -0.30  -0.15     0.02   0.10  -0.07     0.14   0.16  -0.16
   3   6     0.09  -0.04   0.17    -0.04   0.01  -0.12     0.02   0.01   0.18
   4   6    -0.16   0.27  -0.04    -0.01  -0.03   0.22    -0.07  -0.05  -0.13
   5   6    -0.23   0.12   0.10     0.01   0.00   0.26    -0.08  -0.02  -0.11
   6   6     0.00  -0.01  -0.17    -0.04   0.01  -0.36     0.03   0.00   0.08
   7   6     0.20  -0.33   0.04    -0.02  -0.02   0.20    -0.00   0.01  -0.04
   8   6     0.17  -0.06  -0.03     0.01   0.03  -0.08    -0.02  -0.00   0.02
   9   6    -0.15   0.21   0.09     0.05  -0.02   0.17     0.02   0.00   0.00
  10   6    -0.25   0.08  -0.03     0.03  -0.02   0.07     0.00  -0.02  -0.01
  11  17     0.00  -0.00   0.00    -0.01  -0.00  -0.00    -0.01  -0.01  -0.01
  12   1     0.12   0.09   0.18    -0.04  -0.06  -0.01    -0.07  -0.10   0.11
  13   1    -0.10   0.03  -0.04     0.10  -0.01   0.16     0.20  -0.01   0.40
  14   1    -0.09   0.04  -0.04    -0.08  -0.09  -0.04    -0.35  -0.22  -0.20
  15   1     0.06  -0.05  -0.04    -0.00  -0.17  -0.05    -0.13  -0.33  -0.17
  16   1     0.08  -0.09  -0.07    -0.04   0.05   0.17    -0.02   0.07   0.36
  17   1    -0.09   0.08  -0.02    -0.07  -0.00  -0.45     0.01  -0.02   0.22
  18   1    -0.08   0.07   0.04    -0.06  -0.00  -0.40     0.00   0.02   0.22
  19   1     0.07  -0.08  -0.06     0.02   0.02  -0.04    -0.01   0.00   0.01
  20   1    -0.13   0.01   0.05     0.03  -0.05   0.14    -0.01   0.01  -0.03
  21   1     0.17   0.14  -0.03    -0.03  -0.03  -0.04    -0.00   0.00   0.01
  22   1    -0.07   0.06   0.04    -0.02  -0.00  -0.24     0.01   0.00  -0.00
  23   1    -0.09   0.06  -0.02    -0.01  -0.03  -0.21     0.02  -0.04  -0.01
                     22                     23                     24
                        a                      a                      a 
 Frequencies --   842.4367               876.3036               881.1575
 Red. masses --     9.5781                 3.3068                 3.8277
 Frc consts  --     0.0000                 0.0000                 0.0000
 IR Inten    --     9.9005                 6.5447                11.8309
 Raman Activ --     0.0000                 0.0000                 0.0000
 Depolar     --     0.0000                 0.0000                 0.0000
 Atom AN      X      Y      Z        X      Y      Z        X      Y      Z
   1   7    -0.15   0.06  -0.06     0.00   0.01  -0.01    -0.00   0.00   0.00
   2   6    -0.10   0.20   0.13     0.03   0.03  -0.02     0.00   0.02  -0.00
   3   6     0.13  -0.10  -0.04     0.01  -0.00   0.07     0.01  -0.00   0.00
   4   6     0.15   0.34  -0.02     0.01  -0.01   0.17     0.01   0.01   0.06
   5   6     0.24   0.28  -0.02     0.01   0.00   0.11     0.02   0.01   0.03
   6   6    -0.11   0.08   0.03     0.02   0.00   0.09    -0.01   0.00  -0.08
   7   6     0.13  -0.19  -0.04     0.00   0.00  -0.00     0.01   0.04  -0.17
   8   6     0.14  -0.07  -0.03     0.01   0.01  -0.06    -0.04  -0.12   0.44
   9   6    -0.15  -0.33   0.02    -0.04  -0.00  -0.33    -0.00  -0.01  -0.02
  10   6    -0.25  -0.28   0.03    -0.03  -0.00  -0.18    -0.01  -0.01  -0.02
  11  17    -0.00   0.00  -0.00     0.00  -0.00  -0.01    -0.00  -0.00  -0.00
  12   1    -0.15  -0.11  -0.19    -0.00  -0.00   0.03    -0.01  -0.01  -0.01
  13   1     0.11  -0.03   0.06     0.02   0.00   0.06     0.01  -0.00   0.01
  14   1     0.06  -0.06   0.02    -0.08  -0.05  -0.04    -0.01  -0.01  -0.00
  15   1    -0.03   0.03   0.03    -0.04  -0.04  -0.03    -0.00  -0.01  -0.01
  16   1    -0.05   0.06   0.07     0.01   0.01   0.06    -0.00   0.01   0.02
  17   1    -0.06   0.11   0.02    -0.05  -0.00  -0.34    -0.02   0.00  -0.14
  18   1     0.10   0.01  -0.02    -0.03   0.00  -0.21    -0.01   0.01  -0.03
  19   1     0.03  -0.05  -0.02    -0.01   0.02  -0.05    -0.01  -0.07   0.23
  20   1    -0.13   0.03  -0.01    -0.02   0.00  -0.00     0.04   0.10  -0.33
  21   1     0.16   0.12   0.08     0.00  -0.03   0.15     0.05   0.20  -0.70
  22   1     0.05  -0.11  -0.02     0.09  -0.01   0.65     0.02  -0.00   0.08
  23   1    -0.11  -0.00   0.01     0.04   0.01   0.39     0.00  -0.00   0.04
                     25                     26                     27
                        a                      a                      a 
 Frequencies --   900.6286               937.8009               968.0279
 Red. masses --     3.3839                 3.5295                 8.6165
 Frc consts  --     0.0000                 0.0000                 0.0000
 IR Inten    --     0.2637                 5.9697                53.9304
 Raman Activ --     0.0000                 0.0000                 0.0000
 Depolar     --     0.0000                 0.0000                 0.0000
 Atom AN      X      Y      Z        X      Y      Z        X      Y      Z
   1   7    -0.00  -0.00   0.01     0.00   0.01   0.00    -0.38   0.06  -0.24
   2   6    -0.01  -0.00   0.00    -0.01  -0.02  -0.01     0.37  -0.05   0.28
   3   6     0.01  -0.00   0.01    -0.00  -0.01   0.01     0.13  -0.11  -0.00
   4   6     0.05   0.00   0.29     0.00  -0.03   0.09     0.02   0.11   0.01
   5   6    -0.04   0.00  -0.35     0.01   0.02  -0.07    -0.24  -0.15   0.03
   6   6    -0.01   0.00  -0.00    -0.01   0.01   0.02     0.08  -0.07  -0.01
   7   6     0.00  -0.02  -0.00     0.00   0.00  -0.01    -0.02  -0.00  -0.01
   8   6    -0.01   0.02  -0.02     0.01  -0.00  -0.01    -0.06   0.06   0.01
   9   6     0.00  -0.01   0.05     0.02  -0.02   0.27     0.08   0.29   0.00
  10   6    -0.01  -0.00   0.01    -0.03   0.02  -0.37    -0.06  -0.02  -0.01
  11  17    -0.00   0.00   0.00     0.00   0.00  -0.01    -0.00   0.00  -0.00
  12   1    -0.00  -0.00  -0.01     0.01   0.01   0.01    -0.26  -0.16  -0.32
  13   1    -0.00  -0.00  -0.01     0.01   0.00   0.01     0.12  -0.05   0.01
  14   1     0.02   0.01   0.01    -0.02  -0.02  -0.01     0.07  -0.08  -0.00
  15   1     0.01   0.01   0.01    -0.03   0.02  -0.01     0.15   0.02   0.10
  16   1    -0.00   0.00  -0.00     0.02  -0.01  -0.00     0.21  -0.05   0.04
  17   1    -0.07   0.00  -0.56    -0.02  -0.01  -0.08     0.06   0.02  -0.02
  18   1     0.09   0.01   0.65     0.00   0.02   0.03    -0.05  -0.07   0.00
  19   1     0.01  -0.00  -0.02    -0.00  -0.00   0.01     0.02  -0.01   0.01
  20   1     0.00  -0.01   0.02    -0.01  -0.00   0.01     0.08  -0.02   0.02
  21   1    -0.00  -0.01   0.05     0.01   0.00   0.01    -0.09  -0.07  -0.03
  22   1     0.00  -0.00   0.02    -0.07   0.00  -0.46     0.03   0.08  -0.01
  23   1    -0.02  -0.00  -0.15     0.08   0.03   0.73     0.01  -0.04   0.03
                     28                     29                     30
                        a                      a                      a 
 Frequencies --   995.9265              1002.9836              1015.9678
 Red. masses --     2.0442                 8.0741                 6.0370
 Frc consts  --     0.0000                 0.0000                 0.0000
 IR Inten    --    17.7269                10.2064                 9.7451
 Raman Activ --     0.0000                 0.0000                 0.0000
 Depolar     --     0.0000                 0.0000                 0.0000
 Atom AN      X      Y      Z        X      Y      Z        X      Y      Z
   1   7    -0.02  -0.02  -0.03    -0.16  -0.19  -0.24    -0.01  -0.26  -0.13
   2   6     0.03   0.02   0.04     0.34   0.17   0.27     0.14   0.36   0.14
   3   6     0.00   0.01  -0.01    -0.04   0.08  -0.03     0.02   0.03  -0.03
   4   6    -0.00  -0.04   0.00    -0.09  -0.29   0.02     0.01   0.17   0.01
   5   6    -0.00  -0.00  -0.01     0.02   0.05   0.00    -0.06  -0.03   0.01
   6   6    -0.03   0.02  -0.02    -0.09   0.12  -0.03     0.11  -0.06   0.01
   7   6    -0.01  -0.07   0.25    -0.01   0.16   0.03     0.00  -0.12  -0.03
   8   6    -0.02  -0.03   0.13     0.14  -0.19  -0.06    -0.12   0.14   0.03
   9   6     0.00  -0.02   0.02    -0.07  -0.16   0.02     0.10   0.01  -0.00
  10   6     0.02   0.02   0.00     0.15   0.12  -0.01    -0.18  -0.21   0.00
  11  17    -0.00   0.00   0.00     0.00  -0.00   0.00     0.01   0.00   0.00
  12   1    -0.00   0.00   0.00     0.05   0.05   0.06     0.20   0.16   0.21
  13   1    -0.02  -0.00  -0.02    -0.18  -0.01  -0.15    -0.29   0.02  -0.21
  14   1    -0.01   0.01  -0.01    -0.10   0.04  -0.08    -0.12   0.11  -0.06
  15   1     0.01  -0.00   0.01     0.10  -0.05   0.06     0.03  -0.09   0.01
  16   1     0.00   0.01   0.01    -0.01   0.07   0.08    -0.25   0.17   0.10
  17   1     0.01  -0.01   0.01    -0.05  -0.08  -0.01     0.02   0.04  -0.00
  18   1    -0.02   0.03   0.00    -0.05   0.11   0.01    -0.00  -0.03  -0.00
  19   1     0.03   0.20  -0.72    -0.20   0.06   0.07     0.15  -0.06   0.00
  20   1     0.05   0.17  -0.56    -0.28   0.02   0.04     0.21  -0.03   0.03
  21   1    -0.00  -0.01   0.06     0.24   0.19   0.06    -0.19  -0.15  -0.05
  22   1     0.01  -0.00  -0.04    -0.08  -0.04  -0.00     0.17  -0.01  -0.04
  23   1     0.00   0.02  -0.01     0.00   0.11  -0.04    -0.03  -0.11   0.04
                     31                     32                     33
                        a                      a                      a 
 Frequencies --  1027.3093              1040.2435              1150.9828
 Red. masses --     5.8819                 5.5346                 2.7714
 Frc consts  --     0.0000                 0.0000                 0.0000
 IR Inten    --     5.8842                 7.4924                 0.0851
 Raman Activ --     0.0000                 0.0000                 0.0000
 Depolar     --     0.0000                 0.0000                 0.0000
 Atom AN      X      Y      Z        X      Y      Z        X      Y      Z
   1   7     0.05  -0.00  -0.22     0.13  -0.01  -0.11    -0.02  -0.03  -0.01
   2   6     0.03  -0.15   0.34    -0.17  -0.05   0.22     0.03   0.07  -0.00
   3   6    -0.15   0.01  -0.14    -0.01  -0.02  -0.14    -0.08  -0.13   0.02
   4   6    -0.05  -0.00   0.02     0.18   0.18  -0.00    -0.03   0.13   0.01
   5   6     0.20   0.21  -0.01    -0.12  -0.23   0.03     0.13   0.00  -0.02
   6   6    -0.02  -0.06   0.03    -0.01   0.03  -0.04    -0.13  -0.08   0.01
   7   6     0.03  -0.17  -0.05    -0.04   0.18   0.05    -0.01   0.02   0.00
   8   6    -0.06   0.13   0.03     0.07  -0.14  -0.03     0.03  -0.02   0.00
   9   6    -0.09  -0.12   0.01     0.11   0.17   0.01    -0.00   0.19   0.00
  10   6     0.11   0.15   0.02    -0.13  -0.15   0.03     0.17  -0.00  -0.03
  11  17     0.00  -0.00  -0.00     0.00   0.00  -0.00    -0.00   0.00   0.00
  12   1     0.03  -0.01   0.16     0.08   0.03   0.20     0.03   0.03   0.01
  13   1     0.01   0.02   0.14    -0.02   0.03   0.11    -0.03  -0.00  -0.03
  14   1    -0.28  -0.08  -0.18    -0.23  -0.04  -0.14     0.01   0.02   0.01
  15   1    -0.22   0.26   0.04    -0.26   0.23   0.01     0.03  -0.03   0.00
  16   1     0.28  -0.11  -0.08     0.11  -0.06  -0.09    -0.05   0.04   0.03
  17   1    -0.12   0.01  -0.01     0.26   0.03  -0.06    -0.43   0.08   0.05
  18   1     0.04   0.09  -0.03     0.04  -0.23  -0.01     0.26  -0.46  -0.02
  19   1     0.19  -0.09   0.00    -0.20   0.09   0.00    -0.04   0.02  -0.02
  20   1     0.20  -0.03   0.02    -0.20   0.03  -0.03    -0.00   0.01  -0.03
  21   1    -0.15  -0.13  -0.04     0.16   0.14   0.05     0.07   0.06   0.03
  22   1    -0.16  -0.02   0.02     0.18   0.03  -0.05    -0.39   0.09   0.05
  23   1     0.00   0.09  -0.05     0.01  -0.14  -0.01     0.23  -0.37  -0.01
                     34                     35                     36
                        a                      a                      a 
 Frequencies --  1190.0306              1205.1686              1218.1014
 Red. masses --     3.8916                 3.6601                 2.9884
 Frc consts  --     0.0000                 0.0000                 0.0000
 IR Inten    --     0.7222                 6.0112                 7.7641
 Raman Activ --     0.0000                 0.0000                 0.0000
 Depolar     --     0.0000                 0.0000                 0.0000
 Atom AN      X      Y      Z        X      Y      Z        X      Y      Z
   1   7    -0.01  -0.00   0.00    -0.11  -0.14   0.13     0.06   0.11  -0.14
   2   6     0.05  -0.04  -0.02     0.18   0.05  -0.13    -0.03  -0.15   0.05
   3   6    -0.11   0.08   0.03    -0.27   0.08   0.03    -0.14   0.17   0.07
   4   6    -0.08  -0.12   0.01     0.04   0.05  -0.00     0.02  -0.02  -0.00
   5   6    -0.01  -0.01   0.00     0.04   0.12  -0.01     0.03   0.08  -0.01
   6   6    -0.35   0.17   0.06    -0.14   0.06   0.03    -0.18   0.08   0.03
   7   6     0.02  -0.13  -0.04     0.00  -0.05  -0.01     0.00  -0.05  -0.02
   8   6     0.03  -0.03  -0.01     0.02  -0.01  -0.00     0.02  -0.02  -0.01
   9   6     0.05   0.04  -0.01    -0.04  -0.03   0.00    -0.09  -0.03   0.01
  10   6     0.08   0.16  -0.01     0.02  -0.01  -0.00     0.01  -0.03  -0.02
  11  17     0.00  -0.00   0.00     0.00   0.00   0.00    -0.00   0.00  -0.00
  12   1    -0.01  -0.01  -0.02     0.03   0.05  -0.08    -0.00  -0.01   0.07
  13   1     0.00  -0.00  -0.01    -0.07  -0.04  -0.15     0.09   0.02   0.13
  14   1     0.01  -0.00   0.01     0.15   0.09   0.11    -0.08  -0.06  -0.08
  15   1     0.04  -0.03   0.00    -0.30  -0.07  -0.19     0.48  -0.05   0.21
  16   1     0.07  -0.02   0.02     0.39  -0.07   0.23    -0.22   0.01  -0.20
  17   1    -0.14  -0.02   0.02     0.45  -0.02  -0.05     0.32  -0.03  -0.04
  18   1     0.18  -0.40  -0.02     0.02   0.02  -0.00    -0.04   0.12   0.00
  19   1     0.26  -0.09   0.01     0.11  -0.04  -0.00     0.17  -0.05   0.01
  20   1     0.05  -0.01  -0.00     0.02  -0.01   0.00     0.01  -0.01   0.00
  21   1     0.07   0.06   0.02     0.02   0.01   0.01     0.02   0.01   0.01
  22   1     0.63  -0.04  -0.08    -0.07  -0.00   0.00     0.02  -0.01   0.01
  23   1    -0.03   0.15  -0.00     0.14  -0.29  -0.01     0.22  -0.45   0.01
                     37                     38                     39
                        a                      a                      a 
 Frequencies --  1252.6811              1274.9137              1297.2600
 Red. masses --     6.7154                 6.1050                 4.6830
 Frc consts  --     0.0000                 0.0000                 0.0000
 IR Inten    --     1.6335                 1.9776                10.4411
 Raman Activ --     0.0000                 0.0000                 0.0000
 Depolar     --     0.0000                 0.0000                 0.0000
 Atom AN      X      Y      Z        X      Y      Z        X      Y      Z
   1   7     0.00   0.01  -0.04     0.04  -0.00  -0.02    -0.03   0.04   0.05
   2   6     0.09  -0.11  -0.05    -0.14   0.11   0.02     0.13  -0.07   0.04
   3   6    -0.39   0.23   0.09     0.13  -0.26  -0.02     0.14   0.15  -0.04
   4   6    -0.16   0.14   0.02    -0.06  -0.15   0.00    -0.00  -0.10   0.00
   5   6     0.17  -0.00  -0.03    -0.17   0.11   0.03    -0.03  -0.07   0.01
   6   6     0.33  -0.02  -0.05    -0.13   0.37   0.02    -0.13   0.14   0.01
   7   6     0.02  -0.02   0.00     0.06  -0.24  -0.06     0.11  -0.29  -0.08
   8   6    -0.02   0.10   0.03     0.04   0.10   0.03     0.12   0.23   0.07
   9   6     0.06  -0.22  -0.01     0.03   0.09  -0.01    -0.18  -0.02   0.02
  10   6    -0.18  -0.01   0.02     0.16  -0.12  -0.02     0.05   0.01  -0.01
  11  17     0.00  -0.00  -0.00     0.00  -0.00  -0.00    -0.00   0.00   0.00
  12   1     0.00  -0.00   0.02     0.01  -0.01   0.03    -0.02  -0.00  -0.04
  13   1     0.03  -0.01   0.01    -0.03   0.01   0.02     0.03  -0.00  -0.03
  14   1     0.00  -0.02  -0.01    -0.04  -0.00  -0.03     0.02  -0.02   0.02
  15   1     0.26  -0.09   0.08     0.08  -0.01   0.05    -0.24   0.07  -0.09
  16   1     0.13  -0.06   0.00    -0.07   0.03   0.00    -0.16   0.03  -0.09
  17   1     0.12   0.03  -0.01     0.41  -0.08  -0.05    -0.11  -0.02   0.01
  18   1     0.20  -0.32  -0.02     0.09  -0.27  -0.01    -0.06   0.09   0.00
  19   1    -0.40   0.08  -0.01    -0.09  -0.05  -0.01    -0.59   0.04  -0.01
  20   1     0.07   0.01  -0.00     0.19  -0.02   0.02     0.25   0.00   0.04
  21   1    -0.05  -0.02  -0.01     0.02   0.03   0.00    -0.03  -0.03  -0.02
  22   1    -0.00  -0.07  -0.00    -0.34   0.06   0.05     0.19  -0.02  -0.03
  23   1    -0.13   0.14   0.02    -0.10   0.28   0.01     0.14  -0.25  -0.02
                     40                     41                     42
                        a                      a                      a 
 Frequencies --  1318.5312              1347.7310              1367.6190
 Red. masses --     4.7160                10.7071                 3.0586
 Frc consts  --     0.0000                 0.0000                 0.0000
 IR Inten    --    21.1570                 6.6079               139.9238
 Raman Activ --     0.0000                 0.0000                 0.0000
 Depolar     --     0.0000                 0.0000                 0.0000
 Atom AN      X      Y      Z        X      Y      Z        X      Y      Z
   1   7     0.02   0.15   0.13     0.06   0.05   0.05     0.26   0.11   0.14
   2   6     0.37  -0.18   0.06     0.09  -0.01   0.01    -0.10   0.07  -0.02
   3   6    -0.09   0.14  -0.02    -0.24  -0.28   0.03     0.02   0.01   0.01
   4   6    -0.14  -0.02   0.02     0.36  -0.05  -0.05    -0.06   0.07   0.01
   5   6     0.03  -0.00  -0.00    -0.17   0.35   0.02     0.09  -0.09  -0.01
   6   6     0.15   0.11  -0.01    -0.21  -0.32   0.02    -0.02  -0.01   0.00
   7   6    -0.04   0.08   0.03     0.00  -0.02  -0.01    -0.01  -0.01  -0.00
   8   6    -0.07  -0.08  -0.03     0.04   0.03   0.01     0.01   0.01   0.00
   9   6     0.01  -0.06   0.00     0.39  -0.05  -0.05    -0.11   0.06   0.01
  10   6    -0.03  -0.09   0.00    -0.18   0.32   0.02     0.08  -0.07  -0.01
  11  17     0.00   0.00   0.00     0.00   0.00   0.00     0.01   0.00   0.00
  12   1    -0.12  -0.10  -0.11    -0.07  -0.08  -0.03    -0.30  -0.40  -0.10
  13   1     0.02   0.02  -0.13    -0.06   0.03  -0.09    -0.45   0.15  -0.38
  14   1    -0.04  -0.15  -0.01    -0.06  -0.09  -0.03    -0.23  -0.26  -0.13
  15   1    -0.36   0.07  -0.15    -0.01  -0.03  -0.02     0.11  -0.08   0.03
  16   1    -0.49   0.10  -0.24    -0.18   0.04  -0.06     0.18  -0.04   0.03
  17   1     0.12  -0.02  -0.02     0.05  -0.01  -0.00    -0.01   0.02   0.01
  18   1     0.08  -0.16  -0.01    -0.01   0.01  -0.00    -0.02   0.07   0.01
  19   1     0.25  -0.02  -0.00    -0.18   0.03  -0.00    -0.03   0.00  -0.00
  20   1    -0.07  -0.01  -0.02     0.05   0.00   0.01     0.02  -0.00   0.01
  21   1     0.01   0.02   0.00     0.02   0.01   0.01     0.01   0.01   0.01
  22   1    -0.12  -0.01   0.01     0.01  -0.01  -0.00     0.04   0.01  -0.01
  23   1    -0.05   0.04   0.00    -0.02   0.02   0.00     0.03  -0.02  -0.00
                     43                     44                     45
                        a                      a                      a 
 Frequencies --  1404.6551              1406.6385              1416.1703
 Red. masses --     2.6865                 1.7326                 8.9902
 Frc consts  --     0.0000                 0.0000                 0.0000
 IR Inten    --    11.6262                61.3660                 7.3808
 Raman Activ --     0.0000                 0.0000                 0.0000
 Depolar     --     0.0000                 0.0000                 0.0000
 Atom AN      X      Y      Z        X      Y      Z        X      Y      Z
   1   7    -0.03   0.03   0.06    -0.10   0.06   0.13    -0.02  -0.01  -0.00
   2   6    -0.06   0.02   0.01    -0.06   0.03   0.02     0.10   0.03   0.01
   3   6     0.06  -0.00  -0.01    -0.01  -0.01   0.00    -0.22  -0.28   0.03
   4   6     0.04  -0.08  -0.01    -0.00   0.04  -0.00    -0.21   0.25   0.03
   5   6    -0.08   0.06   0.01     0.03  -0.04  -0.00     0.32  -0.07  -0.04
   6   6    -0.05   0.13   0.00    -0.00  -0.04  -0.00    -0.23  -0.30   0.02
   7   6     0.30  -0.02   0.02    -0.12   0.01  -0.01     0.04   0.03  -0.01
   8   6     0.07   0.05   0.02    -0.02  -0.02  -0.01     0.10   0.03   0.02
   9   6    -0.02  -0.04   0.00     0.01   0.04  -0.00    -0.16   0.27   0.02
  10   6    -0.03   0.06   0.01     0.03  -0.04   0.00     0.31  -0.12  -0.04
  11  17    -0.00   0.00   0.00    -0.01   0.00   0.01    -0.00  -0.00  -0.00
  12   1     0.07   0.10  -0.01     0.21   0.30  -0.02     0.04   0.06  -0.03
  13   1     0.14  -0.07  -0.22     0.44  -0.20  -0.49     0.06  -0.02   0.06
  14   1    -0.09  -0.18  -0.05    -0.18  -0.41  -0.10    -0.01   0.05   0.00
  15   1     0.02  -0.01   0.01     0.07  -0.02   0.03    -0.01  -0.02  -0.01
  16   1     0.05  -0.01   0.01     0.05  -0.01   0.02    -0.19   0.06  -0.04
  17   1    -0.01  -0.02   0.00    -0.02   0.01   0.01     0.21   0.05  -0.03
  18   1     0.04  -0.12   0.01    -0.03   0.07   0.00     0.01   0.16   0.00
  19   1    -0.03   0.02   0.01     0.01  -0.01  -0.01    -0.14   0.03   0.00
  20   1    -0.55   0.13  -0.01     0.22  -0.05   0.01    -0.13   0.04  -0.00
  21   1    -0.39  -0.43  -0.16     0.16   0.17   0.06    -0.08  -0.11  -0.03
  22   1    -0.01  -0.01  -0.00     0.00   0.01  -0.01     0.16   0.06  -0.02
  23   1     0.03  -0.06  -0.01    -0.02   0.04  -0.01    -0.03   0.23  -0.00
                     46                     47                     48
                        a                      a                      a 
 Frequencies --  1439.2681              1474.3135              1490.3210
 Red. masses --     1.9220                 1.9251                 9.5641
 Frc consts  --     0.0000                 0.0000                 0.0000
 IR Inten    --    75.7374                15.0123                 2.6068
 Raman Activ --     0.0000                 0.0000                 0.0000
 Depolar     --     0.0000                 0.0000                 0.0000
 Atom AN      X      Y      Z        X      Y      Z        X      Y      Z
   1   7     0.12  -0.13   0.18    -0.02   0.02  -0.01     0.01  -0.01   0.01
   2   6    -0.02  -0.01   0.04    -0.05   0.20   0.20     0.08  -0.07  -0.02
   3   6     0.02   0.01   0.00     0.03  -0.02   0.00    -0.31   0.27   0.05
   4   6    -0.00  -0.01   0.00     0.00   0.00   0.00     0.29   0.08  -0.03
   5   6    -0.01   0.01   0.00    -0.01   0.00   0.00     0.04  -0.32  -0.01
   6   6     0.04   0.01  -0.00     0.01  -0.00  -0.00    -0.34   0.24   0.05
   7   6    -0.00   0.00   0.00    -0.00   0.00   0.00     0.05  -0.09  -0.02
   8   6    -0.01  -0.00  -0.00    -0.00  -0.00  -0.00     0.06   0.03   0.01
   9   6    -0.00  -0.03   0.00    -0.01   0.00   0.00     0.34   0.06  -0.04
  10   6    -0.03   0.03   0.00    -0.00   0.00  -0.00    -0.00  -0.31  -0.00
  11  17     0.00  -0.00   0.00    -0.00  -0.00  -0.00     0.00  -0.00  -0.00
  12   1     0.08   0.17  -0.65     0.01   0.00   0.08    -0.00   0.00  -0.03
  13   1     0.02  -0.02   0.06     0.03   0.00   0.05     0.00   0.00   0.03
  14   1    -0.50   0.43  -0.15     0.08  -0.02   0.04    -0.01   0.03   0.00
  15   1     0.02  -0.06   0.01    -0.12  -0.64  -0.14     0.02  -0.03  -0.00
  16   1     0.02  -0.02  -0.09     0.21  -0.07  -0.64     0.03  -0.02  -0.02
  17   1    -0.00  -0.00  -0.00    -0.02   0.00  -0.00    -0.22   0.05   0.03
  18   1     0.01  -0.02  -0.00    -0.00  -0.00  -0.00    -0.13   0.19   0.01
  19   1     0.01  -0.00  -0.00     0.00  -0.00   0.00     0.01  -0.03   0.00
  20   1     0.01  -0.00  -0.00     0.00  -0.00  -0.00    -0.02   0.01   0.01
  21   1     0.01   0.01   0.00     0.00   0.01   0.00    -0.03  -0.05  -0.02
  22   1     0.00  -0.01  -0.00     0.00   0.00   0.00    -0.23   0.05   0.03
  23   1     0.01  -0.03  -0.00    -0.00   0.01   0.00    -0.13   0.17   0.02
                     49                     50                     51
                        a                      a                      a 
 Frequencies --  1579.3533              1604.2021              1676.6814
 Red. masses --    11.5847                11.5353                11.2198
 Frc consts  --     0.0000                 0.0000                 0.0000
 IR Inten    --     0.3576                10.1216                 0.4687
 Raman Activ --     0.0000                 0.0000                 0.0000
 Depolar     --     0.0000                 0.0000                 0.0000
 Atom AN      X      Y      Z        X      Y      Z        X      Y      Z
   1   7    -0.00   0.00   0.00    -0.01   0.00  -0.01     0.00   0.00   0.00
   2   6    -0.04  -0.03   0.00    -0.02   0.02   0.01     0.00  -0.00  -0.00
   3   6     0.31   0.45  -0.04     0.24  -0.13  -0.03    -0.02   0.04   0.00
   4   6    -0.27  -0.18   0.03    -0.45   0.13   0.06     0.04  -0.03  -0.00
   5   6     0.02   0.34  -0.00     0.29  -0.31  -0.04    -0.02   0.07   0.01
   6   6    -0.24  -0.42   0.02    -0.23   0.11   0.03    -0.09  -0.04   0.00
   7   6    -0.05   0.02  -0.01     0.10  -0.00   0.00     0.68   0.12   0.08
   8   6     0.08   0.01   0.01    -0.06  -0.02  -0.01    -0.60  -0.18  -0.10
   9   6     0.25   0.14  -0.03     0.42  -0.14  -0.06    -0.06   0.05   0.01
  10   6    -0.05  -0.33   0.00    -0.28   0.35   0.04     0.05  -0.08  -0.01
  11  17     0.00  -0.00  -0.00    -0.00   0.00  -0.00    -0.00  -0.00  -0.00
  12   1    -0.01  -0.00  -0.01    -0.00  -0.00   0.00     0.00   0.00  -0.00
  13   1    -0.00   0.00   0.00    -0.00   0.00  -0.01     0.00  -0.00   0.00
  14   1    -0.00   0.00   0.00     0.00  -0.01   0.00    -0.00   0.00  -0.00
  15   1    -0.02   0.02  -0.00    -0.02   0.01  -0.01     0.00  -0.00   0.00
  16   1     0.08  -0.03  -0.00    -0.00   0.00   0.00     0.00  -0.00  -0.00
  17   1     0.05  -0.05  -0.01     0.11   0.01  -0.01    -0.00  -0.00  -0.00
  18   1     0.07  -0.06  -0.01    -0.01   0.09  -0.00    -0.00   0.01  -0.01
  19   1    -0.05   0.01  -0.00    -0.02   0.01   0.01    -0.08   0.09   0.04
  20   1    -0.03   0.02  -0.00     0.02  -0.02   0.00     0.12  -0.13  -0.02
  21   1    -0.00  -0.02   0.00     0.00   0.02   0.00    -0.00   0.15   0.05
  22   1    -0.05   0.05   0.01    -0.09  -0.02   0.01     0.01   0.01  -0.00
  23   1    -0.07   0.03   0.01     0.02  -0.11  -0.00    -0.01   0.02   0.00
                     52                     53                     54
                        a                      a                      a 
 Frequencies --  2937.1679              2956.0111              2982.3911
 Red. masses --     1.9505                 1.9695                 1.5207
 Frc consts  --     0.0000                 0.0000                 0.0000
 IR Inten    --  1124.3723               105.5211                17.1568
 Raman Activ --     0.0000                 0.0000                 0.0000
 Depolar     --     0.0000                 0.0000                 0.0000
 Atom AN      X      Y      Z        X      Y      Z        X      Y      Z
   1   7     0.07   0.24  -0.03    -0.03  -0.09   0.01     0.02   0.04  -0.01
   2   6    -0.03  -0.09   0.05    -0.11  -0.18   0.18    -0.01   0.15   0.14
   3   6    -0.00  -0.00   0.00    -0.01  -0.01   0.00    -0.00   0.01   0.00
   4   6     0.00   0.00  -0.00     0.00   0.00   0.00     0.00  -0.00   0.00
   5   6    -0.00   0.00   0.00     0.00  -0.00  -0.00     0.00   0.00  -0.00
   6   6    -0.00  -0.00   0.00     0.00   0.00  -0.00     0.00  -0.00   0.00
   7   6     0.00   0.00   0.00     0.00   0.00   0.00    -0.00  -0.00  -0.00
   8   6    -0.00   0.00   0.00     0.00  -0.00   0.00     0.00   0.00   0.00
   9   6     0.00   0.00  -0.00    -0.00  -0.00  -0.00     0.00  -0.00   0.00
  10   6    -0.01  -0.00   0.00     0.01   0.00  -0.00    -0.00  -0.00  -0.00
  11  17    -0.00  -0.01   0.00     0.00   0.00  -0.00    -0.00  -0.00   0.00
  12   1     0.03  -0.00  -0.01    -0.01   0.00   0.00     0.01   0.00   0.00
  13   1    -0.29  -0.84   0.08     0.11   0.31  -0.03    -0.05  -0.15   0.02
  14   1    -0.01   0.01   0.03    -0.00  -0.01   0.00    -0.01   0.00   0.02
  15   1     0.06   0.01  -0.14     0.27   0.10  -0.65     0.24   0.13  -0.57
  16   1     0.08   0.32  -0.02     0.14   0.53  -0.01    -0.20  -0.69   0.06
  17   1     0.00  -0.00   0.00     0.00  -0.01   0.00    -0.00   0.01   0.00
  18   1     0.00   0.00   0.00    -0.00  -0.00   0.00    -0.00  -0.00   0.00
  19   1    -0.00  -0.00  -0.00     0.00   0.00  -0.00     0.00   0.00   0.00
  20   1    -0.00  -0.00   0.00     0.00  -0.00   0.00    -0.00  -0.00  -0.00
  21   1     0.00  -0.00  -0.00    -0.00   0.00   0.00     0.00   0.00   0.00
  22   1    -0.00  -0.01  -0.00     0.00   0.00  -0.00    -0.00   0.00  -0.00
  23   1     0.03   0.01  -0.01    -0.02  -0.01   0.00     0.01   0.00  -0.00
                     55                     56                     57
                        a                      a                      a 
 Frequencies --  3093.7035              3099.2754              3104.3791
 Red. masses --     1.8724                 1.8132                 1.7946
 Frc consts  --     0.0000                 0.0000                 0.0000
 IR Inten    --   264.5034                37.1553                28.3173
 Raman Activ --     0.0000                 0.0000                 0.0000
 Depolar     --     0.0000                 0.0000                 0.0000
 Atom AN      X      Y      Z        X      Y      Z        X      Y      Z
   1   7    -0.00  -0.01   0.00    -0.00  -0.00   0.00    -0.00  -0.00   0.00
   2   6    -0.00  -0.00   0.00     0.00  -0.00   0.00    -0.00  -0.00  -0.00
   3   6    -0.01   0.01   0.00    -0.00   0.00   0.00     0.01  -0.01  -0.00
   4   6     0.00   0.02  -0.00     0.00   0.02  -0.00    -0.02  -0.26   0.00
   5   6     0.00   0.00  -0.00    -0.01  -0.00   0.00     0.06   0.03  -0.01
   6   6     0.00   0.00  -0.00     0.00   0.01   0.00     0.00   0.00  -0.00
   7   6    -0.01  -0.04  -0.01     0.06   0.25   0.07     0.00   0.01   0.00
   8   6     0.00   0.00   0.00     0.01  -0.03  -0.01    -0.00  -0.01  -0.00
   9   6     0.01   0.03  -0.00    -0.00  -0.02  -0.00     0.00   0.01   0.00
  10   6    -0.25  -0.12   0.03    -0.04  -0.02   0.00    -0.02  -0.01   0.00
  11  17     0.00  -0.00   0.00     0.00  -0.00   0.00    -0.00  -0.00   0.00
  12   1     0.00   0.00   0.00    -0.00   0.00   0.00    -0.00   0.00   0.00
  13   1     0.02   0.04  -0.00     0.00   0.01  -0.00     0.00   0.00  -0.00
  14   1     0.00  -0.00  -0.01     0.00   0.00  -0.00     0.00  -0.00  -0.00
  15   1     0.00   0.00  -0.00     0.00   0.00  -0.00    -0.00  -0.00   0.00
  16   1     0.00   0.00  -0.00     0.00  -0.00  -0.00    -0.00   0.01  -0.00
  17   1    -0.01  -0.08   0.00    -0.01  -0.06   0.00     0.08   0.91  -0.01
  18   1    -0.01  -0.00   0.00     0.02   0.01  -0.00    -0.24  -0.12   0.03
  19   1     0.03   0.14   0.04    -0.17  -0.89  -0.25    -0.01  -0.05  -0.01
  20   1    -0.00  -0.01  -0.00     0.02   0.06   0.02     0.00   0.02   0.01
  21   1     0.01  -0.00  -0.00    -0.08   0.06   0.01    -0.00   0.00   0.00
  22   1    -0.01  -0.14   0.00     0.00   0.05   0.00    -0.00  -0.02   0.00
  23   1     0.84   0.40  -0.10     0.14   0.07  -0.02     0.07   0.03  -0.01
                     58                     59                     60
                        a                      a                      a 
 Frequencies --  3120.4756              3126.2939              3148.1042
 Red. masses --     1.8484                 1.8532                 1.5525
 Frc consts  --     0.0000                 0.0000                 0.0000
 IR Inten    --    10.2437                23.9662                15.4281
 Raman Activ --     0.0000                 0.0000                 0.0000
 Depolar     --     0.0000                 0.0000                 0.0000
 Atom AN      X      Y      Z        X      Y      Z        X      Y      Z
   1   7    -0.00   0.00  -0.00     0.00   0.00  -0.00     0.00   0.00  -0.00
   2   6    -0.00  -0.00  -0.00     0.00   0.00  -0.00     0.00   0.00  -0.00
   3   6     0.00   0.00  -0.00    -0.00  -0.00   0.00    -0.00  -0.00   0.00
   4   6    -0.00  -0.01  -0.00     0.01   0.08  -0.00     0.00   0.00   0.00
   5   6    -0.01  -0.00   0.00     0.23   0.11  -0.03     0.01   0.01  -0.00
   6   6     0.01  -0.01  -0.00     0.01  -0.00  -0.00    -0.00   0.00   0.00
   7   6    -0.00  -0.02  -0.01     0.00   0.00   0.00    -0.01  -0.02  -0.01
   8   6     0.00   0.01   0.00    -0.01  -0.02  -0.01     0.22  -0.01   0.01
   9   6    -0.02  -0.27   0.00    -0.00  -0.01   0.00     0.00   0.00   0.00
  10   6    -0.04  -0.02   0.00     0.01   0.00  -0.00     0.00   0.00  -0.00
  11  17     0.00   0.00   0.00     0.00   0.00   0.00     0.00   0.00  -0.00
  12   1     0.00  -0.00  -0.00     0.00  -0.00  -0.00     0.00  -0.00  -0.00
  13   1     0.00  -0.00   0.00    -0.00  -0.00  -0.00    -0.00  -0.00   0.00
  14   1    -0.00  -0.00   0.00    -0.00   0.00   0.00    -0.00   0.00   0.00
  15   1    -0.00  -0.00   0.00    -0.00  -0.00   0.00    -0.00  -0.00   0.00
  16   1     0.00   0.00  -0.00     0.00  -0.00   0.00     0.00   0.00   0.00
  17   1     0.00   0.02  -0.00    -0.02  -0.27   0.00    -0.00  -0.01   0.00
  18   1     0.02   0.01  -0.00    -0.82  -0.40   0.12    -0.05  -0.02   0.01
  19   1     0.01   0.07   0.02    -0.00  -0.00  -0.00     0.01   0.04   0.01
  20   1    -0.00  -0.02  -0.01     0.01   0.07   0.02    -0.08  -0.47  -0.15
  21   1     0.00  -0.00  -0.00     0.01  -0.01  -0.00    -0.63   0.54   0.11
  22   1     0.08   0.95  -0.00     0.00   0.03  -0.00    -0.00  -0.01   0.00
  23   1     0.11   0.05  -0.01    -0.03  -0.01   0.00    -0.01  -0.00   0.00
                     61                     62                     63
                        a                      a                      a 
 Frequencies --  3178.7163              3231.1045              3247.6513
 Red. masses --     2.0667                 1.8282                 1.7048
 Frc consts  --     0.0000                 0.0000                 0.0000
 IR Inten    --    39.1305                33.6389                30.9847
 Raman Activ --     0.0000                 0.0000                 0.0000
 Depolar     --     0.0000                 0.0000                 0.0000
 Atom AN      X      Y      Z        X      Y      Z        X      Y      Z
   1   7    -0.00  -0.00   0.00     0.20  -0.14  -0.05    -0.07  -0.03   0.22
   2   6     0.00   0.00  -0.00     0.00  -0.00   0.00     0.00   0.00   0.01
   3   6    -0.00  -0.00   0.00     0.00   0.00   0.00     0.00  -0.00  -0.00
   4   6     0.00   0.00  -0.00    -0.00   0.00   0.00    -0.00   0.00   0.00
   5   6     0.01   0.01  -0.00     0.00   0.00  -0.00     0.00   0.00   0.00
   6   6     0.00   0.00  -0.00     0.00   0.00   0.00    -0.00  -0.00   0.00
   7   6     0.00   0.04   0.01     0.00  -0.00  -0.00    -0.00  -0.00  -0.00
   8   6    -0.05   0.29   0.08     0.00   0.00   0.00     0.00  -0.00  -0.00
   9   6     0.00   0.00  -0.00    -0.00  -0.00  -0.00    -0.00  -0.00   0.00
  10   6    -0.00   0.00   0.00    -0.00   0.00   0.00     0.00   0.00  -0.00
  11  17     0.00  -0.00  -0.00     0.00   0.00   0.00     0.00   0.00  -0.00
  12   1     0.00  -0.00  -0.00    -0.75   0.59   0.10    -0.09   0.06   0.03
  13   1    -0.00   0.00  -0.00     0.01  -0.05  -0.00    -0.02  -0.04   0.02
  14   1     0.00   0.00  -0.00    -0.02  -0.03   0.09     0.38   0.10  -0.88
  15   1    -0.00   0.00   0.00    -0.00  -0.00   0.00     0.01   0.00  -0.02
  16   1    -0.00  -0.00   0.00    -0.00   0.00  -0.00    -0.00  -0.01  -0.00
  17   1    -0.00  -0.00   0.00     0.00  -0.00   0.00    -0.00  -0.00  -0.00
  18   1    -0.05  -0.03   0.01    -0.00  -0.00   0.00    -0.00  -0.00   0.00
  19   1    -0.02  -0.10  -0.03     0.00   0.00   0.00     0.00   0.00   0.00
  20   1    -0.19  -0.76  -0.24    -0.00  -0.00  -0.00     0.00   0.00   0.00
  21   1     0.38  -0.28  -0.05    -0.00   0.00   0.00    -0.00   0.00   0.00
  22   1    -0.00  -0.01   0.00     0.00   0.00   0.00    -0.00   0.00  -0.00
  23   1    -0.00   0.00   0.00     0.00   0.00  -0.00    -0.01  -0.00   0.00
