18
 energy: -22.662959026418 gnorm: 0.000743661300 xtb: 6.5.1 (fef0646)
N            1.37229027638248        0.69899510041094       -0.69832938564610
C            2.53177200333258        0.03841518297657       -0.03572576985880
C            3.01026678926811       -1.12842428601463       -0.86029509395868
C            3.96219228959315       -0.93916490665502       -1.85498851368138
C            4.38533895863795       -2.00615620783155       -2.62814453311483
C            3.85751657200651       -3.26922915719866       -2.41496542677232
C            2.90815074810728       -3.46436831723411       -1.42505570037286
C            2.48467224028601       -2.39771669096938       -0.65145025746291
H            1.05544244762084        1.50597881949155       -0.14825574215449
H            0.59487382433307        0.03505941640158       -0.79427677244624
H            1.64019304120987        1.01897653648227       -1.63644080743300
H            2.22557797093513       -0.30723713214870        0.95107240828824
H            3.33549198058256        0.76562647159141        0.07593790617581
H            4.38980367792954        0.03804719330200       -2.02065541681608
H            5.12942363954229       -1.85688298421369       -3.39612348940018
H            4.18989976095886       -4.10223751798056       -3.01654905920157
H            2.50179105933042       -4.45035595072472       -1.25649850657055
H            1.75405271994333       -2.56327556968532        0.12572416042594
