 Entering Gaussian System
 *********************************************
 Gaussian 98:
 frequency output generated by the xtb code
 *********************************************
                         Standard orientation:
 --------------------------------------------------------------------
  Center     Atomic     Atomic              Coordinates (Angstroms)
  Number     Number      Type              X           Y           Z
 --------------------------------------------------------------------
    1          7             0       -3.221603   -0.736743    0.197943
    2          6             0       -2.615111   -2.098096    0.187533
    3          6             0       -1.557745   -2.256734   -0.902491
    4          6             0       -0.407809   -1.305679   -0.748836
    5          6             0       -0.264697   -0.215471   -1.594939
    6          6             0        0.781799    0.664423   -1.438004
    7          6             0        1.725101    0.493510   -0.422407
    8          8             0        2.751557    1.438325   -0.324452
    9          6             0        3.663729    1.214762    0.728865
   10          6             0        1.572528   -0.606018    0.426206
   11          6             0        0.525023   -1.484102    0.262901
   12         17             0       -0.999386    1.817338    1.263140
   13          1             0       -3.620016   -0.505512   -0.721767
   14          1             0       -2.511809   -0.017366    0.418479
   15          1             0       -3.972211   -0.654968    0.897875
   16          1             0       -3.404755   -2.848642    0.060517
   17          1             0       -2.168558   -2.302877    1.167472
   18          1             0       -2.019748   -2.106403   -1.883849
   19          1             0       -1.171010   -3.282146   -0.916050
   20          1             0       -0.984849   -0.061049   -2.380467
   21          1             0        0.889641    1.509242   -2.095376
   22          1             0        4.165634    0.256219    0.592535
   23          1             0        3.142993    1.237927    1.687547
   24          1             0        4.412843    2.008038    0.717451
   25          1             0        2.278900   -0.769830    1.219994
   26          1             0        0.419261   -2.325601    0.926913
 --------------------------------------------------------------------
     1 basis functions        1 primitive gaussians
     1 alpha electrons        1 beta electrons

 Harmonic frequencies (cm**-1), IR intensities (km*mol⁻¹),
 Raman scattering activities (A**4/amu), Raman depolarization ratios,
 reduced masses (AMU), force constants (mDyne/A) and normal coordinates:
                      1                      2                      3
                        a                      a                      a 
 Frequencies --  -136.2586                30.3599                51.9229
 Red. masses --    22.8971                14.6794                17.8751
 Frc consts  --     0.0000                 0.0000                 0.0000
 IR Inten    --    95.9151                 2.1821                10.1053
 Raman Activ --     0.0000                 0.0000                 0.0000
 Depolar     --     0.0000                 0.0000                 0.0000
 Atom AN      X      Y      Z        X      Y      Z        X      Y      Z
   1   7    -0.33  -0.38  -0.18    -0.10  -0.05  -0.06     0.23   0.17   0.02
   2   6    -0.02  -0.23  -0.07     0.04   0.02   0.07     0.01   0.07   0.04
   3   6     0.01  -0.07  -0.06     0.04   0.00   0.06    -0.04  -0.09   0.01
   4   6    -0.03  -0.01   0.00     0.04  -0.00   0.06    -0.02  -0.11  -0.05
   5   6    -0.04   0.00   0.01    -0.14   0.18   0.26    -0.14  -0.01   0.06
   6   6    -0.04   0.00   0.02    -0.14   0.19   0.28    -0.19   0.04   0.10
   7   6    -0.03  -0.00   0.01     0.03  -0.00   0.08    -0.13  -0.00   0.04
   8   8    -0.04  -0.01   0.01     0.03   0.01   0.13    -0.24   0.08   0.13
   9   6    -0.04  -0.00   0.02     0.21  -0.18  -0.10    -0.32   0.18   0.23
  10   6    -0.03  -0.01   0.01     0.21  -0.19  -0.13     0.01  -0.13  -0.10
  11   6    -0.03  -0.02  -0.00     0.21  -0.18  -0.13     0.07  -0.18  -0.14
  12  17     0.43   0.54   0.17    -0.29   0.16  -0.31     0.48  -0.06  -0.26
  13   1    -0.18  -0.17  -0.03    -0.07  -0.06  -0.01     0.03   0.04   0.02
  14   1    -0.10  -0.08  -0.16    -0.04   0.02  -0.08     0.11   0.02  -0.05
  15   1    -0.03  -0.09   0.01    -0.00  -0.00   0.01     0.10   0.10   0.04
  16   1     0.04  -0.11  -0.01     0.03  -0.02   0.04    -0.03   0.05   0.02
  17   1     0.00  -0.02  -0.02     0.02   0.04   0.02     0.01   0.01   0.01
  18   1     0.01  -0.01  -0.02     0.01  -0.00   0.02    -0.02  -0.04   0.00
  19   1     0.02  -0.01  -0.03     0.01   0.00   0.02    -0.02  -0.03   0.02
  20   1    -0.01   0.00   0.00    -0.08   0.10   0.12    -0.06   0.01   0.04
  21   1    -0.01   0.00   0.01    -0.08   0.10   0.13    -0.08   0.04   0.06
  22   1    -0.01  -0.00   0.01     0.08  -0.03  -0.13    -0.04   0.08   0.08
  23   1    -0.02   0.00   0.00     0.11  -0.15  -0.00    -0.13   0.02   0.04
  24   1    -0.01   0.00   0.01     0.04  -0.03   0.00    -0.13   0.09   0.11
  25   1    -0.01  -0.00   0.00     0.11  -0.10  -0.09     0.03  -0.05  -0.05
  26   1    -0.00  -0.01  -0.00     0.10  -0.10  -0.09     0.05  -0.08  -0.07
                      4                      5                      6
                        a                      a                      a 
 Frequencies --    72.3990                75.2433               110.7295
 Red. masses --    16.3572                16.1384                15.0159
 Frc consts  --     0.0000                 0.0000                 0.0000
 IR Inten    --    21.5993                 5.1422                23.7922
 Raman Activ --     0.0000                 0.0000                 0.0000
 Depolar     --     0.0000                 0.0000                 0.0000
 Atom AN      X      Y      Z        X      Y      Z        X      Y      Z
   1   7    -0.09  -0.22   0.37     0.02  -0.02   0.26     0.45   0.02   0.19
   2   6     0.10  -0.12   0.10     0.14   0.03   0.14     0.13  -0.11  -0.10
   3   6    -0.08   0.18  -0.11    -0.07   0.08  -0.07     0.05  -0.13  -0.17
   4   6    -0.07   0.16  -0.05     0.03  -0.03  -0.15     0.01  -0.11  -0.12
   5   6     0.04   0.14  -0.06     0.08  -0.02  -0.13     0.01  -0.09  -0.10
   6   6     0.08   0.09  -0.00     0.14  -0.09  -0.13    -0.07  -0.01   0.02
   7   6     0.00   0.06   0.06     0.12  -0.14  -0.12    -0.15   0.03   0.11
   8   8     0.06  -0.00   0.13     0.12  -0.15  -0.05    -0.20   0.05   0.18
   9   6     0.04  -0.10   0.10    -0.20   0.09   0.27     0.09  -0.25  -0.14
  10   6    -0.12   0.09   0.08     0.11  -0.19  -0.18    -0.18   0.04   0.11
  11   6    -0.15   0.14   0.02     0.08  -0.14  -0.21    -0.10  -0.03  -0.01
  12  17     0.13  -0.22  -0.47    -0.34   0.34   0.14    -0.11   0.41   0.02
  13   1    -0.21  -0.11   0.17    -0.07  -0.03   0.10     0.11   0.07   0.07
  14   1    -0.00  -0.03  -0.07    -0.00   0.02   0.00     0.15  -0.03   0.07
  15   1     0.11  -0.06   0.24     0.06  -0.02   0.13     0.14   0.01   0.07
  16   1     0.05  -0.06   0.05     0.05  -0.01   0.09    -0.01   0.02  -0.05
  17   1     0.09  -0.04  -0.00     0.10   0.02   0.02     0.04  -0.11  -0.04
  18   1    -0.07   0.12  -0.00    -0.06   0.06   0.01     0.00  -0.02  -0.04
  19   1    -0.01   0.06  -0.12    -0.04   0.02  -0.07     0.01  -0.04  -0.07
  20   1     0.03   0.05  -0.03     0.02   0.01  -0.03     0.03  -0.04  -0.05
  21   1     0.05   0.02  -0.00     0.05  -0.02  -0.03    -0.02   0.00   0.01
  22   1    -0.03  -0.05   0.04    -0.02   0.03   0.17    -0.01  -0.08  -0.14
  23   1     0.01  -0.00   0.03    -0.15   0.06   0.03     0.11  -0.12   0.01
  24   1     0.04  -0.06   0.02    -0.07   0.04   0.11     0.04  -0.09  -0.05
  25   1    -0.06   0.02   0.04     0.04  -0.08  -0.06    -0.08   0.03   0.06
  26   1    -0.07   0.05   0.01     0.02  -0.05  -0.07    -0.04  -0.01  -0.00
                      7                      8                      9
                        a                      a                      a 
 Frequencies --   156.8102               189.6235               217.3983
 Red. masses --     9.6642                 8.7928                 4.3791
 Frc consts  --     0.0000                 0.0000                 0.0000
 IR Inten    --     3.3761                 1.2922                 3.6269
 Raman Activ --     0.0000                 0.0000                 0.0000
 Depolar     --     0.0000                 0.0000                 0.0000
 Atom AN      X      Y      Z        X      Y      Z        X      Y      Z
   1   7     0.19  -0.06   0.15     0.19  -0.02  -0.27     0.06   0.14  -0.13
   2   6    -0.21  -0.23  -0.29     0.32   0.05   0.20    -0.05   0.09  -0.12
   3   6     0.03  -0.02  -0.08     0.11  -0.12   0.04    -0.01  -0.01  -0.07
   4   6    -0.07   0.07   0.16    -0.03   0.05  -0.09     0.03  -0.08   0.05
   5   6    -0.15   0.15   0.24    -0.17   0.16   0.03     0.02  -0.07   0.05
   6   6    -0.07   0.07   0.13    -0.15   0.15   0.05     0.00  -0.06   0.05
   7   6     0.08  -0.07  -0.04    -0.07   0.03  -0.04     0.01  -0.04   0.05
   8   8     0.25  -0.22  -0.27     0.17  -0.22  -0.17    -0.01  -0.01  -0.09
   9   6    -0.04   0.14   0.05    -0.11  -0.19   0.09     0.08   0.15  -0.12
  10   6     0.04  -0.01   0.02    -0.16   0.12   0.04    -0.00  -0.01   0.09
  11   6    -0.02   0.03   0.10    -0.10   0.09  -0.02     0.01  -0.04   0.08
  12  17    -0.04   0.10  -0.09    -0.03  -0.04   0.07    -0.11  -0.08   0.15
  13   1     0.08   0.10   0.06     0.04  -0.11  -0.09    -0.43  -0.14   0.11
  14   1     0.11  -0.09   0.11     0.03   0.03  -0.14     0.15   0.04  -0.50
  15   1     0.05  -0.02   0.04     0.06   0.05  -0.07     0.36   0.21   0.31
  16   1    -0.11   0.01  -0.24     0.11  -0.03   0.19    -0.03   0.04  -0.02
  17   1    -0.15  -0.22  -0.07     0.16   0.15   0.05    -0.01   0.03  -0.04
  18   1     0.06   0.01  -0.05    -0.01  -0.09   0.02     0.03   0.02  -0.03
  19   1     0.03   0.00  -0.03     0.07  -0.02   0.05    -0.03  -0.01  -0.02
  20   1    -0.07   0.07   0.10    -0.07   0.06   0.03     0.01  -0.02   0.01
  21   1    -0.03   0.03   0.04    -0.05   0.06   0.03    -0.00  -0.02   0.02
  22   1    -0.06  -0.01   0.19    -0.18  -0.15   0.19     0.04   0.05  -0.02
  23   1    -0.07   0.21  -0.02    -0.08   0.16  -0.00     0.04   0.06  -0.03
  24   1     0.04  -0.01  -0.06     0.10  -0.18  -0.05     0.00   0.06  -0.07
  25   1     0.02  -0.01  -0.00    -0.07   0.05   0.04    -0.00   0.01   0.03
  26   1     0.00   0.01   0.03    -0.03   0.02  -0.01     0.00  -0.01   0.03
                     10                     11                     12
                        a                      a                      a 
 Frequencies --   244.0904               271.2522               333.5985
 Red. masses --     5.9510                 7.1121                 9.4475
 Frc consts  --     0.0000                 0.0000                 0.0000
 IR Inten    --     2.8220                 2.4294                16.2310
 Raman Activ --     0.0000                 0.0000                 0.0000
 Depolar     --     0.0000                 0.0000                 0.0000
 Atom AN      X      Y      Z        X      Y      Z        X      Y      Z
   1   7     0.15  -0.03  -0.06     0.14  -0.06  -0.12    -0.19   0.08   0.14
   2   6    -0.07  -0.11   0.01     0.20  -0.02   0.08     0.14   0.18  -0.16
   3   6     0.09  -0.09   0.17    -0.09   0.08  -0.17     0.11   0.09  -0.19
   4   6    -0.11   0.17   0.12    -0.11   0.07  -0.02     0.29  -0.22   0.00
   5   6    -0.07   0.07  -0.02    -0.05   0.10   0.04     0.07  -0.16   0.07
   6   6     0.00   0.03  -0.16     0.02  -0.03   0.15    -0.21   0.12   0.12
   7   6     0.05   0.05  -0.19     0.02  -0.20   0.11    -0.09   0.06  -0.02
   8   8     0.10  -0.00  -0.01     0.00  -0.20  -0.12     0.08  -0.12  -0.27
   9   6    -0.13  -0.26   0.14     0.11   0.29  -0.12    -0.22  -0.18  -0.01
  10   6     0.06   0.08  -0.16    -0.09  -0.16   0.14    -0.02   0.16   0.13
  11   6    -0.07   0.22   0.08    -0.25   0.01   0.10     0.13  -0.02   0.19
  12  17    -0.04  -0.00   0.03     0.01   0.01  -0.00     0.02  -0.01  -0.02
  13   1    -0.03  -0.04   0.01     0.14  -0.03  -0.08    -0.08   0.06   0.06
  14   1     0.10  -0.04  -0.12     0.00  -0.00   0.04    -0.11   0.07   0.09
  15   1     0.11   0.07   0.05    -0.04  -0.02  -0.12    -0.06  -0.11   0.05
  16   1    -0.04  -0.00  -0.05     0.07  -0.03   0.12     0.06   0.03  -0.03
  17   1    -0.08  -0.06   0.02     0.14   0.06  -0.00     0.08   0.06  -0.06
  18   1     0.05  -0.11   0.02    -0.08   0.10  -0.01     0.06   0.12  -0.05
  19   1     0.10   0.00   0.12    -0.02   0.03  -0.14    -0.07  -0.01  -0.10
  20   1    -0.02  -0.00  -0.01    -0.00   0.05   0.01    -0.00  -0.09   0.03
  21   1     0.00  -0.01  -0.07     0.04   0.01   0.07    -0.12   0.06   0.06
  22   1     0.18   0.07  -0.16     0.30   0.24  -0.13     0.04   0.01  -0.06
  23   1    -0.14  -0.43  -0.01     0.01  -0.16  -0.04    -0.16  -0.20  -0.05
  24   1    -0.21   0.09   0.33    -0.19   0.30   0.07    -0.14   0.02   0.16
  25   1     0.05  -0.02  -0.09    -0.01  -0.07   0.03    -0.01   0.09   0.04
  26   1    -0.02   0.08   0.05    -0.12   0.01   0.03     0.05   0.02   0.09
                     13                     14                     15
                        a                      a                      a 
 Frequencies --   352.5707               378.1838               389.1628
 Red. masses --     9.1271                 8.8176                 9.7560
 Frc consts  --     0.0000                 0.0000                 0.0000
 IR Inten    --    10.3475                 0.2743                 0.5902
 Raman Activ --     0.0000                 0.0000                 0.0000
 Depolar     --     0.0000                 0.0000                 0.0000
 Atom AN      X      Y      Z        X      Y      Z        X      Y      Z
   1   7     0.16  -0.06  -0.16     0.04  -0.02  -0.04    -0.11   0.05   0.11
   2   6     0.11  -0.05   0.02    -0.02  -0.03   0.04     0.13   0.13  -0.15
   3   6    -0.07   0.32  -0.11    -0.07   0.01  -0.01     0.37   0.02   0.09
   4   6    -0.01   0.12   0.34    -0.03  -0.02   0.02     0.07   0.29  -0.01
   5   6    -0.03  -0.00   0.20     0.23  -0.25  -0.24     0.02   0.18  -0.14
   6   6     0.09  -0.14  -0.15    -0.24   0.22   0.25     0.09   0.01   0.02
   7   6     0.00  -0.08  -0.09     0.02   0.02  -0.02    -0.06  -0.25   0.07
   8   8    -0.27   0.13   0.01     0.03   0.04   0.03    -0.34  -0.13  -0.04
   9   6    -0.23  -0.16  -0.08     0.03   0.02   0.03    -0.20  -0.03  -0.15
  10   6     0.17  -0.07  -0.04     0.24  -0.22  -0.29     0.12  -0.25   0.09
  11   6     0.09  -0.03   0.22    -0.22   0.22   0.24    -0.09   0.05   0.07
  12  17    -0.01   0.01   0.01    -0.00   0.00   0.00     0.01  -0.00  -0.00
  13   1     0.08  -0.05  -0.07     0.02  -0.02  -0.02    -0.09   0.04   0.06
  14   1     0.05  -0.02  -0.05     0.02  -0.01  -0.02    -0.06   0.05   0.04
  15   1     0.02   0.03  -0.07     0.01   0.02  -0.01    -0.00  -0.08   0.07
  16   1     0.04  -0.03   0.03    -0.01  -0.01   0.02     0.06   0.02  -0.09
  17   1     0.07   0.00  -0.01     0.00  -0.00   0.01    -0.01   0.02  -0.03
  18   1    -0.04   0.31   0.01    -0.03   0.04   0.01     0.16  -0.18  -0.03
  19   1    -0.06   0.08  -0.26    -0.03  -0.00  -0.04     0.19   0.04   0.21
  20   1    -0.04  -0.02   0.08     0.14  -0.15  -0.15     0.02   0.04  -0.05
  21   1     0.04  -0.07  -0.08    -0.15   0.13   0.15     0.11   0.03   0.06
  22   1    -0.18  -0.10  -0.02    -0.06  -0.04   0.06    -0.08  -0.02  -0.02
  23   1    -0.05   0.02  -0.01     0.02   0.10   0.01    -0.02   0.04  -0.03
  24   1     0.02  -0.13  -0.05     0.07  -0.05  -0.05    -0.04  -0.03  -0.10
  25   1     0.07  -0.01  -0.04     0.14  -0.13  -0.16     0.05  -0.10   0.00
  26   1     0.04  -0.01   0.07    -0.13   0.15   0.16    -0.11   0.00  -0.01
                     16                     17                     18
                        a                      a                      a 
 Frequencies --   458.3039               500.6888               530.5705
 Red. masses --     9.8974                10.1617                 8.9286
 Frc consts  --     0.0000                 0.0000                 0.0000
 IR Inten    --     0.9197                 2.6591                 4.0027
 Raman Activ --     0.0000                 0.0000                 0.0000
 Depolar     --     0.0000                 0.0000                 0.0000
 Atom AN      X      Y      Z        X      Y      Z        X      Y      Z
   1   7     0.09  -0.08  -0.08    -0.00   0.00  -0.00    -0.03   0.05   0.05
   2   6    -0.19  -0.15   0.16     0.10   0.04  -0.06     0.12   0.08  -0.13
   3   6    -0.06   0.20   0.20     0.14   0.13   0.02    -0.05  -0.20  -0.20
   4   6     0.04   0.15  -0.02    -0.03   0.17   0.25    -0.35   0.10   0.21
   5   6     0.24  -0.01  -0.22    -0.06  -0.11  -0.10     0.00  -0.08   0.09
   6   6     0.03   0.14   0.17    -0.20   0.08  -0.26     0.09  -0.18   0.13
   7   6    -0.18   0.13   0.31    -0.39   0.15   0.01    -0.06   0.27   0.31
   8   8     0.02  -0.12  -0.27     0.02  -0.39   0.18     0.18   0.21  -0.19
   9   6    -0.17  -0.07  -0.12     0.23   0.08   0.13    -0.06  -0.03  -0.03
  10   6    -0.00   0.02   0.21    -0.08   0.04  -0.13     0.04  -0.06  -0.04
  11   6     0.18  -0.11  -0.19     0.09  -0.13   0.06    -0.07   0.01  -0.05
  12  17    -0.02  -0.00   0.00     0.00  -0.00  -0.00     0.01   0.00  -0.00
  13   1     0.07  -0.06  -0.05    -0.02   0.01   0.01    -0.04   0.05   0.04
  14   1     0.09  -0.07  -0.07    -0.02   0.01   0.00    -0.05   0.05   0.06
  15   1     0.02   0.11  -0.04     0.01  -0.03   0.01    -0.00  -0.08   0.03
  16   1    -0.05  -0.02  -0.06     0.04   0.00  -0.03     0.03   0.01   0.11
  17   1    -0.14  -0.10   0.08     0.02   0.01  -0.02     0.16   0.10  -0.08
  18   1    -0.06   0.10   0.08     0.06   0.06  -0.00     0.04  -0.14  -0.09
  19   1    -0.01   0.06  -0.02     0.05   0.04  -0.01     0.04  -0.04   0.04
  20   1     0.14  -0.05  -0.14     0.01  -0.18  -0.08     0.13  -0.08  -0.10
  21   1     0.09   0.02   0.04    -0.01  -0.06  -0.17     0.12  -0.17  -0.11
  22   1    -0.02  -0.01  -0.02     0.16   0.06   0.10    -0.07  -0.04  -0.01
  23   1    -0.11  -0.05  -0.07     0.13   0.07   0.07    -0.09  -0.02  -0.05
  24   1    -0.06  -0.01   0.03    -0.01   0.10  -0.10     0.04  -0.06   0.08
  25   1     0.03  -0.05   0.02     0.11   0.02  -0.15     0.10  -0.20  -0.13
  26   1     0.07  -0.10  -0.14     0.11  -0.11  -0.06     0.10  -0.10  -0.12
                     19                     20                     21
                        a                      a                      a 
 Frequencies --   607.7012               671.7800               710.8886
 Red. masses --    11.2230                10.9911                10.3334
 Frc consts  --     0.0000                 0.0000                 0.0000
 IR Inten    --     0.0659                 4.7556                54.6557
 Raman Activ --     0.0000                 0.0000                 0.0000
 Depolar     --     0.0000                 0.0000                 0.0000
 Atom AN      X      Y      Z        X      Y      Z        X      Y      Z
   1   7    -0.00  -0.00   0.01    -0.02   0.00   0.01    -0.03   0.03   0.02
   2   6    -0.02  -0.01   0.03    -0.06  -0.02   0.07    -0.12  -0.06  -0.02
   3   6    -0.00  -0.07   0.02    -0.03  -0.08  -0.00    -0.23  -0.27  -0.19
   4   6     0.02  -0.07   0.07     0.28  -0.27  -0.31    -0.14   0.02   0.11
   5   6     0.41   0.11   0.27    -0.11   0.23   0.20     0.23   0.04   0.08
   6   6     0.24   0.39  -0.14     0.19  -0.06  -0.18     0.10   0.20   0.01
   7   6    -0.02   0.07  -0.08    -0.28   0.26   0.30     0.07  -0.05  -0.08
   8   8    -0.02   0.04  -0.05    -0.04  -0.17  -0.02    -0.26  -0.36   0.12
   9   6    -0.06   0.02  -0.08    -0.03  -0.01  -0.02    -0.10  -0.04  -0.06
  10   6    -0.36  -0.10  -0.24     0.22  -0.10  -0.14     0.19   0.23   0.07
  11   6    -0.20  -0.37   0.17    -0.11   0.25   0.17     0.23   0.23  -0.09
  12  17    -0.00  -0.00   0.00    -0.00  -0.00  -0.00    -0.00  -0.00  -0.00
  13   1     0.01  -0.00   0.00     0.01  -0.02  -0.01     0.01   0.08   0.01
  14   1     0.00  -0.01  -0.00     0.01  -0.01  -0.01     0.05  -0.06   0.03
  15   1    -0.00   0.01   0.00    -0.01   0.04  -0.01    -0.00   0.03   0.01
  16   1    -0.01  -0.00   0.02    -0.03   0.01  -0.02    -0.05  -0.04   0.24
  17   1    -0.00   0.01   0.01    -0.05  -0.03   0.03     0.15   0.11  -0.06
  18   1     0.01  -0.09  -0.01    -0.05   0.03   0.02    -0.02  -0.12  -0.08
  19   1     0.03  -0.01   0.07    -0.09  -0.05  -0.05    -0.04  -0.07   0.01
  20   1     0.10   0.01   0.08    -0.01   0.05   0.03     0.09   0.03   0.00
  21   1     0.03   0.10  -0.05     0.13  -0.07  -0.11     0.04   0.06   0.01
  22   1    -0.03   0.00  -0.02     0.02   0.01   0.02     0.04   0.02   0.01
  23   1    -0.02   0.00  -0.02    -0.00   0.02  -0.00     0.05   0.03   0.02
  24   1    -0.01  -0.00  -0.01    -0.03   0.01  -0.04    -0.10   0.05  -0.14
  25   1    -0.07   0.00  -0.08     0.12  -0.08  -0.11     0.07   0.09   0.01
  26   1    -0.02  -0.10   0.06    -0.01   0.06   0.04     0.14   0.07  -0.00
                     22                     23                     24
                        a                      a                      a 
 Frequencies --   793.5673               808.3044               847.8595
 Red. masses --     5.2454                 6.9997                 7.0609
 Frc consts  --     0.0000                 0.0000                 0.0000
 IR Inten    --    31.2690                11.0283                18.2810
 Raman Activ --     0.0000                 0.0000                 0.0000
 Depolar     --     0.0000                 0.0000                 0.0000
 Atom AN      X      Y      Z        X      Y      Z        X      Y      Z
   1   7     0.01  -0.05  -0.01     0.08   0.05  -0.01     0.01  -0.20  -0.03
   2   6    -0.04  -0.01  -0.07     0.21   0.08   0.02    -0.03   0.09  -0.11
   3   6    -0.06   0.08  -0.02     0.08  -0.02   0.11     0.01   0.37   0.12
   4   6    -0.07   0.10   0.10    -0.19  -0.03   0.06     0.05  -0.10  -0.10
   5   6     0.07  -0.10  -0.10     0.16  -0.13   0.17     0.09  -0.16   0.10
   6   6     0.10  -0.13  -0.13     0.10  -0.15   0.17     0.05  -0.24   0.16
   7   6    -0.22   0.20   0.23     0.07   0.13   0.07     0.11   0.07  -0.00
   8   8     0.07  -0.03  -0.07    -0.12  -0.21   0.05    -0.07  -0.10   0.05
   9   6     0.02  -0.00   0.00    -0.08  -0.01  -0.06    -0.04  -0.02  -0.04
  10   6     0.17  -0.17  -0.17    -0.08   0.10  -0.26    -0.22   0.18  -0.12
  11   6     0.10  -0.12  -0.08    -0.02   0.15  -0.26    -0.12   0.15  -0.06
  12  17    -0.01   0.00  -0.00     0.01  -0.00   0.00    -0.01   0.00  -0.00
  13   1     0.02   0.08   0.02    -0.07  -0.21  -0.02     0.05   0.15   0.02
  14   1     0.07  -0.10   0.03    -0.21   0.27  -0.04     0.19  -0.25   0.03
  15   1     0.02   0.02   0.01    -0.02  -0.18  -0.02     0.05   0.07   0.03
  16   1     0.02  -0.06   0.12    -0.03   0.15  -0.28     0.13  -0.12   0.03
  17   1     0.10   0.09  -0.05    -0.16  -0.20   0.06     0.08   0.14  -0.05
  18   1     0.05  -0.08  -0.05    -0.05   0.11   0.07     0.09  -0.06  -0.03
  19   1     0.05   0.05   0.10    -0.00  -0.01  -0.09     0.02   0.10   0.24
  20   1    -0.19   0.17   0.21     0.03   0.08   0.08    -0.06   0.11   0.14
  21   1    -0.18   0.16   0.18    -0.08  -0.02   0.06    -0.13  -0.02   0.08
  22   1     0.01   0.00  -0.00     0.03   0.02   0.01     0.01   0.01   0.01
  23   1    -0.01  -0.01  -0.01     0.02   0.01   0.01     0.01   0.01   0.00
  24   1    -0.01   0.01   0.03    -0.07   0.04  -0.09    -0.04   0.02  -0.07
  25   1    -0.25   0.25   0.27    -0.13   0.05   0.03     0.10  -0.17  -0.22
  26   1    -0.20   0.19   0.23    -0.01   0.13   0.03     0.13  -0.05  -0.11
                     25                     26                     27
                        a                      a                      a 
 Frequencies --   849.5129               881.8734               889.0059
 Red. masses --     4.1228                 5.6726                 2.8719
 Frc consts  --     0.0000                 0.0000                 0.0000
 IR Inten    --     7.1930                 9.2692                 0.2296
 Raman Activ --     0.0000                 0.0000                 0.0000
 Depolar     --     0.0000                 0.0000                 0.0000
 Atom AN      X      Y      Z        X      Y      Z        X      Y      Z
   1   7     0.02   0.07   0.02    -0.22   0.24  -0.07    -0.01   0.03  -0.03
   2   6     0.01  -0.04   0.04     0.01  -0.21   0.07     0.01  -0.03  -0.01
   3   6    -0.04  -0.15  -0.06     0.36  -0.24   0.08     0.03  -0.05   0.03
   4   6    -0.03   0.05   0.05    -0.03   0.05   0.05    -0.00   0.00   0.00
   5   6     0.13  -0.11  -0.24     0.02  -0.01  -0.02     0.04  -0.04  -0.06
   6   6     0.11  -0.02  -0.22     0.05  -0.07   0.04    -0.07   0.08   0.08
   7   6    -0.08  -0.00   0.03     0.03   0.03   0.03    -0.01   0.01   0.02
   8   8     0.04   0.05  -0.02    -0.01  -0.02   0.01    -0.01   0.01   0.01
   9   6     0.02   0.00   0.01    -0.02  -0.00  -0.02    -0.00   0.00  -0.00
  10   6    -0.03   0.06   0.22    -0.09  -0.01  -0.12    -0.13   0.11   0.13
  11   6    -0.05   0.04   0.16    -0.08   0.05  -0.06     0.17  -0.17  -0.19
  12  17     0.00  -0.00   0.00    -0.01   0.00  -0.00     0.00   0.00  -0.00
  13   1    -0.02  -0.10  -0.02    -0.07   0.38   0.07    -0.03   0.07   0.02
  14   1    -0.10   0.14  -0.02     0.14  -0.17   0.08     0.01  -0.01   0.03
  15   1    -0.03  -0.04  -0.03     0.04   0.11   0.08     0.02  -0.03   0.02
  16   1    -0.07   0.07  -0.02     0.08  -0.14   0.06     0.01  -0.02   0.02
  17   1    -0.03  -0.08   0.01    -0.09   0.16   0.10    -0.02   0.04   0.02
  18   1    -0.03   0.01   0.00    -0.02   0.30   0.13    -0.02   0.04   0.03
  19   1    -0.01  -0.04  -0.08     0.06  -0.07  -0.40     0.01  -0.01  -0.06
  20   1    -0.31   0.30   0.31     0.00   0.04   0.01    -0.15   0.16   0.16
  21   1    -0.19   0.25   0.23    -0.05   0.04   0.08     0.20  -0.18  -0.20
  22   1    -0.00  -0.01   0.01     0.00   0.00  -0.00    -0.00  -0.00   0.01
  23   1    -0.01   0.00  -0.01    -0.00  -0.00  -0.00    -0.00   0.01  -0.00
  24   1     0.03  -0.02   0.02    -0.01   0.01  -0.01     0.01  -0.01  -0.01
  25   1     0.25  -0.20  -0.21    -0.08   0.01   0.01     0.25  -0.25  -0.28
  26   1     0.14  -0.17  -0.16     0.03  -0.05  -0.09    -0.36   0.36   0.40
                     28                     29                     30
                        a                      a                      a 
 Frequencies --   905.6564               913.4231               999.0138
 Red. masses --     3.9085                 5.7632                 8.7622
 Frc consts  --     0.0000                 0.0000                 0.0000
 IR Inten    --     0.2099                39.1766                 5.2920
 Raman Activ --     0.0000                 0.0000                 0.0000
 Depolar     --     0.0000                 0.0000                 0.0000
 Atom AN      X      Y      Z        X      Y      Z        X      Y      Z
   1   7    -0.02   0.02   0.02    -0.22   0.21   0.23    -0.11  -0.05   0.04
   2   6     0.00  -0.01   0.01    -0.03  -0.17   0.18     0.17   0.11   0.00
   3   6     0.02   0.00  -0.03     0.20   0.06  -0.32     0.03   0.02  -0.00
   4   6    -0.01   0.01   0.01     0.04   0.04   0.00    -0.18  -0.10  -0.00
   5   6    -0.16   0.15   0.18     0.01  -0.06   0.01     0.19  -0.16   0.30
   6   6     0.19  -0.19  -0.20    -0.03  -0.10   0.11    -0.07   0.21  -0.25
   7   6    -0.01   0.01   0.01     0.03   0.04  -0.00    -0.14  -0.11  -0.03
   8   8     0.00  -0.00  -0.01    -0.02  -0.02   0.01    -0.06   0.05  -0.10
   9   6     0.00  -0.00  -0.00    -0.01  -0.01  -0.01     0.15   0.04   0.10
  10   6    -0.11   0.10   0.12    -0.06   0.03  -0.09     0.15  -0.15   0.27
  11   6     0.11  -0.10  -0.12     0.00  -0.02  -0.00    -0.07   0.23  -0.28
  12  17    -0.00  -0.00   0.00    -0.00  -0.00   0.00    -0.00   0.00  -0.00
  13   1     0.02  -0.02  -0.01     0.19  -0.28  -0.13     0.07   0.03  -0.02
  14   1     0.00   0.00  -0.01     0.05   0.01  -0.15     0.11  -0.15  -0.03
  15   1    -0.01   0.04  -0.01    -0.18   0.51  -0.13    -0.02   0.17  -0.00
  16   1    -0.00   0.00   0.00    -0.03  -0.02   0.01     0.13  -0.02  -0.19
  17   1     0.00  -0.01   0.00     0.07  -0.18  -0.02    -0.07  -0.04   0.04
  18   1     0.00  -0.01  -0.01     0.13  -0.10  -0.14    -0.03   0.00   0.02
  19   1     0.02   0.01  -0.00     0.17   0.05   0.02    -0.03  -0.01   0.02
  20   1     0.27  -0.28  -0.30    -0.03   0.03   0.05    -0.02  -0.12   0.12
  21   1    -0.33   0.32   0.36     0.00  -0.08  -0.03    -0.15   0.01  -0.15
  22   1     0.00  -0.00   0.01     0.00   0.00   0.00    -0.03  -0.02  -0.01
  23   1    -0.01   0.01  -0.01     0.01   0.00   0.00    -0.03  -0.02  -0.01
  24   1     0.01  -0.01  -0.00    -0.01   0.01  -0.02     0.08  -0.03   0.11
  25   1     0.15  -0.15  -0.17    -0.01   0.01  -0.03    -0.02  -0.15   0.11
  26   1    -0.15   0.15   0.17    -0.01   0.03   0.04    -0.13   0.03  -0.13
                     31                     32                     33
                        a                      a                      a 
 Frequencies --  1021.6235              1035.9293              1047.9690
 Red. masses --     8.0247                 7.0794                 9.6482
 Frc consts  --     0.0000                 0.0000                 0.0000
 IR Inten    --    14.6901                 7.9173                46.2158
 Raman Activ --     0.0000                 0.0000                 0.0000
 Depolar     --     0.0000                 0.0000                 0.0000
 Atom AN      X      Y      Z        X      Y      Z        X      Y      Z
   1   7     0.05   0.36  -0.13     0.17  -0.12   0.08     0.07  -0.03   0.03
   2   6     0.00  -0.54   0.00    -0.39   0.10  -0.05    -0.18   0.01  -0.02
   3   6    -0.10   0.26   0.04     0.24  -0.04   0.08     0.13   0.02   0.04
   4   6     0.08  -0.04  -0.11     0.09  -0.00   0.04     0.02  -0.02  -0.01
   5   6     0.07  -0.07   0.16     0.07   0.00   0.07    -0.01  -0.08   0.06
   6   6    -0.05  -0.00  -0.02    -0.01  -0.02   0.00    -0.05   0.10  -0.14
   7   6    -0.05  -0.03  -0.03    -0.06  -0.08   0.01     0.08   0.07   0.02
   8   8    -0.05   0.01  -0.06    -0.20   0.00  -0.19     0.40   0.02   0.34
   9   6     0.07   0.01   0.06     0.22   0.04   0.17    -0.37  -0.01  -0.32
  10   6     0.02  -0.03   0.06    -0.09  -0.01  -0.06     0.04  -0.11   0.14
  11   6    -0.03   0.08  -0.06    -0.05   0.13  -0.16    -0.08   0.04  -0.11
  12  17     0.01   0.00   0.00     0.00   0.00   0.00     0.00   0.00   0.00
  13   1    -0.16   0.12   0.05     0.02  -0.20  -0.02     0.00  -0.09  -0.01
  14   1    -0.17   0.25   0.06    -0.09   0.12  -0.01    -0.05   0.07  -0.00
  15   1     0.04  -0.19   0.03    -0.02  -0.09  -0.04    -0.01  -0.03  -0.02
  16   1    -0.05  -0.11   0.16    -0.17   0.05   0.31    -0.07   0.01   0.15
  17   1     0.11  -0.03  -0.02     0.15   0.12  -0.11     0.08   0.06  -0.05
  18   1    -0.04  -0.14  -0.01     0.30   0.24  -0.05     0.15   0.11  -0.03
  19   1     0.26   0.17   0.09    -0.05  -0.05  -0.10     0.01  -0.00  -0.04
  20   1     0.00  -0.09   0.05     0.02  -0.01   0.02    -0.05  -0.11   0.04
  21   1    -0.09  -0.04  -0.07     0.02   0.00   0.01    -0.18  -0.03  -0.14
  22   1    -0.01  -0.01   0.00    -0.04  -0.03  -0.01     0.03   0.04  -0.00
  23   1    -0.01  -0.01   0.00    -0.04  -0.03  -0.02     0.05   0.03   0.01
  24   1     0.03  -0.01   0.04     0.12  -0.05   0.16    -0.17   0.07  -0.23
  25   1    -0.00  -0.04   0.02    -0.06  -0.07   0.00    -0.04  -0.13   0.07
  26   1    -0.02  -0.01  -0.06    -0.05   0.03  -0.06    -0.16  -0.03  -0.11
                     34                     35                     36
                        a                      a                      a 
 Frequencies --  1077.4943              1130.0914              1131.4567
 Red. masses --     6.9424                 4.6857                 3.8639
 Frc consts  --     0.0000                 0.0000                 0.0000
 IR Inten    --     8.3316                22.4954                 1.6482
 Raman Activ --     0.0000                 0.0000                 0.0000
 Depolar     --     0.0000                 0.0000                 0.0000
 Atom AN      X      Y      Z        X      Y      Z        X      Y      Z
   1   7    -0.09   0.18   0.09     0.01  -0.02  -0.04    -0.00   0.00  -0.00
   2   6     0.24  -0.24  -0.35    -0.03   0.03   0.12    -0.00   0.00   0.01
   3   6    -0.15  -0.02   0.40     0.03   0.06  -0.13    -0.00   0.00  -0.01
   4   6    -0.03  -0.10   0.08     0.01  -0.10   0.09     0.01  -0.01   0.01
   5   6    -0.06   0.05  -0.10    -0.08  -0.06  -0.02    -0.02  -0.00  -0.01
   6   6     0.03   0.08  -0.05     0.01   0.09  -0.08    -0.00   0.02  -0.01
   7   6     0.01  -0.04   0.05    -0.06  -0.17   0.11     0.03   0.00   0.01
   8   8     0.03  -0.01   0.04     0.14  -0.08   0.17    -0.12   0.10   0.18
   9   6    -0.02   0.03  -0.04    -0.06   0.20  -0.17     0.24  -0.20  -0.29
  10   6    -0.04   0.01  -0.03    -0.10   0.03  -0.12    -0.01   0.00  -0.01
  11   6    -0.02   0.03  -0.05     0.02   0.14  -0.10     0.00   0.01  -0.00
  12  17    -0.00  -0.00   0.00     0.00   0.00  -0.00     0.00  -0.00  -0.00
  13   1     0.06  -0.08  -0.05    -0.03   0.04   0.01    -0.00   0.00   0.00
  14   1    -0.01   0.06  -0.07     0.00  -0.01   0.02     0.00  -0.00   0.00
  15   1    -0.07   0.19  -0.05     0.02  -0.04   0.01     0.00  -0.01   0.00
  16   1     0.10  -0.11  -0.02    -0.01   0.02  -0.01    -0.01   0.01   0.00
  17   1     0.29  -0.11  -0.20    -0.06  -0.01   0.05    -0.00  -0.01   0.00
  18   1     0.15   0.17   0.05    -0.00  -0.06  -0.04    -0.00  -0.01  -0.00
  19   1    -0.35  -0.13   0.11     0.10   0.05   0.01     0.01   0.01   0.00
  20   1    -0.01   0.01  -0.04    -0.22  -0.32   0.11    -0.03  -0.04   0.01
  21   1     0.15   0.07   0.07     0.40   0.16   0.22     0.02   0.01  -0.00
  22   1    -0.02  -0.00  -0.01    -0.16  -0.03  -0.11     0.23  -0.03   0.52
  23   1    -0.02  -0.01  -0.02    -0.06  -0.08  -0.06    -0.46   0.19  -0.35
  24   1     0.01  -0.01   0.02     0.13  -0.08   0.16    -0.12   0.12   0.17
  25   1    -0.04  -0.05   0.01    -0.13  -0.15   0.02    -0.03  -0.02   0.02
  26   1     0.06   0.03   0.03     0.28   0.13   0.13     0.02   0.01   0.01
                     37                     38                     39
                        a                      a                      a 
 Frequencies --  1150.6307              1168.0855              1195.2742
 Red. masses --     5.9633                 6.8685                 4.3476
 Frc consts  --     0.0000                 0.0000                 0.0000
 IR Inten    --    58.0964               145.4917                 8.2263
 Raman Activ --     0.0000                 0.0000                 0.0000
 Depolar     --     0.0000                 0.0000                 0.0000
 Atom AN      X      Y      Z        X      Y      Z        X      Y      Z
   1   7     0.01  -0.00   0.00    -0.01  -0.00  -0.01     0.03  -0.05   0.20
   2   6    -0.02   0.00   0.01     0.01   0.00   0.01    -0.05   0.11  -0.38
   3   6     0.03   0.03  -0.00    -0.01  -0.01  -0.03    -0.08  -0.09   0.23
   4   6    -0.05  -0.06  -0.00     0.08   0.02   0.06     0.03   0.05  -0.10
   5   6     0.03  -0.08   0.10    -0.13   0.02  -0.13     0.00  -0.05   0.04
   6   6     0.04  -0.01   0.04     0.03   0.12  -0.08     0.03  -0.00   0.04
   7   6    -0.25  -0.16  -0.08     0.41   0.29   0.11     0.02   0.03  -0.01
   8   8     0.10   0.31  -0.17    -0.24  -0.03  -0.21    -0.01  -0.03   0.01
   9   6    -0.05  -0.30   0.18     0.07  -0.14   0.20     0.00   0.02  -0.01
  10   6    -0.02  -0.02  -0.01    -0.01  -0.03   0.02     0.01   0.01  -0.00
  11   6    -0.02   0.08  -0.09    -0.02  -0.06   0.03     0.01  -0.01   0.04
  12  17     0.00   0.00   0.00    -0.00  -0.00  -0.00     0.00  -0.00   0.00
  13   1    -0.00  -0.01   0.00    -0.00   0.01   0.00     0.10  -0.19  -0.04
  14   1    -0.01   0.01   0.00     0.01  -0.01   0.00     0.00   0.04  -0.09
  15   1     0.00   0.00  -0.00     0.00  -0.01   0.00    -0.08   0.12  -0.06
  16   1     0.01  -0.01   0.00    -0.03   0.03   0.00     0.03  -0.04   0.04
  17   1    -0.00   0.01   0.00     0.00  -0.02  -0.00     0.04   0.21  -0.09
  18   1     0.03   0.02  -0.01    -0.04  -0.03   0.01    -0.42  -0.08   0.23
  19   1     0.04   0.02  -0.01    -0.02  -0.01   0.00     0.42   0.15  -0.27
  20   1    -0.04  -0.11   0.06    -0.22  -0.29   0.07    -0.09  -0.17   0.07
  21   1     0.39   0.12   0.24    -0.03   0.03  -0.05     0.03   0.00   0.02
  22   1     0.26   0.06   0.14     0.08   0.01   0.04    -0.02  -0.00  -0.01
  23   1     0.18   0.12   0.14     0.09   0.02   0.07    -0.01  -0.00  -0.01
  24   1    -0.24   0.14  -0.32    -0.13   0.09  -0.22     0.02  -0.01   0.03
  25   1     0.06   0.11  -0.04    -0.24  -0.41   0.15     0.04   0.07  -0.02
  26   1    -0.02   0.02  -0.04     0.08   0.01   0.06    -0.02  -0.02  -0.01
                     40                     41                     42
                        a                      a                      a 
 Frequencies --  1204.9038              1225.0706              1253.7626
 Red. masses --     2.7574                 3.0623                 7.6244
 Frc consts  --     0.0000                 0.0000                 0.0000
 IR Inten    --    17.2807                 6.4754                44.7293
 Raman Activ --     0.0000                 0.0000                 0.0000
 Depolar     --     0.0000                 0.0000                 0.0000
 Atom AN      X      Y      Z        X      Y      Z        X      Y      Z
   1   7    -0.02   0.00  -0.03     0.19   0.08   0.14    -0.02  -0.00  -0.03
   2   6     0.05  -0.03   0.04    -0.16  -0.11  -0.04    -0.00   0.05   0.06
   3   6    -0.06  -0.05  -0.05     0.09   0.07  -0.14     0.06   0.12   0.08
   4   6     0.16   0.15   0.06    -0.12  -0.07   0.03    -0.34  -0.38  -0.05
   5   6    -0.01  -0.05   0.04    -0.04  -0.02  -0.03    -0.17  -0.12  -0.04
   6   6     0.05  -0.05   0.08     0.01   0.04  -0.03     0.02   0.15  -0.11
   7   6     0.12   0.12   0.00     0.07   0.07   0.00     0.21   0.25  -0.03
   8   8    -0.06  -0.09   0.02    -0.04  -0.03  -0.00    -0.10  -0.11   0.00
   9   6     0.01   0.05  -0.03     0.01   0.01   0.00     0.02   0.02   0.01
  10   6     0.04   0.12  -0.08     0.05   0.02   0.02     0.19   0.06   0.12
  11   6    -0.05  -0.02  -0.03    -0.01  -0.04   0.02    -0.09  -0.15   0.05
  12  17    -0.00  -0.00  -0.00     0.00   0.00   0.00    -0.00  -0.00  -0.00
  13   1    -0.01   0.04   0.01    -0.00  -0.17   0.00    -0.00   0.03  -0.00
  14   1     0.00  -0.02   0.01    -0.10   0.20  -0.03     0.02  -0.03   0.00
  15   1     0.01  -0.00   0.01    -0.05  -0.01  -0.06     0.01  -0.04   0.01
  16   1    -0.03   0.03   0.01     0.38  -0.44  -0.14    -0.02   0.04  -0.01
  17   1    -0.01  -0.05   0.01    -0.30   0.44   0.20     0.07  -0.08  -0.04
  18   1    -0.00  -0.04  -0.02     0.02  -0.03  -0.04     0.22   0.11  -0.06
  19   1    -0.19  -0.08   0.06    -0.19  -0.07   0.10     0.32   0.15  -0.07
  20   1    -0.21  -0.35   0.14     0.01   0.03  -0.02     0.07   0.16  -0.09
  21   1     0.16   0.04   0.11     0.06   0.04   0.03     0.26   0.13   0.11
  22   1    -0.05  -0.01  -0.04    -0.01  -0.00  -0.00    -0.03  -0.01  -0.03
  23   1    -0.04  -0.01  -0.03    -0.01  -0.00  -0.01    -0.04  -0.01  -0.02
  24   1     0.06  -0.04   0.08     0.00  -0.00   0.01     0.02  -0.01   0.03
  25   1     0.13   0.24  -0.09     0.01   0.01   0.01     0.12   0.11   0.00
  26   1    -0.57  -0.19  -0.33    -0.03  -0.02  -0.00    -0.13  -0.09  -0.04
                     43                     44                     45
                        a                      a                      a 
 Frequencies --  1281.2414              1325.1478              1328.3020
 Red. masses --     3.9336                 4.2786                 6.4401
 Frc consts  --     0.0000                 0.0000                 0.0000
 IR Inten    --     4.4976                13.0099                30.5010
 Raman Activ --     0.0000                 0.0000                 0.0000
 Depolar     --     0.0000                 0.0000                 0.0000
 Atom AN      X      Y      Z        X      Y      Z        X      Y      Z
   1   7     0.01   0.02  -0.03     0.04   0.16  -0.10    -0.00  -0.07  -0.01
   2   6    -0.06   0.02   0.06    -0.31   0.19   0.20    -0.03  -0.10  -0.08
   3   6     0.11   0.03   0.03     0.09  -0.07  -0.00     0.43   0.19  -0.07
   4   6    -0.20  -0.02  -0.15    -0.01   0.10  -0.07    -0.22   0.04  -0.16
   5   6     0.01   0.09  -0.08    -0.01  -0.06   0.04    -0.08  -0.17   0.08
   6   6     0.12   0.08   0.04     0.05  -0.02   0.06     0.09   0.05   0.04
   7   6     0.14  -0.11   0.23    -0.06   0.08  -0.13    -0.02   0.18  -0.18
   8   8    -0.04   0.03  -0.06     0.00  -0.02   0.02    -0.02  -0.05   0.03
   9   6    -0.03  -0.05   0.02     0.01   0.02  -0.01     0.01   0.02  -0.01
  10   6     0.01  -0.05   0.06    -0.03  -0.06   0.02    -0.00  -0.13   0.11
  11   6    -0.16  -0.07  -0.08     0.09   0.02   0.06     0.07  -0.01   0.07
  12  17     0.00  -0.00  -0.00     0.00   0.00  -0.00     0.00  -0.00   0.00
  13   1    -0.03  -0.02   0.00    -0.09  -0.11  -0.01     0.00   0.06   0.01
  14   1     0.00  -0.00   0.03     0.09  -0.07   0.09    -0.07   0.05   0.01
  15   1     0.01  -0.02   0.00     0.01  -0.19   0.00     0.02   0.09   0.01
  16   1     0.04  -0.05  -0.03     0.33  -0.33  -0.21    -0.21   0.16   0.18
  17   1     0.07  -0.06  -0.04     0.39  -0.33  -0.25     0.05  -0.00  -0.04
  18   1     0.08   0.07  -0.01    -0.15  -0.04   0.07    -0.39  -0.09   0.19
  19   1    -0.06  -0.02   0.00    -0.02  -0.03  -0.06    -0.34  -0.13   0.15
  20   1    -0.23  -0.34   0.11     0.01   0.00   0.01     0.02   0.03  -0.00
  21   1    -0.24  -0.07  -0.15     0.04   0.00   0.03     0.10   0.04   0.06
  22   1     0.05   0.02  -0.02    -0.02  -0.01  -0.00    -0.01  -0.00  -0.01
  23   1     0.01   0.05   0.01    -0.01  -0.01  -0.01    -0.02  -0.00  -0.01
  24   1     0.01  -0.02   0.02     0.01   0.00   0.01     0.02  -0.01   0.02
  25   1     0.29   0.46  -0.14    -0.05  -0.08   0.03     0.03   0.01   0.02
  26   1     0.28   0.09   0.17    -0.03  -0.01  -0.01     0.07   0.02   0.05
                     46                     47                     48
                        a                      a                      a 
 Frequencies --  1348.5870              1365.9664              1396.5894
 Red. masses --     9.5806                 2.6849                 2.4058
 Frc consts  --     0.0000                 0.0000                 0.0000
 IR Inten    --     2.3657               161.9375                 3.9372
 Raman Activ --     0.0000                 0.0000                 0.0000
 Depolar     --     0.0000                 0.0000                 0.0000
 Atom AN      X      Y      Z        X      Y      Z        X      Y      Z
   1   7    -0.01   0.00   0.03     0.05  -0.31  -0.11     0.01   0.02  -0.05
   2   6     0.10  -0.02  -0.00    -0.08   0.06   0.06     0.02  -0.01  -0.03
   3   6    -0.21  -0.09   0.07    -0.05  -0.06   0.02    -0.02  -0.01   0.01
   4   6    -0.06   0.22  -0.29     0.01   0.02  -0.01     0.00   0.04  -0.03
   5   6    -0.14  -0.20   0.06    -0.00   0.01  -0.01     0.03   0.01   0.02
   6   6     0.30   0.08   0.21     0.02  -0.00   0.02    -0.03  -0.03   0.00
   7   6    -0.12   0.20  -0.29    -0.01   0.01  -0.01    -0.04  -0.01  -0.03
   8   8    -0.02  -0.04   0.02    -0.01  -0.00  -0.00     0.08  -0.01   0.09
   9   6     0.01   0.03  -0.02    -0.00   0.01  -0.00     0.21  -0.02   0.22
  10   6    -0.18  -0.29   0.10    -0.00   0.01  -0.01     0.00  -0.02   0.02
  11   6     0.26   0.11   0.14     0.02  -0.00   0.02    -0.01  -0.01  -0.01
  12  17    -0.00  -0.00  -0.00     0.01  -0.00  -0.00     0.00   0.00  -0.00
  13   1     0.02  -0.00  -0.00     0.06   0.28   0.04    -0.08  -0.14  -0.01
  14   1     0.02  -0.01  -0.03    -0.45   0.36   0.20    -0.01  -0.06   0.21
  15   1    -0.02  -0.02  -0.01     0.22   0.52   0.15     0.04   0.08   0.03
  16   1     0.01   0.02  -0.02     0.10  -0.09  -0.12    -0.01   0.01   0.01
  17   1    -0.12   0.08   0.09     0.11  -0.05  -0.07    -0.03   0.02   0.02
  18   1     0.34   0.13  -0.14     0.04   0.02  -0.01     0.02   0.01  -0.01
  19   1     0.05   0.02  -0.05     0.07   0.02  -0.03     0.00   0.00  -0.00
  20   1    -0.08  -0.12   0.03    -0.01  -0.01   0.00     0.00  -0.01   0.01
  21   1    -0.02  -0.02  -0.01    -0.01  -0.01  -0.01     0.01  -0.00   0.01
  22   1    -0.01   0.00   0.01     0.01   0.00   0.02    -0.27  -0.08  -0.45
  23   1     0.01  -0.01  -0.00     0.00  -0.01   0.00    -0.47   0.08  -0.25
  24   1     0.03  -0.02   0.05     0.01  -0.00   0.00    -0.19   0.19  -0.38
  25   1    -0.01  -0.01   0.01    -0.01  -0.02   0.01     0.03   0.04  -0.01
  26   1     0.06   0.03   0.03    -0.01  -0.01  -0.00     0.03   0.01   0.02
                     49                     50                     51
                        a                      a                      a 
 Frequencies --  1403.2665              1428.0539              1440.9714
 Red. masses --     1.6984                 9.8544                 1.9538
 Frc consts  --     0.0000                 0.0000                 0.0000
 IR Inten    --    58.3562                 5.3898                93.6507
 Raman Activ --     0.0000                 0.0000                 0.0000
 Depolar     --     0.0000                 0.0000                 0.0000
 Atom AN      X      Y      Z        X      Y      Z        X      Y      Z
   1   7    -0.02  -0.10   0.15     0.01  -0.01   0.02     0.23  -0.11   0.04
   2   6    -0.07   0.01   0.08     0.01  -0.01   0.01     0.02   0.01   0.03
   3   6     0.02  -0.00  -0.01    -0.01  -0.05   0.07    -0.02  -0.03  -0.02
   4   6     0.01   0.00   0.01    -0.11   0.16  -0.24     0.00  -0.02   0.02
   5   6    -0.00  -0.01  -0.00     0.31   0.22   0.09    -0.02  -0.01  -0.01
   6   6     0.00   0.00   0.00    -0.24  -0.29   0.04     0.02   0.02   0.01
   7   6    -0.01  -0.02   0.01    -0.12   0.17  -0.26    -0.00  -0.02   0.01
   8   8     0.03   0.00   0.02     0.01  -0.05   0.05    -0.00   0.00  -0.00
   9   6     0.06  -0.01   0.07     0.02   0.05  -0.04     0.00  -0.00   0.00
  10   6    -0.02  -0.02  -0.00     0.30   0.18   0.12    -0.02  -0.00  -0.01
  11   6     0.01   0.02  -0.01    -0.25  -0.27   0.01     0.02   0.02   0.01
  12  17    -0.00  -0.01   0.01    -0.00  -0.00   0.00     0.00  -0.00   0.00
  13   1     0.27   0.47   0.02    -0.02   0.04   0.02    -0.57   0.16   0.30
  14   1    -0.02   0.21  -0.66     0.01   0.01  -0.05     0.04  -0.02  -0.01
  15   1    -0.12  -0.21  -0.09    -0.04  -0.00  -0.04    -0.42   0.21  -0.49
  16   1     0.05  -0.04  -0.06    -0.01   0.01  -0.01    -0.02   0.04  -0.07
  17   1     0.09  -0.04  -0.04    -0.00   0.02   0.01     0.07   0.00  -0.02
  18   1    -0.00  -0.02  -0.00     0.13   0.07  -0.04    -0.02   0.06   0.02
  19   1    -0.01  -0.01  -0.01    -0.04  -0.02  -0.02     0.04   0.01   0.05
  20   1    -0.01  -0.00   0.00    -0.05  -0.18   0.11     0.00   0.01  -0.01
  21   1    -0.01  -0.01  -0.01     0.11  -0.02   0.12    -0.02  -0.00  -0.01
  22   1    -0.08  -0.03  -0.14    -0.05  -0.03   0.09    -0.00  -0.00  -0.01
  23   1    -0.14   0.03  -0.08     0.03  -0.10   0.01    -0.01   0.00  -0.00
  24   1    -0.07   0.06  -0.12     0.00   0.01   0.01    -0.00   0.00  -0.01
  25   1     0.01   0.03  -0.01    -0.03  -0.14   0.10    -0.01  -0.00  -0.00
  26   1     0.00   0.01   0.00     0.15  -0.00   0.14    -0.02  -0.01  -0.01
                     52                     53                     54
                        a                      a                      a 
 Frequencies --  1476.8980              1481.6395              1483.1479
 Red. masses --     4.9072                 1.9806                 2.1957
 Frc consts  --     0.0000                 0.0000                 0.0000
 IR Inten    --    57.4446                 8.9957                16.7838
 Raman Activ --     0.0000                 0.0000                 0.0000
 Depolar     --     0.0000                 0.0000                 0.0000
 Atom AN      X      Y      Z        X      Y      Z        X      Y      Z
   1   7    -0.01   0.01  -0.00     0.02  -0.00  -0.00    -0.00   0.00   0.00
   2   6    -0.00  -0.02   0.00     0.06   0.19  -0.17     0.01   0.03  -0.03
   3   6     0.07   0.07   0.01    -0.02  -0.06  -0.05     0.03   0.03   0.00
   4   6    -0.20  -0.18  -0.02     0.04   0.03  -0.00    -0.09  -0.08  -0.01
   5   6    -0.02   0.10  -0.11    -0.01  -0.03   0.02     0.00   0.06  -0.05
   6   6     0.22   0.07   0.14    -0.03  -0.00  -0.03     0.09   0.02   0.06
   7   6    -0.17  -0.18   0.01     0.04   0.02   0.01    -0.08  -0.07  -0.01
   8   8     0.03   0.05  -0.03    -0.00  -0.00  -0.01    -0.01   0.03   0.02
   9   6     0.14   0.10  -0.04     0.03   0.01  -0.02    -0.11   0.12   0.12
  10   6     0.06   0.17  -0.10    -0.01  -0.04   0.02     0.04   0.09  -0.05
  11   6     0.13  -0.00   0.12    -0.03   0.00  -0.03     0.05  -0.01   0.06
  12  17     0.00   0.00   0.00     0.00  -0.00   0.00    -0.00   0.00   0.00
  13   1     0.01  -0.01  -0.01    -0.02   0.06   0.02     0.00   0.01   0.00
  14   1     0.01  -0.01   0.01    -0.02   0.05  -0.03     0.00   0.00  -0.01
  15   1     0.01  -0.01   0.01    -0.02   0.03  -0.03    -0.01  -0.00  -0.01
  16   1    -0.03   0.03  -0.01     0.18  -0.28   0.55     0.02  -0.04   0.09
  17   1     0.02   0.03  -0.01    -0.38  -0.50   0.06    -0.06  -0.08   0.01
  18   1    -0.00  -0.01   0.01    -0.05   0.16   0.05     0.00   0.01   0.00
  19   1     0.01   0.01  -0.00     0.07   0.02   0.15     0.01   0.01   0.00
  20   1    -0.09  -0.10   0.01     0.01   0.02  -0.00    -0.04  -0.05   0.01
  21   1    -0.14  -0.05  -0.08     0.02   0.01   0.01    -0.05  -0.02  -0.03
  22   1    -0.37  -0.24   0.32    -0.10  -0.06   0.06     0.38   0.20   0.07
  23   1     0.08  -0.41   0.05     0.04  -0.06   0.02    -0.29  -0.33  -0.14
  24   1    -0.21   0.21  -0.12    -0.07   0.07   0.01     0.38  -0.36  -0.42
  25   1    -0.05  -0.07   0.00     0.03   0.04  -0.01    -0.06  -0.05   0.03
  26   1    -0.13  -0.06  -0.06     0.04   0.01   0.01    -0.05  -0.03  -0.02
                     55                     56                     57
                        a                      a                      a 
 Frequencies --  1489.2763              1492.6906              1576.8418
 Red. masses --     5.4101                 1.9650                11.6218
 Frc consts  --     0.0000                 0.0000                 0.0000
 IR Inten    --    24.8775                 6.0968                 3.7457
 Raman Activ --     0.0000                 0.0000                 0.0000
 Depolar     --     0.0000                 0.0000                 0.0000
 Atom AN      X      Y      Z        X      Y      Z        X      Y      Z
   1   7    -0.00  -0.00  -0.00     0.03  -0.02  -0.00     0.00  -0.00  -0.00
   2   6     0.01   0.03  -0.04     0.03   0.06  -0.03    -0.00   0.01  -0.00
   3   6     0.07   0.06   0.01     0.03   0.19   0.20    -0.00   0.03  -0.04
   4   6    -0.23  -0.18  -0.04    -0.01  -0.00   0.01     0.16  -0.32   0.43
   5   6     0.03   0.16  -0.12    -0.01  -0.02   0.01     0.02   0.28  -0.23
   6   6     0.18   0.01   0.15    -0.01   0.01  -0.01     0.18  -0.07   0.22
   7   6    -0.20  -0.14  -0.06     0.01   0.00   0.01    -0.15   0.26  -0.37
   8   8     0.03  -0.01   0.03    -0.00  -0.00  -0.00    -0.00  -0.04   0.03
   9   6    -0.04  -0.13   0.01     0.00  -0.00  -0.00     0.01   0.02  -0.01
  10   6     0.11   0.24  -0.11    -0.00  -0.01   0.01    -0.03  -0.24   0.19
  11   6     0.12  -0.05   0.15    -0.01   0.00  -0.01    -0.19   0.08  -0.24
  12  17     0.00  -0.00   0.00     0.00  -0.00  -0.00    -0.00  -0.00   0.00
  13   1     0.01   0.01  -0.00    -0.07   0.03   0.04    -0.00  -0.00   0.00
  14   1    -0.01   0.01  -0.01    -0.01   0.01   0.01    -0.00   0.00   0.00
  15   1     0.00   0.00   0.00    -0.04   0.04  -0.05     0.00   0.00   0.00
  16   1     0.02  -0.04   0.11     0.04  -0.05   0.15     0.00  -0.00  -0.00
  17   1    -0.06  -0.09   0.01    -0.10  -0.13   0.02    -0.00  -0.00   0.00
  18   1     0.01   0.02   0.01     0.17  -0.61  -0.17    -0.07  -0.05   0.02
  19   1     0.01   0.01   0.01    -0.22  -0.07  -0.60     0.05   0.02   0.00
  20   1    -0.10  -0.13   0.03     0.02   0.03  -0.01    -0.07  -0.05  -0.01
  21   1    -0.12  -0.06  -0.06     0.01   0.01   0.00    -0.05  -0.05  -0.00
  22   1     0.13   0.11  -0.32    -0.02  -0.01   0.01    -0.01  -0.00  -0.00
  23   1     0.03   0.48   0.00     0.01  -0.00   0.00    -0.00  -0.00  -0.00
  24   1     0.00  -0.00   0.25    -0.01   0.01   0.01     0.01  -0.00   0.01
  25   1    -0.14  -0.23   0.07     0.01   0.01  -0.00     0.07   0.06   0.01
  26   1    -0.13  -0.07  -0.05     0.02   0.01   0.01     0.05   0.05  -0.01
                     58                     59                     60
                        a                      a                      a 
 Frequencies --  1614.4129              2928.7632              2939.4993
 Red. masses --    11.5538                 1.9351                 1.9361
 Frc consts  --     0.0000                 0.0000                 0.0000
 IR Inten    --    55.7895              1007.4311                22.7621
 Raman Activ --     0.0000                 0.0000                 0.0000
 Depolar     --     0.0000                 0.0000                 0.0000
 Atom AN      X      Y      Z        X      Y      Z        X      Y      Z
   1   7    -0.00   0.00   0.00    -0.17  -0.15  -0.05    -0.02  -0.02  -0.01
   2   6    -0.01  -0.00   0.01     0.10   0.06   0.05    -0.01   0.00  -0.02
   3   6    -0.03  -0.03  -0.01    -0.01   0.02  -0.02     0.14  -0.21   0.13
   4   6     0.24   0.18   0.05     0.00   0.00  -0.00     0.00  -0.01   0.01
   5   6    -0.30  -0.36   0.06    -0.00   0.00  -0.00    -0.00   0.00  -0.00
   6   6     0.36   0.21   0.13    -0.00  -0.00   0.00     0.00  -0.00   0.00
   7   6    -0.15  -0.10  -0.05     0.00   0.00   0.00     0.00   0.00  -0.00
   8   8    -0.01  -0.01   0.00    -0.00  -0.00  -0.00    -0.00  -0.00  -0.00
   9   6     0.01   0.00   0.01     0.00  -0.00  -0.00     0.00  -0.00  -0.00
  10   6     0.29   0.29  -0.00    -0.00  -0.00  -0.00    -0.00  -0.00   0.00
  11   6    -0.41  -0.21  -0.18    -0.00  -0.00   0.00     0.00   0.00  -0.00
  12  17     0.00   0.00   0.00     0.01   0.01   0.00     0.00   0.00   0.00
  13   1     0.00   0.00  -0.00    -0.00  -0.02   0.02    -0.00   0.00   0.00
  14   1     0.01  -0.00  -0.01     0.61   0.57   0.17     0.08   0.07   0.02
  15   1    -0.00  -0.01  -0.00     0.01  -0.01  -0.03     0.00  -0.00  -0.00
  16   1     0.00  -0.00  -0.01    -0.30  -0.28  -0.05    -0.02  -0.02  -0.01
  17   1     0.00   0.00  -0.00    -0.04   0.03  -0.12     0.05  -0.02   0.11
  18   1    -0.01  -0.01   0.00     0.03  -0.01   0.07    -0.23   0.06  -0.51
  19   1    -0.02  -0.01   0.00     0.02  -0.05  -0.00    -0.27   0.71   0.01
  20   1     0.04   0.09  -0.05     0.01  -0.00   0.01     0.01   0.00   0.01
  21   1    -0.06   0.00  -0.06    -0.00   0.00  -0.00     0.00   0.00  -0.00
  22   1    -0.00  -0.00  -0.01    -0.01   0.01   0.00    -0.00   0.00   0.00
  23   1    -0.01   0.01  -0.00    -0.01   0.00   0.01    -0.00   0.00   0.00
  24   1     0.00   0.00   0.00    -0.00  -0.00  -0.00    -0.00  -0.00  -0.00
  25   1    -0.01  -0.07   0.05     0.00   0.00   0.00    -0.00   0.00  -0.00
  26   1     0.10   0.02   0.07     0.00   0.01  -0.00    -0.00  -0.01   0.00
                     61                     62                     63
                        a                      a                      a 
 Frequencies --  2948.5566              2967.4846              2973.5243
 Red. masses --     1.9276                 1.5292                 1.9227
 Frc consts  --     0.0000                 0.0000                 0.0000
 IR Inten    --   127.2724                21.6451                47.7511
 Raman Activ --     0.0000                 0.0000                 0.0000
 Depolar     --     0.0000                 0.0000                 0.0000
 Atom AN      X      Y      Z        X      Y      Z        X      Y      Z
   1   7     0.09   0.08   0.03     0.02   0.01   0.01     0.01   0.00   0.00
   2   6     0.19   0.11   0.12     0.04   0.05   0.00     0.00   0.00   0.00
   3   6     0.01  -0.04  -0.03     0.03   0.11   0.17     0.00   0.00   0.00
   4   6    -0.00  -0.00  -0.00     0.01   0.00   0.00     0.00   0.00  -0.00
   5   6     0.00  -0.00   0.00    -0.00  -0.00  -0.00    -0.00  -0.00   0.00
   6   6     0.00   0.00  -0.00     0.00   0.00   0.00     0.00   0.00   0.00
   7   6    -0.00  -0.00  -0.00    -0.00  -0.00  -0.00    -0.00  -0.00   0.00
   8   8     0.00   0.00  -0.00     0.00   0.00   0.00     0.01  -0.00   0.00
   9   6    -0.00   0.01   0.00    -0.00   0.00   0.00     0.14  -0.21  -0.14
  10   6     0.00   0.00   0.00     0.00   0.00  -0.00    -0.00   0.00  -0.00
  11   6     0.00   0.00  -0.00    -0.00  -0.00  -0.00     0.00  -0.00  -0.00
  12  17    -0.00  -0.00  -0.00    -0.00  -0.00  -0.00     0.00  -0.00  -0.00
  13   1     0.00   0.01  -0.01    -0.00   0.00  -0.01     0.00   0.00  -0.00
  14   1    -0.30  -0.28  -0.09    -0.05  -0.05  -0.01    -0.02  -0.02  -0.01
  15   1    -0.01   0.01   0.01    -0.00   0.00   0.01    -0.00   0.00   0.00
  16   1    -0.52  -0.50  -0.09    -0.18  -0.17  -0.04    -0.00  -0.00  -0.00
  17   1    -0.15   0.09  -0.36     0.03  -0.00   0.04    -0.00   0.00  -0.01
  18   1     0.06  -0.03   0.11    -0.32   0.14  -0.66    -0.00   0.00  -0.00
  19   1    -0.07   0.18  -0.01     0.22  -0.52   0.03     0.00  -0.00   0.00
  20   1    -0.00   0.00  -0.00     0.01  -0.00   0.01    -0.00   0.00  -0.00
  21   1     0.00  -0.00   0.00    -0.00   0.00  -0.00    -0.00  -0.00   0.00
  22   1     0.01  -0.02  -0.00     0.00  -0.00  -0.00    -0.38   0.75   0.10
  23   1     0.00   0.00  -0.00     0.00  -0.00  -0.01    -0.21  -0.03   0.38
  24   1    -0.00  -0.00   0.00    -0.00  -0.00   0.00     0.07   0.01  -0.02
  25   1    -0.00   0.00  -0.00     0.00  -0.00   0.00     0.00   0.00   0.01
  26   1    -0.00  -0.01   0.00     0.00   0.00  -0.00    -0.00  -0.00   0.00
                     64                     65                     66
                        a                      a                      a 
 Frequencies --  2980.0681              2981.3516              3004.2785
 Red. masses --     1.6213                 1.5872                 1.5526
 Frc consts  --     0.0000                 0.0000                 0.0000
 IR Inten    --    14.8131                 9.3441                31.6690
 Raman Activ --     0.0000                 0.0000                 0.0000
 Depolar     --     0.0000                 0.0000                 0.0000
 Atom AN      X      Y      Z        X      Y      Z        X      Y      Z
   1   7     0.00   0.00   0.00    -0.02  -0.02  -0.01    -0.00  -0.00  -0.00
   2   6    -0.00   0.01  -0.01     0.02  -0.11   0.19     0.00  -0.00   0.00
   3   6    -0.00  -0.00  -0.00     0.02  -0.01   0.05     0.00  -0.00   0.00
   4   6    -0.00   0.00  -0.00     0.00   0.00   0.00    -0.00   0.00  -0.00
   5   6    -0.00  -0.00   0.00    -0.00   0.00  -0.00    -0.00   0.00  -0.00
   6   6     0.00   0.00  -0.00     0.00   0.00   0.00     0.00   0.00   0.00
   7   6    -0.00  -0.00  -0.00    -0.00   0.00  -0.00     0.00   0.00   0.00
   8   8     0.01  -0.00   0.02     0.00  -0.00   0.00    -0.01  -0.00  -0.01
   9   6    -0.10  -0.13   0.17    -0.01  -0.01   0.01    -0.16  -0.15  -0.02
  10   6    -0.00   0.00  -0.00    -0.00  -0.00  -0.00    -0.00   0.00  -0.00
  11   6    -0.00   0.00  -0.00     0.00   0.00  -0.00     0.00  -0.00   0.00
  12  17    -0.00  -0.00   0.00     0.00   0.00   0.00    -0.00   0.00   0.00
  13   1    -0.00   0.00  -0.00     0.01  -0.01   0.02     0.00   0.00   0.00
  14   1    -0.00  -0.00  -0.00     0.06   0.05   0.02     0.00   0.00   0.00
  15   1     0.00   0.00  -0.00     0.00  -0.00  -0.00    -0.00   0.00   0.00
  16   1    -0.02  -0.02  -0.01     0.30   0.27   0.08    -0.00  -0.00   0.00
  17   1     0.02  -0.01   0.05    -0.37   0.14  -0.76    -0.00   0.00  -0.01
  18   1     0.01  -0.00   0.01    -0.08   0.03  -0.17    -0.00   0.00  -0.00
  19   1    -0.00   0.00  -0.00     0.00  -0.01   0.01    -0.00   0.00   0.00
  20   1    -0.00   0.00  -0.00     0.01  -0.00   0.01     0.00  -0.00   0.00
  21   1    -0.00  -0.00   0.00    -0.00   0.00  -0.00     0.00   0.00  -0.00
  22   1    -0.22   0.37   0.08    -0.01   0.02   0.01     0.05  -0.15  -0.02
  23   1     0.41  -0.04  -0.74     0.03  -0.00  -0.05    -0.09  -0.02   0.14
  24   1     0.12   0.14   0.02     0.00   0.00   0.00     0.64   0.70  -0.03
  25   1     0.02   0.00   0.01     0.00   0.00   0.00     0.00   0.00   0.00
  26   1     0.00   0.00  -0.00    -0.00  -0.00   0.00     0.00   0.00  -0.00
                     67                     68                     69
                        a                      a                      a 
 Frequencies --  3103.3287              3106.6956              3136.9994
 Red. masses --     1.8095                 1.8046                 1.8519
 Frc consts  --     0.0000                 0.0000                 0.0000
 IR Inten    --    54.0742                32.3429                19.4453
 Raman Activ --     0.0000                 0.0000                 0.0000
 Depolar     --     0.0000                 0.0000                 0.0000
 Atom AN      X      Y      Z        X      Y      Z        X      Y      Z
   1   7     0.00   0.00   0.00     0.00   0.00   0.00    -0.00  -0.00   0.00
   2   6    -0.00   0.00  -0.00     0.00   0.00   0.00    -0.00   0.00  -0.00
   3   6    -0.00   0.00  -0.00    -0.00  -0.00  -0.00    -0.00   0.00  -0.00
   4   6    -0.00   0.00  -0.00    -0.01  -0.01  -0.00    -0.00  -0.00   0.00
   5   6    -0.13   0.03  -0.14    -0.12   0.03  -0.13    -0.04   0.01  -0.04
   6   6    -0.00  -0.02   0.02    -0.00  -0.02   0.02     0.03   0.21  -0.16
   7   6     0.00  -0.00   0.00    -0.00  -0.00  -0.00     0.01   0.01  -0.00
   8   8     0.00   0.00  -0.00    -0.00  -0.00  -0.00    -0.00  -0.00  -0.00
   9   6     0.00  -0.00   0.00     0.00   0.00   0.00     0.00   0.00  -0.00
  10   6     0.02  -0.00   0.02    -0.02   0.00  -0.02    -0.02   0.00  -0.02
  11   6     0.02   0.14  -0.11    -0.02  -0.15   0.12     0.00   0.00  -0.00
  12  17     0.00  -0.00   0.00     0.00  -0.00  -0.00     0.00  -0.00   0.00
  13   1     0.00   0.00  -0.00     0.00   0.00  -0.00     0.00   0.00   0.00
  14   1    -0.00  -0.00  -0.00    -0.01  -0.01  -0.00    -0.00   0.00  -0.00
  15   1     0.00  -0.00  -0.00     0.00  -0.00  -0.00     0.00  -0.00  -0.00
  16   1    -0.00  -0.00  -0.00    -0.00  -0.00  -0.00     0.00  -0.00  -0.00
  17   1     0.00  -0.00   0.01     0.00   0.00  -0.00     0.00  -0.00   0.00
  18   1     0.01  -0.00   0.01     0.01   0.00   0.01     0.00   0.00   0.00
  19   1     0.00  -0.01  -0.00    -0.00   0.01   0.00     0.00   0.00  -0.00
  20   1     0.47  -0.10   0.51     0.42  -0.10   0.47     0.11  -0.03   0.13
  21   1     0.01   0.10  -0.08     0.01   0.10  -0.07    -0.09  -0.74   0.57
  22   1    -0.00   0.00   0.00     0.00  -0.00   0.00     0.00  -0.00  -0.00
  23   1     0.00   0.00  -0.00    -0.00  -0.00   0.00    -0.00   0.00   0.00
  24   1    -0.00  -0.00  -0.00    -0.00  -0.00   0.00    -0.00  -0.00   0.00
  25   1    -0.07   0.01  -0.08     0.08  -0.02   0.09     0.05  -0.01   0.06
  26   1    -0.06  -0.50   0.40     0.06   0.54  -0.44    -0.00  -0.01   0.01
                     70                     71                     72
                        a                      a                      a 
 Frequencies --  3141.3433              3235.2072              3245.2277
 Red. masses --     1.8406                 1.9482                 1.5828
 Frc consts  --     0.0000                 0.0000                 0.0000
 IR Inten    --    22.4776                55.1564                26.8815
 Raman Activ --     0.0000                 0.0000                 0.0000
 Depolar     --     0.0000                 0.0000                 0.0000
 Atom AN      X      Y      Z        X      Y      Z        X      Y      Z
   1   7     0.00  -0.00   0.00     0.13  -0.00  -0.24    -0.14   0.06  -0.15
   2   6     0.00   0.00  -0.00     0.00   0.00  -0.01    -0.00   0.01  -0.01
   3   6    -0.00   0.00  -0.00    -0.00  -0.00   0.00     0.00   0.00   0.00
   4   6     0.00   0.00   0.00    -0.00  -0.00  -0.00    -0.00  -0.00  -0.00
   5   6     0.00  -0.00   0.01    -0.00   0.00  -0.00    -0.00   0.00  -0.00
   6   6    -0.00  -0.02   0.01    -0.00   0.00  -0.00    -0.00  -0.00   0.00
   7   6    -0.01  -0.01  -0.00     0.00   0.00   0.00    -0.00  -0.00   0.00
   8   8    -0.00   0.00  -0.00    -0.00  -0.00   0.00     0.00   0.00   0.00
   9   6    -0.00   0.00  -0.00     0.00   0.00   0.00    -0.00   0.00  -0.00
  10   6    -0.18   0.04  -0.20     0.00  -0.00   0.00    -0.00   0.00  -0.00
  11   6     0.00   0.04  -0.03    -0.00   0.00  -0.00     0.00   0.00  -0.00
  12  17     0.00   0.00   0.00    -0.00  -0.00  -0.00     0.00   0.00   0.00
  13   1    -0.00   0.00  -0.00     0.14  -0.07   0.28     0.34  -0.19   0.83
  14   1    -0.00  -0.00  -0.00     0.03   0.02  -0.02    -0.05  -0.03  -0.02
  15   1    -0.00   0.00   0.00    -0.66   0.06   0.62     0.23  -0.02  -0.25
  16   1    -0.00  -0.00   0.00    -0.00   0.00   0.00    -0.00  -0.01  -0.00
  17   1    -0.00  -0.00   0.00     0.00  -0.00   0.01     0.01  -0.00   0.02
  18   1    -0.00  -0.00   0.00     0.00  -0.00   0.00    -0.00   0.00  -0.00
  19   1    -0.00  -0.00  -0.00     0.00   0.00  -0.00     0.00  -0.01  -0.00
  20   1    -0.01   0.00  -0.01     0.00  -0.00   0.00     0.00  -0.00   0.00
  21   1     0.01   0.06  -0.05    -0.00  -0.00   0.00     0.00   0.00  -0.00
  22   1     0.01  -0.01  -0.00    -0.00   0.00   0.00     0.00  -0.00  -0.00
  23   1    -0.01  -0.00   0.01     0.00   0.00  -0.00    -0.00  -0.00   0.00
  24   1    -0.00  -0.00   0.00    -0.00  -0.00   0.00     0.00   0.00   0.00
  25   1     0.62  -0.14   0.70    -0.00   0.00  -0.00     0.00  -0.00   0.00
  26   1    -0.01  -0.13   0.10     0.00   0.00   0.00    -0.00  -0.00   0.00
