 Entering Gaussian System
 *********************************************
 Gaussian 98:
 frequency output generated by the xtb code
 *********************************************
                         Standard orientation:
 --------------------------------------------------------------------
  Center     Atomic     Atomic              Coordinates (Angstroms)
  Number     Number      Type              X           Y           Z
 --------------------------------------------------------------------
    1          7             0       -2.317328    0.657322   -0.270473
    2          6             0       -1.389587    0.051099    0.730855
    3          6             0       -0.460555   -1.004817    0.135653
    4          6             0        0.524474   -0.468634   -0.908441
    5          6             0        1.512992    0.578081   -0.380176
    6          6             0        2.447803    0.048118    0.699071
    7          1             0       -2.876463   -0.067856   -0.731130
    8          1             0       -1.801948    1.166148   -0.996466
    9          1             0       -2.962343    1.319636    0.173298
   10          1             0       -1.987967   -0.392387    1.536418
   11          1             0       -0.804081    0.843856    1.208221
   12          1             0       -1.072891   -1.795615   -0.313033
   13          1             0        0.097425   -1.501439    0.937532
   14          1             0       -0.037706   -0.052643   -1.751850
   15          1             0        1.093549   -1.303938   -1.334312
   16          1             0        0.963118    1.447275   -0.001656
   17          1             0        2.109951    0.967347   -1.215479
   18          1             0        1.899314   -0.264177    1.587994
   19          1             0        3.170648    0.802305    1.015478
   20          1             0        3.010637   -0.815685    0.343131
 --------------------------------------------------------------------
     1 basis functions        1 primitive gaussians
     1 alpha electrons        1 beta electrons

 Harmonic frequencies (cm**-1), IR intensities (km*mol⁻¹),
 Raman scattering activities (A**4/amu), Raman depolarization ratios,
 reduced masses (AMU), force constants (mDyne/A) and normal coordinates:
                      1                      2                      3
                        a                      a                      a 
 Frequencies --    48.4231                68.4918               116.8631
 Red. masses --     2.5215                 8.8982                 6.5807
 Frc consts  --     0.0000                 0.0000                 0.0000
 IR Inten    --     2.7926                12.2267                10.3896
 Raman Activ --     0.0000                 0.0000                 0.0000
 Depolar     --     0.0000                 0.0000                 0.0000
 Atom AN      X      Y      Z        X      Y      Z        X      Y      Z
   1   7     0.22   0.13  -0.06    -0.32  -0.21  -0.18    -0.29  -0.20   0.16
   2   6    -0.05  -0.07   0.06    -0.21   0.13  -0.05     0.15   0.17  -0.02
   3   6    -0.01  -0.05   0.10    -0.01   0.19   0.15     0.09   0.16  -0.09
   4   6    -0.06  -0.08   0.04    -0.00   0.17   0.15     0.05   0.10  -0.16
   5   6    -0.09  -0.01  -0.05     0.14   0.03   0.18     0.25  -0.09  -0.16
   6   6    -0.01   0.06  -0.08     0.41  -0.26  -0.20    -0.21  -0.10   0.23
   7   1     0.42   0.01  -0.41     0.02  -0.12  -0.08     0.08  -0.13  -0.02
   8   1     0.07   0.46   0.29    -0.11   0.01  -0.02    -0.19   0.12   0.09
   9   1    -0.28  -0.33   0.04    -0.18  -0.14  -0.07    -0.22  -0.23   0.10
  10   1    -0.07  -0.06  -0.05    -0.04   0.04   0.00     0.13   0.06   0.07
  11   1    -0.04  -0.05   0.10    -0.10   0.09  -0.05     0.05   0.10  -0.10
  12   1    -0.00  -0.03   0.05     0.03   0.02   0.06     0.01   0.05  -0.01
  13   1     0.01   0.00   0.03    -0.00   0.10   0.07     0.04   0.04  -0.04
  14   1    -0.03  -0.05   0.01     0.00   0.09   0.06     0.01   0.07  -0.02
  15   1    -0.01  -0.02   0.02    -0.03   0.04   0.02    -0.03   0.01  -0.08
  16   1    -0.03  -0.01  -0.01     0.07  -0.02   0.16     0.12   0.05  -0.15
  17   1    -0.04  -0.00  -0.03    -0.02   0.07   0.04     0.16  -0.14  -0.03
  18   1     0.01   0.02  -0.01     0.18  -0.16  -0.05    -0.15   0.18   0.09
  19   1    -0.01   0.03  -0.04     0.13  -0.09  -0.04     0.05  -0.10  -0.00
  20   1    -0.00   0.02  -0.02     0.11  -0.04  -0.17    -0.18  -0.16   0.20
                      4                      5                      6
                        a                      a                      a 
 Frequencies --   204.2247               237.7904               294.7585
 Red. masses --     5.7875                 6.4536                 5.5841
 Frc consts  --     0.0000                 0.0000                 0.0000
 IR Inten    --    11.8796                 6.4018                 0.0952
 Raman Activ --     0.0000                 0.0000                 0.0000
 Depolar     --     0.0000                 0.0000                 0.0000
 Atom AN      X      Y      Z        X      Y      Z        X      Y      Z
   1   7    -0.29   0.13   0.18    -0.21   0.21   0.09    -0.02  -0.01   0.02
   2   6     0.04   0.10  -0.11    -0.31  -0.25  -0.05     0.27   0.18  -0.14
   3   6    -0.15  -0.02  -0.19    -0.10  -0.06  -0.09    -0.09  -0.12  -0.15
   4   6     0.20  -0.27  -0.01     0.11  -0.07   0.08     0.10  -0.17   0.03
   5   6     0.07  -0.14   0.00     0.21  -0.07  -0.06    -0.32   0.08   0.30
   6   6     0.16   0.17   0.07     0.29   0.20   0.02     0.05   0.01  -0.06
   7   1    -0.04   0.03   0.01    -0.13   0.14  -0.01     0.04  -0.05   0.02
   8   1    -0.16   0.14   0.07    -0.02   0.05   0.05    -0.09   0.05  -0.01
   9   1    -0.11  -0.06   0.14     0.01   0.09   0.08    -0.04  -0.07   0.04
  10   1     0.06   0.04   0.02    -0.13  -0.15  -0.09     0.14   0.14   0.06
  11   1     0.05   0.03  -0.08    -0.11  -0.11   0.09     0.15   0.07  -0.16
  12   1    -0.08   0.05  -0.10     0.01  -0.02  -0.08    -0.09   0.03  -0.07
  13   1    -0.11  -0.07  -0.04    -0.06  -0.02  -0.00    -0.07  -0.09  -0.05
  14   1     0.12  -0.12  -0.06     0.07  -0.02   0.00     0.07  -0.10  -0.05
  15   1     0.08  -0.11   0.09     0.02  -0.04   0.05     0.11  -0.02   0.08
  16   1    -0.03  -0.06  -0.02     0.08   0.01  -0.06    -0.17  -0.07   0.19
  17   1     0.01  -0.02   0.00     0.05  -0.08  -0.05    -0.17   0.18   0.10
  18   1     0.03  -0.25  -0.09     0.12   0.36   0.14     0.13   0.21   0.13
  19   1    -0.20   0.20   0.22     0.25   0.00  -0.25     0.21  -0.09  -0.25
  20   1     0.33   0.26  -0.05    -0.11  -0.13   0.15    -0.21  -0.14  -0.02
                      7                      8                      9
                        a                      a                      a 
 Frequencies --   355.8494               418.1423               488.0016
 Red. masses --     7.3009                 6.4329                 7.8009
 Frc consts  --     0.0000                 0.0000                 0.0000
 IR Inten    --     9.1065                10.2562                 2.1573
 Raman Activ --     0.0000                 0.0000                 0.0000
 Depolar     --     0.0000                 0.0000                 0.0000
 Atom AN      X      Y      Z        X      Y      Z        X      Y      Z
   1   7     0.20  -0.20  -0.07    -0.11   0.17  -0.03     0.07  -0.10   0.05
   2   6     0.08   0.06   0.14     0.11  -0.03  -0.28    -0.12   0.09   0.25
   3   6    -0.37  -0.11  -0.15     0.24  -0.17   0.11     0.05   0.42  -0.13
   4   6    -0.31   0.16   0.03    -0.27   0.02  -0.18     0.04  -0.13  -0.42
   5   6     0.10  -0.16   0.04    -0.11  -0.26   0.14    -0.14  -0.27   0.09
   6   6     0.25   0.19   0.11     0.13   0.08   0.15     0.08   0.03   0.11
   7   1     0.12  -0.11  -0.01    -0.10   0.10  -0.01     0.07  -0.07   0.03
   8   1     0.08  -0.09  -0.02    -0.10   0.11  -0.02     0.09  -0.11   0.01
   9   1    -0.01  -0.05  -0.12     0.03   0.01   0.12    -0.02   0.02  -0.12
  10   1     0.03   0.10   0.09     0.05   0.03  -0.04    -0.05  -0.14  -0.03
  11   1     0.10   0.01  -0.04     0.06  -0.00  -0.12    -0.16   0.03   0.21
  12   1    -0.20   0.10  -0.15     0.14  -0.20   0.20    -0.02   0.08   0.07
  13   1    -0.13  -0.20  -0.13     0.19   0.17   0.08     0.10   0.16  -0.07
  14   1    -0.09   0.20   0.08    -0.18   0.18   0.10     0.10  -0.03  -0.17
  15   1    -0.18   0.06  -0.13    -0.15   0.07  -0.28    -0.03  -0.10  -0.04
  16   1     0.10   0.02  -0.03    -0.04  -0.09   0.07    -0.16  -0.19   0.11
  17   1     0.02  -0.13  -0.03    -0.04  -0.02   0.06    -0.05   0.10   0.10
  18   1     0.10   0.08   0.06     0.11   0.04   0.10     0.10   0.06   0.10
  19   1     0.02   0.13  -0.04    -0.03   0.12  -0.04    -0.01   0.09  -0.08
  20   1     0.13   0.07   0.09     0.11   0.06   0.08     0.06   0.01   0.08
                     10                     11                     12
                        a                      a                      a 
 Frequencies --   764.6851               796.6811               855.8216
 Red. masses --     3.2702                 4.2540                 4.1480
 Frc consts  --     0.0000                 0.0000                 0.0000
 IR Inten    --    42.9338                14.2257                38.7559
 Raman Activ --     0.0000                 0.0000                 0.0000
 Depolar     --     0.0000                 0.0000                 0.0000
 Atom AN      X      Y      Z        X      Y      Z        X      Y      Z
   1   7     0.06  -0.07   0.10     0.11  -0.02  -0.03    -0.20  -0.04  -0.06
   2   6    -0.06  -0.12  -0.05     0.19   0.03  -0.17    -0.05  -0.04   0.15
   3   6    -0.19   0.06  -0.16     0.12   0.22  -0.06     0.27   0.06   0.03
   4   6    -0.19   0.11  -0.09    -0.08   0.06   0.23     0.19   0.02   0.07
   5   6    -0.08   0.09   0.12    -0.22  -0.13   0.12    -0.16  -0.17   0.10
   6   6     0.05  -0.04   0.09    -0.08  -0.01  -0.02    -0.16   0.02  -0.06
   7   1     0.01   0.05  -0.08     0.00  -0.10   0.17    -0.13   0.23  -0.29
   8   1     0.15  -0.04   0.11    -0.25   0.06  -0.16     0.28  -0.03   0.20
   9   1     0.03   0.02  -0.01     0.04  -0.10   0.16     0.03   0.12  -0.09
  10   1     0.08   0.10   0.13    -0.07  -0.23  -0.27     0.14   0.05   0.19
  11   1     0.14  -0.03  -0.20    -0.11  -0.05   0.25    -0.05   0.15  -0.17
  12   1     0.10  -0.22   0.18    -0.02   0.14  -0.09     0.00   0.17  -0.17
  13   1     0.16   0.32   0.00    -0.03  -0.03  -0.03    -0.02  -0.19  -0.06
  14   1     0.15  -0.18  -0.26     0.00  -0.01   0.03    -0.01   0.10   0.10
  15   1     0.11  -0.03   0.29     0.01   0.01   0.11     0.01   0.04  -0.11
  16   1     0.15   0.21  -0.15     0.06   0.14  -0.21    -0.02   0.04  -0.16
  17   1     0.11  -0.24   0.00     0.06  -0.34  -0.02     0.08  -0.20   0.04
  18   1     0.17  -0.09   0.09     0.18  -0.08   0.09     0.17  -0.07   0.08
  19   1     0.04  -0.01  -0.04    -0.01   0.04  -0.14    -0.03   0.06  -0.17
  20   1     0.00   0.04  -0.11    -0.02   0.06  -0.16    -0.04   0.07  -0.17
                     13                     14                     15
                        a                      a                      a 
 Frequencies --   857.0099               911.0746               925.7540
 Red. masses --     5.5119                 5.3824                 6.1607
 Frc consts  --     0.0000                 0.0000                 0.0000
 IR Inten    --    25.4837                20.0287                 2.5595
 Raman Activ --     0.0000                 0.0000                 0.0000
 Depolar     --     0.0000                 0.0000                 0.0000
 Atom AN      X      Y      Z        X      Y      Z        X      Y      Z
   1   7    -0.16   0.25  -0.03     0.06  -0.17  -0.14    -0.22   0.15  -0.24
   2   6    -0.03   0.12   0.23     0.03   0.02   0.04     0.17  -0.06   0.26
   3   6     0.04  -0.34  -0.00    -0.04   0.03   0.19     0.23  -0.14   0.08
   4   6     0.11  -0.12  -0.22    -0.13  -0.18  -0.29    -0.24   0.20  -0.08
   5   6    -0.01   0.16   0.08     0.04   0.27  -0.04    -0.06   0.01  -0.07
   6   6     0.02   0.05   0.10     0.17   0.05   0.23     0.10  -0.16   0.04
   7   1     0.18  -0.20   0.15    -0.22   0.19  -0.12    -0.06   0.03  -0.04
   8   1    -0.07  -0.08  -0.13    -0.07   0.13   0.03    -0.08   0.04  -0.07
   9   1    -0.24   0.06  -0.29     0.22  -0.07   0.31    -0.06   0.03  -0.06
  10   1    -0.11   0.03  -0.01    -0.03  -0.02  -0.02    -0.02   0.00   0.03
  11   1     0.03  -0.06   0.16    -0.13   0.11   0.02    -0.02   0.03   0.07
  12   1    -0.02  -0.11   0.07    -0.21   0.15   0.06    -0.04   0.09  -0.07
  13   1     0.06  -0.06  -0.01    -0.03  -0.15  -0.04     0.14  -0.24  -0.16
  14   1    -0.03   0.03   0.01    -0.10  -0.11  -0.07    -0.02  -0.29  -0.21
  15   1     0.07   0.06  -0.19    -0.05  -0.06  -0.06     0.15   0.04   0.28
  16   1    -0.02   0.13  -0.21    -0.07   0.07  -0.12     0.15   0.04   0.13
  17   1     0.15  -0.12   0.05     0.11   0.05   0.05    -0.05   0.00  -0.04
  18   1     0.15  -0.12   0.07     0.08  -0.11   0.04    -0.01   0.08   0.03
  19   1     0.12  -0.09   0.01     0.19  -0.16   0.15    -0.10   0.11  -0.05
  20   1    -0.10   0.04  -0.22    -0.10   0.00  -0.15     0.17  -0.03   0.23
                     16                     17                     18
                        a                      a                      a 
 Frequencies --   977.7585              1017.2969              1040.9276
 Red. masses --     5.4931                 7.0145                 4.5673
 Frc consts  --     0.0000                 0.0000                 0.0000
 IR Inten    --    21.1390                12.1642                 7.7845
 Raman Activ --     0.0000                 0.0000                 0.0000
 Depolar     --     0.0000                 0.0000                 0.0000
 Atom AN      X      Y      Z        X      Y      Z        X      Y      Z
   1   7     0.19  -0.04  -0.11     0.13  -0.09   0.33    -0.06  -0.13   0.00
   2   6    -0.23  -0.01   0.16    -0.25   0.22  -0.36     0.13   0.25   0.01
   3   6    -0.13  -0.12   0.15     0.10  -0.10   0.13    -0.16  -0.22  -0.06
   4   6     0.26   0.18  -0.16    -0.01   0.02  -0.15     0.09  -0.06  -0.05
   5   6     0.08  -0.11   0.04    -0.07   0.14  -0.10     0.08   0.03   0.24
   6   6    -0.22  -0.06  -0.12     0.03  -0.19   0.10    -0.09   0.01  -0.23
   7   1    -0.07  -0.01   0.11     0.11  -0.06   0.05    -0.10   0.11  -0.13
   8   1    -0.25   0.14  -0.13     0.16  -0.10   0.11     0.09  -0.00   0.10
   9   1     0.12  -0.14   0.27    -0.02   0.02  -0.06     0.08   0.03   0.06
  10   1    -0.20   0.28   0.10    -0.03  -0.01  -0.10     0.03  -0.19  -0.14
  11   1     0.08  -0.03  -0.07    -0.11   0.06  -0.04    -0.23   0.15   0.19
  12   1     0.02  -0.05  -0.00     0.00   0.08  -0.12    -0.24  -0.10   0.32
  13   1     0.01  -0.03   0.01    -0.20  -0.12   0.13     0.08   0.07  -0.02
  14   1     0.12   0.07  -0.06    -0.22  -0.22  -0.01     0.10   0.10  -0.00
  15   1     0.08   0.04  -0.01     0.16   0.13  -0.06     0.19   0.15  -0.11
  16   1    -0.00  -0.05   0.02     0.09   0.08   0.03     0.23   0.12   0.11
  17   1     0.15   0.04   0.13     0.08   0.03   0.04    -0.01  -0.14  -0.03
  18   1     0.13   0.02   0.09     0.14   0.02   0.13    -0.12   0.10  -0.09
  19   1    -0.15   0.17  -0.25    -0.09   0.13  -0.15    -0.11   0.09  -0.05
  20   1     0.06   0.06  -0.02     0.15   0.01   0.12     0.05  -0.01   0.10
                     19                     20                     21
                        a                      a                      a 
 Frequencies --  1064.8933              1108.1480              1143.3646
 Red. masses --     5.8270                 6.8884                 7.0178
 Frc consts  --     0.0000                 0.0000                 0.0000
 IR Inten    --    11.5706                 6.6297                 3.1934
 Raman Activ --     0.0000                 0.0000                 0.0000
 Depolar     --     0.0000                 0.0000                 0.0000
 Atom AN      X      Y      Z        X      Y      Z        X      Y      Z
   1   7     0.17  -0.05   0.06     0.03   0.01   0.16    -0.01  -0.10   0.03
   2   6    -0.35   0.20   0.06    -0.13   0.12  -0.22     0.01   0.30   0.03
   3   6     0.22  -0.09  -0.13     0.19  -0.16   0.10    -0.02  -0.27  -0.19
   4   6     0.05   0.01   0.00    -0.26   0.07  -0.04     0.03   0.18   0.28
   5   6    -0.28  -0.12   0.06     0.30  -0.18   0.20    -0.02  -0.01  -0.39
   6   6     0.23   0.07   0.00    -0.16   0.26  -0.15    -0.01  -0.11   0.23
   7   1    -0.01  -0.01   0.07     0.07  -0.04   0.04    -0.06   0.07  -0.07
   8   1    -0.07   0.05  -0.02     0.06  -0.05   0.04     0.05   0.00   0.07
   9   1     0.06  -0.06   0.12    -0.03   0.02  -0.04     0.06   0.01   0.05
  10   1    -0.13   0.20   0.07    -0.05   0.03  -0.07    -0.04  -0.02  -0.08
  11   1    -0.07   0.09  -0.07    -0.11   0.07  -0.03    -0.14   0.11   0.14
  12   1     0.10  -0.02  -0.09    -0.03   0.05  -0.04     0.04  -0.16   0.05
  13   1     0.13  -0.07  -0.11     0.18  -0.21  -0.17     0.22   0.04  -0.14
  14   1     0.06   0.04  -0.01     0.15  -0.03  -0.17     0.12   0.09   0.02
  15   1     0.14   0.11  -0.04    -0.16  -0.17   0.23    -0.06  -0.02   0.12
  16   1     0.04   0.07  -0.07     0.02  -0.11   0.11    -0.27  -0.17  -0.10
  17   1    -0.25  -0.24  -0.21     0.13   0.06   0.14    -0.06   0.18  -0.05
  18   1    -0.21   0.03  -0.16    -0.06  -0.02  -0.09     0.20  -0.09   0.16
  19   1     0.10  -0.14   0.26     0.06  -0.07   0.03     0.03  -0.00  -0.07
  20   1    -0.04  -0.08   0.08    -0.17   0.05  -0.21     0.03   0.03  -0.06
                     22                     23                     24
                        a                      a                      a 
 Frequencies --  1156.0467              1196.7705              1232.1721
 Red. masses --     8.0724                 4.2458                 3.4273
 Frc consts  --     0.0000                 0.0000                 0.0000
 IR Inten    --     5.0677                 2.9586                12.3278
 Raman Activ --     0.0000                 0.0000                 0.0000
 Depolar     --     0.0000                 0.0000                 0.0000
 Atom AN      X      Y      Z        X      Y      Z        X      Y      Z
   1   7     0.08  -0.01  -0.06    -0.05  -0.12  -0.09    -0.14  -0.17   0.04
   2   6    -0.17   0.10   0.17     0.09   0.21   0.19     0.12   0.20  -0.02
   3   6     0.18   0.06  -0.39    -0.02  -0.08  -0.15     0.03  -0.02   0.06
   4   6    -0.19  -0.40   0.19    -0.07   0.13  -0.04    -0.01  -0.05  -0.07
   5   6     0.19   0.26   0.11     0.10  -0.26   0.02    -0.10   0.16   0.14
   6   6    -0.12  -0.07  -0.06    -0.05   0.20  -0.00     0.10  -0.10  -0.13
   7   1    -0.04   0.00   0.04    -0.10   0.07  -0.07    -0.06   0.08  -0.15
   8   1    -0.06   0.06  -0.03     0.02   0.05   0.06     0.11  -0.02   0.13
   9   1     0.04  -0.04   0.07     0.07   0.01   0.05     0.06   0.06  -0.00
  10   1     0.00   0.05   0.09    -0.04  -0.01  -0.03    -0.31   0.19  -0.18
  11   1    -0.03   0.07  -0.03     0.07  -0.05   0.18     0.27  -0.27   0.23
  12   1     0.14  -0.06  -0.08     0.29  -0.14  -0.21     0.19  -0.03  -0.18
  13   1     0.16   0.08  -0.14    -0.28   0.15   0.27    -0.01  -0.02   0.02
  14   1    -0.24  -0.11   0.17    -0.26  -0.28  -0.00     0.12   0.11  -0.04
  15   1    -0.15  -0.11  -0.08     0.19   0.15   0.02    -0.26  -0.22   0.04
  16   1     0.15   0.09   0.12     0.06  -0.10   0.12    -0.09   0.09  -0.18
  17   1     0.08   0.06   0.05     0.06   0.02   0.07     0.12  -0.04   0.10
  18   1     0.06   0.04   0.06    -0.03  -0.07  -0.05    -0.10   0.10  -0.06
  19   1    -0.09   0.09  -0.12     0.09  -0.08   0.06    -0.07   0.05   0.02
  20   1     0.07   0.03   0.02    -0.14   0.02  -0.14     0.09  -0.06   0.17
                     25                     26                     27
                        a                      a                      a 
 Frequencies --  1254.4190              1283.5788              1325.4399
 Red. masses --     2.6231                 2.1889                 3.5987
 Frc consts  --     0.0000                 0.0000                 0.0000
 IR Inten    --     8.6532                 2.1293                25.6249
 Raman Activ --     0.0000                 0.0000                 0.0000
 Depolar     --     0.0000                 0.0000                 0.0000
 Atom AN      X      Y      Z        X      Y      Z        X      Y      Z
   1   7    -0.10  -0.08   0.04     0.03   0.04  -0.04    -0.05   0.03  -0.20
   2   6     0.02   0.01  -0.07     0.03   0.05   0.07    -0.23   0.25  -0.03
   3   6     0.02   0.14   0.05     0.03  -0.13   0.08    -0.11   0.02   0.20
   4   6     0.03  -0.12   0.00    -0.03  -0.05  -0.18    -0.04  -0.09   0.01
   5   6     0.09  -0.03  -0.12     0.01   0.12  -0.01    -0.05  -0.01  -0.06
   6   6    -0.16   0.07   0.17    -0.08  -0.02   0.11     0.01   0.02  -0.02
   7   1    -0.01   0.02  -0.07    -0.00  -0.01   0.03     0.03  -0.12   0.12
   8   1     0.07  -0.03   0.08    -0.02   0.01  -0.03     0.14   0.01   0.07
   9   1     0.02   0.04  -0.01     0.00  -0.03   0.04     0.09  -0.06   0.19
  10   1    -0.28   0.19  -0.12     0.14  -0.12   0.04     0.42  -0.39   0.09
  11   1     0.30  -0.28   0.08    -0.16   0.15   0.00     0.31  -0.26   0.06
  12   1    -0.12   0.10   0.08     0.25  -0.08  -0.22     0.14  -0.02  -0.13
  13   1     0.14  -0.04  -0.14    -0.27   0.01   0.24     0.18  -0.09  -0.16
  14   1     0.01   0.03   0.02     0.32   0.23  -0.14     0.10   0.08  -0.02
  15   1     0.11   0.08  -0.09    -0.25  -0.23   0.04     0.11   0.09  -0.05
  16   1     0.29   0.02   0.31     0.24   0.10   0.18     0.04   0.02   0.02
  17   1    -0.31   0.00  -0.26    -0.28  -0.06  -0.25     0.09   0.04   0.08
  18   1     0.15  -0.11   0.11     0.10  -0.04   0.08     0.01  -0.00  -0.00
  19   1     0.05  -0.03  -0.06    -0.00   0.02  -0.06     0.01  -0.02   0.03
  20   1    -0.07   0.08  -0.16    -0.00   0.04  -0.06     0.01  -0.01   0.03
                     28                     29                     30
                        a                      a                      a 
 Frequencies --  1349.7403              1361.0607              1363.9824
 Red. masses --     4.1319                 4.8646                 4.4334
 Frc consts  --     0.0000                 0.0000                 0.0000
 IR Inten    --    15.8149                 9.6086                19.4048
 Raman Activ --     0.0000                 0.0000                 0.0000
 Depolar     --     0.0000                 0.0000                 0.0000
 Atom AN      X      Y      Z        X      Y      Z        X      Y      Z
   1   7    -0.02  -0.00  -0.09     0.04  -0.03   0.02    -0.08   0.04  -0.10
   2   6    -0.16   0.10   0.01    -0.10   0.02   0.05    -0.09   0.01   0.04
   3   6     0.17  -0.08  -0.11     0.32  -0.00  -0.14     0.22  -0.09  -0.21
   4   6     0.09   0.20  -0.08    -0.39  -0.19   0.09     0.14   0.12   0.06
   5   6     0.25   0.04   0.25     0.10   0.04  -0.04    -0.30  -0.06  -0.20
   6   6    -0.03  -0.08   0.02    -0.01  -0.03  -0.02     0.04   0.09  -0.01
   7   1    -0.01  -0.05   0.06    -0.05   0.07  -0.06     0.08  -0.13   0.09
   8   1     0.07   0.02   0.05    -0.08   0.01  -0.05     0.14  -0.03   0.06
   9   1     0.04  -0.03   0.08    -0.03  -0.01  -0.04     0.09  -0.03   0.18
  10   1     0.14  -0.10   0.06    -0.00   0.02   0.04    -0.01   0.03   0.03
  11   1     0.19  -0.17   0.04     0.14  -0.11   0.01     0.07  -0.06   0.01
  12   1    -0.23   0.05   0.21    -0.17   0.10   0.11    -0.28   0.05   0.27
  13   1    -0.14  -0.01   0.10    -0.28   0.03   0.24    -0.18   0.03   0.15
  14   1    -0.18  -0.20  -0.01     0.35   0.28  -0.11    -0.00   0.02   0.04
  15   1    -0.17  -0.13   0.07     0.30   0.23   0.01    -0.25  -0.20   0.08
  16   1    -0.26  -0.07  -0.22    -0.14  -0.06  -0.10     0.27   0.08   0.23
  17   1    -0.33  -0.09  -0.27     0.07   0.09   0.06     0.25   0.04   0.21
  18   1    -0.04   0.04  -0.00     0.02   0.00   0.01     0.03  -0.05  -0.01
  19   1    -0.07   0.08  -0.10    -0.00   0.00  -0.02     0.06  -0.07   0.09
  20   1     0.00   0.02  -0.06     0.03  -0.00   0.03    -0.02  -0.03   0.06
                     31                     32                     33
                        a                      a                      a 
 Frequencies --  1367.9451              1390.6703              1405.4419
 Red. masses --     3.0506                 1.5865                 1.7160
 Frc consts  --     0.0000                 0.0000                 0.0000
 IR Inten    --   251.2868               117.1422               104.5366
 Raman Activ --     0.0000                 0.0000                 0.0000
 Depolar     --     0.0000                 0.0000                 0.0000
 Atom AN      X      Y      Z        X      Y      Z        X      Y      Z
   1   7    -0.25   0.16  -0.12    -0.10  -0.15   0.08    -0.01  -0.09  -0.18
   2   6     0.12  -0.11   0.00    -0.06   0.01   0.01     0.07  -0.09  -0.04
   3   6    -0.02   0.05  -0.01     0.01  -0.00   0.00    -0.01   0.02   0.00
   4   6    -0.11  -0.07   0.02     0.01   0.01  -0.02    -0.04  -0.03  -0.00
   5   6     0.10   0.02   0.05    -0.01  -0.00  -0.00     0.02   0.01   0.00
   6   6    -0.01  -0.03   0.00    -0.00   0.00   0.00    -0.00  -0.01  -0.00
   7   1     0.37  -0.31   0.02     0.39  -0.17  -0.23    -0.19  -0.21   0.53
   8   1     0.31  -0.24   0.05    -0.36   0.29  -0.02     0.18   0.49   0.46
   9   1     0.25  -0.02   0.46     0.45   0.53  -0.13     0.03   0.14  -0.19
  10   1    -0.15   0.17  -0.01     0.07  -0.07   0.03    -0.08   0.10  -0.01
  11   1    -0.17   0.13  -0.00     0.02  -0.01  -0.03    -0.10   0.06  -0.00
  12   1     0.08  -0.02  -0.06    -0.00  -0.01   0.02    -0.00   0.01  -0.01
  13   1    -0.03   0.01   0.01    -0.01  -0.02  -0.00    -0.01   0.02   0.01
  14   1     0.04   0.01  -0.03    -0.01   0.02   0.02     0.04   0.06  -0.00
  15   1     0.12   0.11  -0.05    -0.00  -0.02   0.04     0.06   0.03   0.02
  16   1    -0.12  -0.04  -0.09     0.01   0.00   0.01    -0.04  -0.01  -0.03
  17   1    -0.05  -0.00  -0.04    -0.00   0.00  -0.00    -0.00   0.00  -0.00
  18   1    -0.02   0.02  -0.00     0.00  -0.00   0.00    -0.00   0.01   0.00
  19   1    -0.02   0.02  -0.03     0.00  -0.00  -0.00    -0.00   0.00  -0.01
  20   1     0.01   0.01  -0.02     0.00   0.00   0.00     0.01   0.00   0.00
                     34                     35                     36
                        a                      a                      a 
 Frequencies --  1434.7330              1479.7498              1493.8842
 Red. masses --     3.2475                 1.8650                 1.8438
 Frc consts  --     0.0000                 0.0000                 0.0000
 IR Inten    --     1.4341                12.5253                 5.8060
 Raman Activ --     0.0000                 0.0000                 0.0000
 Depolar     --     0.0000                 0.0000                 0.0000
 Atom AN      X      Y      Z        X      Y      Z        X      Y      Z
   1   7    -0.00   0.00  -0.00     0.00  -0.00  -0.01     0.01  -0.00   0.01
   2   6     0.00  -0.01  -0.01    -0.00  -0.08  -0.26     0.01   0.01  -0.02
   3   6    -0.01  -0.03   0.01    -0.01   0.00   0.00    -0.01   0.25  -0.06
   4   6     0.01   0.02  -0.03    -0.00  -0.01  -0.01    -0.00  -0.01  -0.04
   5   6     0.08   0.02   0.07    -0.01   0.07  -0.03    -0.00   0.02   0.01
   6   6    -0.28   0.13  -0.31     0.02  -0.01   0.02    -0.05   0.06   0.04
   7   1     0.01  -0.00  -0.00    -0.01   0.02  -0.04    -0.02   0.01   0.00
   8   1     0.01  -0.01  -0.00    -0.04   0.00  -0.03     0.01  -0.00   0.00
   9   1     0.00  -0.00   0.01    -0.00   0.00  -0.02    -0.02  -0.01  -0.01
  10   1     0.02   0.02   0.02     0.30   0.39   0.43    -0.00   0.02   0.00
  11   1    -0.02   0.00   0.02    -0.23  -0.19   0.58    -0.01   0.00   0.02
  12   1    -0.02   0.04  -0.05    -0.01   0.02  -0.01     0.26  -0.40   0.38
  13   1     0.02   0.04   0.01     0.02   0.02  -0.00    -0.25  -0.52  -0.15
  14   1    -0.05  -0.02   0.01    -0.01   0.01   0.01    -0.04   0.06   0.06
  15   1     0.00  -0.01   0.03     0.01  -0.00   0.01     0.04  -0.01   0.08
  16   1    -0.09  -0.05  -0.03    -0.05  -0.09   0.13    -0.03  -0.01  -0.00
  17   1    -0.06  -0.07  -0.07     0.07  -0.16  -0.02     0.01  -0.02  -0.00
  18   1     0.43  -0.11   0.22    -0.03   0.02  -0.01    -0.06  -0.20  -0.11
  19   1     0.20  -0.34   0.31    -0.01   0.02  -0.01     0.17  -0.07  -0.22
  20   1     0.25  -0.00   0.45    -0.01   0.01  -0.03     0.11   0.02   0.15
                     37                     38                     39
                        a                      a                      a 
 Frequencies --  1510.0660              1513.6154              1517.9361
 Red. masses --     1.6823                 1.7381                 1.5969
 Frc consts  --     0.0000                 0.0000                 0.0000
 IR Inten    --     1.4133                 0.7461                 1.1253
 Raman Activ --     0.0000                 0.0000                 0.0000
 Depolar     --     0.0000                 0.0000                 0.0000
 Atom AN      X      Y      Z        X      Y      Z        X      Y      Z
   1   7     0.00  -0.01   0.00    -0.00   0.01  -0.00     0.00   0.00   0.00
   2   6     0.00  -0.01  -0.01     0.00  -0.01  -0.02     0.00   0.01   0.01
   3   6     0.00   0.04   0.00    -0.01  -0.05   0.00    -0.00   0.09  -0.03
   4   6    -0.01   0.04   0.16     0.00  -0.07  -0.19    -0.00  -0.02  -0.09
   5   6     0.03   0.03   0.01     0.03  -0.09   0.04     0.02   0.04  -0.05
   6   6     0.11   0.11  -0.07     0.06   0.09  -0.01     0.08  -0.10  -0.13
   7   1    -0.00  -0.00   0.01     0.01  -0.00  -0.01    -0.01   0.00   0.00
   8   1    -0.02   0.03   0.01     0.02  -0.03  -0.01     0.01  -0.01   0.00
   9   1     0.00   0.01  -0.02    -0.01  -0.02   0.02    -0.01  -0.01   0.00
  10   1     0.00   0.02   0.01     0.03   0.03   0.04    -0.02  -0.02  -0.03
  11   1    -0.01   0.00   0.01    -0.04  -0.01   0.06     0.02   0.01  -0.03
  12   1     0.03  -0.05   0.05    -0.04   0.06  -0.07     0.10  -0.16   0.14
  13   1    -0.03  -0.08  -0.02     0.06   0.09   0.01    -0.11  -0.21  -0.05
  14   1     0.18  -0.25  -0.24    -0.21   0.30   0.29    -0.09   0.14   0.12
  15   1    -0.15   0.08  -0.36     0.18  -0.10   0.42     0.09  -0.03   0.19
  16   1    -0.02  -0.00  -0.01     0.11   0.16  -0.20    -0.05  -0.10   0.12
  17   1    -0.02  -0.00  -0.02    -0.13   0.25   0.01     0.05  -0.13  -0.03
  18   1     0.21  -0.34  -0.00     0.08  -0.32  -0.06     0.23   0.36   0.26
  19   1    -0.26   0.23   0.06    -0.12   0.15  -0.08    -0.33   0.12   0.47
  20   1    -0.40  -0.35   0.22    -0.24  -0.23   0.18    -0.22  -0.07  -0.21
                     40                     41                     42
                        a                      a                      a 
 Frequencies --  1524.1353              2906.2690              2921.5203
 Red. masses --     1.9648                 1.9150                 1.9274
 Frc consts  --     0.0000                 0.0000                 0.0000
 IR Inten    --     0.3872                67.3576                53.0903
 Raman Activ --     0.0000                 0.0000                 0.0000
 Depolar     --     0.0000                 0.0000                 0.0000
 Atom AN      X      Y      Z        X      Y      Z        X      Y      Z
   1   7    -0.00   0.00   0.00     0.00   0.00  -0.00     0.00   0.00   0.00
   2   6    -0.00   0.02   0.06     0.00   0.00   0.00    -0.00  -0.00   0.00
   3   6    -0.00  -0.05   0.02     0.00   0.00   0.01     0.02  -0.00   0.02
   4   6    -0.00  -0.02  -0.08    -0.01   0.02   0.01    -0.19   0.20  -0.07
   5   6     0.01   0.25  -0.07     0.19  -0.03  -0.21    -0.01  -0.02   0.02
   6   6     0.03   0.06   0.04    -0.01   0.00   0.01     0.00  -0.01  -0.00
   7   1     0.01  -0.01   0.00     0.00   0.00   0.00    -0.00  -0.00  -0.00
   8   1     0.02  -0.01   0.00    -0.00  -0.00   0.00     0.00  -0.00   0.00
   9   1     0.00  -0.00   0.01    -0.00   0.00  -0.00     0.00   0.00   0.00
  10   1    -0.06  -0.09  -0.10     0.00   0.00  -0.00     0.00   0.00  -0.01
  11   1     0.07   0.03  -0.14    -0.01  -0.00  -0.00     0.01   0.01   0.00
  12   1    -0.04   0.08  -0.08    -0.01  -0.01  -0.01    -0.02  -0.03  -0.01
  13   1     0.06   0.11   0.03    -0.01   0.00  -0.01    -0.06   0.05  -0.09
  14   1    -0.06   0.12   0.09    -0.01   0.01  -0.00     0.34  -0.25   0.53
  15   1     0.07  -0.03   0.15     0.06  -0.09  -0.04     0.33  -0.49  -0.26
  16   1    -0.27  -0.33   0.37    -0.24   0.41   0.16    -0.04   0.06   0.03
  17   1     0.21  -0.52  -0.09    -0.44  -0.28   0.61     0.07   0.04  -0.10
  18   1    -0.05  -0.23  -0.11     0.02   0.02  -0.04    -0.00  -0.00   0.00
  19   1     0.02   0.07  -0.17     0.01   0.01   0.01     0.01   0.01   0.00
  20   1    -0.07  -0.09   0.11     0.02  -0.03  -0.01    -0.00   0.01   0.01
                     43                     44                     45
                        a                      a                      a 
 Frequencies --  2933.8698              2947.5935              2956.3764
 Red. masses --     1.8912                 1.5454                 1.5488
 Frc consts  --     0.0000                 0.0000                 0.0000
 IR Inten    --    31.2648                74.0083                86.1193
 Raman Activ --     0.0000                 0.0000                 0.0000
 Depolar     --     0.0000                 0.0000                 0.0000
 Atom AN      X      Y      Z        X      Y      Z        X      Y      Z
   1   7     0.00   0.00   0.00     0.00  -0.00  -0.00    -0.00  -0.00  -0.00
   2   6     0.02   0.02  -0.00     0.02   0.02  -0.01     0.03   0.03  -0.03
   3   6    -0.19  -0.11  -0.18     0.00   0.00  -0.00     0.04   0.01   0.05
   4   6    -0.02   0.03   0.02     0.03  -0.04  -0.01    -0.00   0.06   0.20
   5   6    -0.00  -0.00   0.00     0.04  -0.21   0.02    -0.01  -0.01   0.02
   6   6    -0.00   0.00   0.00     0.01   0.03   0.01     0.01   0.01  -0.00
   7   1     0.00  -0.01  -0.00     0.00   0.00   0.00     0.00   0.00   0.00
   8   1     0.00  -0.00  -0.00     0.00   0.00  -0.00     0.00   0.00  -0.00
   9   1     0.00  -0.00  -0.00    -0.00   0.00   0.00    -0.00   0.00   0.00
  10   1    -0.02  -0.01   0.03    -0.03  -0.02   0.04    -0.09  -0.07   0.12
  11   1    -0.05  -0.08  -0.05    -0.03  -0.04  -0.03    -0.02  -0.03  -0.02
  12   1     0.46   0.60   0.34    -0.00  -0.00  -0.00    -0.07  -0.09  -0.05
  13   1     0.21  -0.21   0.30     0.00  -0.00   0.01    -0.07   0.06  -0.10
  14   1    -0.03   0.03  -0.04    -0.01   0.00  -0.02    -0.36   0.28  -0.49
  15   1     0.10  -0.14  -0.06    -0.09   0.12   0.06     0.35  -0.50  -0.21
  16   1    -0.01   0.01   0.01    -0.43   0.62   0.31    -0.02   0.02   0.01
  17   1     0.01   0.00  -0.01     0.29   0.13  -0.39     0.06   0.04  -0.09
  18   1     0.01   0.00  -0.01    -0.01  -0.00   0.02    -0.01  -0.00   0.02
  19   1    -0.00  -0.00  -0.00    -0.06  -0.06  -0.02    -0.02  -0.02  -0.01
  20   1     0.00  -0.00   0.00     0.04  -0.05  -0.02    -0.00   0.00   0.00
                     46                     47                     48
                        a                      a                      a 
 Frequencies --  2957.1119              2970.7539              2988.9547
 Red. masses --     1.8775                 1.5974                 1.9015
 Frc consts  --     0.0000                 0.0000                 0.0000
 IR Inten    --     9.3019                41.4774               102.3227
 Raman Activ --     0.0000                 0.0000                 0.0000
 Depolar     --     0.0000                 0.0000                 0.0000
 Atom AN      X      Y      Z        X      Y      Z        X      Y      Z
   1   7     0.00  -0.00   0.00    -0.00   0.00  -0.00     0.00  -0.00  -0.00
   2   6    -0.18  -0.17   0.11    -0.05  -0.05   0.03     0.01   0.02   0.02
   3   6    -0.03   0.04  -0.03     0.05  -0.18   0.11    -0.00   0.01  -0.00
   4   6    -0.00   0.02   0.04     0.02  -0.02   0.01    -0.01   0.00  -0.00
   5   6     0.00  -0.02   0.01     0.00  -0.00  -0.00     0.00   0.03  -0.00
   6   6    -0.00   0.00   0.00     0.01   0.01  -0.01     0.14   0.24   0.04
   7   1    -0.00  -0.01  -0.00    -0.00  -0.00  -0.00     0.00   0.00   0.00
   8   1    -0.01  -0.01   0.01    -0.00  -0.00   0.01    -0.00  -0.00   0.00
   9   1    -0.00   0.00   0.00     0.00  -0.00  -0.00    -0.00   0.00   0.00
  10   1     0.44   0.34  -0.60     0.12   0.09  -0.17     0.03   0.03  -0.04
  11   1     0.19   0.27   0.18     0.05   0.07   0.05    -0.07  -0.09  -0.05
  12   1    -0.05  -0.05  -0.04     0.27   0.31   0.22    -0.02  -0.02  -0.01
  13   1     0.13  -0.10   0.17    -0.43   0.34  -0.60     0.01  -0.01   0.02
  14   1    -0.07   0.05  -0.09    -0.03   0.02  -0.04     0.02  -0.01   0.02
  15   1     0.07  -0.10  -0.05    -0.04   0.05   0.03     0.00  -0.01  -0.01
  16   1    -0.04   0.06   0.03    -0.01   0.01   0.01     0.04  -0.06  -0.03
  17   1     0.04   0.02  -0.05     0.00  -0.00  -0.00    -0.04  -0.02   0.05
  18   1     0.01   0.00  -0.01    -0.02  -0.01   0.04    -0.11  -0.03   0.21
  19   1    -0.00  -0.01  -0.00    -0.02  -0.02  -0.01    -0.56  -0.59  -0.24
  20   1     0.00  -0.00   0.00     0.01  -0.01  -0.00     0.19  -0.23  -0.11
                     49                     50                     51
                        a                      a                      a 
 Frequencies --  2992.4184              2997.8632              3016.7862
 Red. masses --     1.5849                 1.9158                 1.3031
 Frc consts  --     0.0000                 0.0000                 0.0000
 IR Inten    --    13.1006                84.5930                50.3595
 Raman Activ --     0.0000                 0.0000                 0.0000
 Depolar     --     0.0000                 0.0000                 0.0000
 Atom AN      X      Y      Z        X      Y      Z        X      Y      Z
   1   7    -0.00   0.00   0.00     0.00   0.00   0.00    -0.00   0.00  -0.00
   2   6    -0.07  -0.12  -0.18    -0.00  -0.00  -0.00     0.00  -0.00  -0.00
   3   6    -0.01  -0.01  -0.02    -0.00   0.00  -0.00     0.00  -0.00   0.00
   4   6    -0.00  -0.00  -0.01     0.00  -0.00  -0.00     0.00  -0.00  -0.00
   5   6     0.00  -0.00  -0.00     0.02  -0.01  -0.02     0.00  -0.00   0.01
   6   6     0.02   0.04   0.01     0.20  -0.09  -0.18     0.04  -0.08   0.14
   7   1    -0.01  -0.02  -0.01    -0.00  -0.00  -0.00     0.00   0.00   0.00
   8   1     0.01   0.01  -0.01    -0.00   0.00  -0.00    -0.00   0.00  -0.00
   9   1    -0.00  -0.00  -0.00    -0.00  -0.00  -0.00     0.00  -0.00  -0.00
  10   1    -0.24  -0.20   0.28    -0.00  -0.00   0.00    -0.00  -0.00   0.01
  11   1     0.48   0.63   0.35     0.00   0.00   0.00     0.00   0.00   0.00
  12   1     0.04   0.05   0.03    -0.00  -0.00  -0.00     0.00   0.00   0.00
  13   1     0.02  -0.02   0.03     0.02  -0.01   0.02    -0.01   0.01  -0.02
  14   1     0.01  -0.01   0.01     0.00  -0.00   0.00    -0.00   0.00  -0.00
  15   1    -0.01   0.01   0.00    -0.01   0.01   0.00    -0.00   0.01   0.00
  16   1    -0.01   0.01   0.01    -0.02   0.04   0.02    -0.00   0.00   0.00
  17   1    -0.00  -0.00   0.01    -0.02  -0.01   0.03     0.01   0.00  -0.01
  18   1    -0.02  -0.00   0.03    -0.29  -0.19   0.46     0.39   0.20  -0.58
  19   1    -0.08  -0.08  -0.03    -0.05  -0.10  -0.07    -0.27  -0.30  -0.09
  20   1     0.03  -0.04  -0.02    -0.37   0.60   0.24    -0.26   0.40   0.20
                     52                     53                     54
                        a                      a                      a 
 Frequencies --  3265.0201              3271.6698              3293.7383
 Red. masses --     2.0484                 2.0553                 1.2869
 Frc consts  --     0.0000                 0.0000                 0.0000
 IR Inten    --   197.0109               163.8434                53.7317
 Raman Activ --     0.0000                 0.0000                 0.0000
 Depolar     --     0.0000                 0.0000                 0.0000
 Atom AN      X      Y      Z        X      Y      Z        X      Y      Z
   1   7     0.16  -0.13  -0.20    -0.16  -0.23   0.02     0.08  -0.05   0.11
   2   6     0.00  -0.00  -0.01    -0.01  -0.01   0.00     0.00  -0.00   0.01
   3   6    -0.00  -0.00  -0.00    -0.00  -0.00  -0.00    -0.00  -0.00   0.00
   4   6    -0.00  -0.00  -0.00    -0.00   0.00  -0.00    -0.00  -0.00  -0.00
   5   6    -0.00   0.00   0.00     0.00  -0.00  -0.00     0.00   0.00  -0.00
   6   6     0.00  -0.00  -0.00    -0.00  -0.00  -0.00    -0.00  -0.00   0.00
   7   1     0.15   0.17   0.09     0.38   0.52   0.33    -0.32  -0.44  -0.25
   8   1    -0.22  -0.23   0.29     0.31   0.29  -0.44     0.33   0.30  -0.42
   9   1    -0.51   0.53   0.37    -0.09   0.05   0.05    -0.30   0.32   0.23
  10   1    -0.01  -0.00   0.01     0.01   0.01  -0.01     0.01   0.01  -0.01
  11   1     0.00   0.01   0.00     0.01   0.01   0.01    -0.01  -0.01  -0.01
  12   1     0.00   0.00   0.00     0.00   0.01   0.00    -0.00  -0.00  -0.00
  13   1    -0.00   0.00  -0.00     0.00  -0.00  -0.00    -0.00   0.00  -0.00
  14   1    -0.00  -0.00   0.00     0.00  -0.00   0.00     0.00  -0.00   0.00
  15   1    -0.00   0.00   0.00     0.00  -0.00  -0.00    -0.00   0.00   0.00
  16   1     0.00  -0.00  -0.00    -0.00   0.00  -0.00     0.00  -0.00  -0.00
  17   1     0.00  -0.00   0.00    -0.00   0.00   0.00    -0.00  -0.00   0.00
  18   1     0.00   0.00  -0.00    -0.00  -0.00   0.00     0.00   0.00  -0.00
  19   1     0.00  -0.00   0.00     0.00   0.00   0.00    -0.00  -0.00  -0.00
  20   1    -0.00   0.00   0.00     0.00  -0.00  -0.00    -0.00   0.00   0.00
