      -----------------------------------------------------------      
     |                   =====================                   |     
     |                           x T B                           |     
     |                   =====================                   |     
     |                         S. Grimme                         |     
     |          Mulliken Center for Theoretical Chemistry        |     
     |                    University of Bonn                     |     
      -----------------------------------------------------------      

   * xtb version 6.5.1 (fef0646) compiled by 'conda@b96dff2e9fd6' on 2023-01-04

   xtb is free software: you can redistribute it and/or modify it under
   the terms of the GNU Lesser General Public License as published by
   the Free Software Foundation, either version 3 of the License, or
   (at your option) any later version.
   
   xtb is distributed in the hope that it will be useful,
   but WITHOUT ANY WARRANTY; without even the implied warranty of
   MERCHANTABILITY or FITNESS FOR A PARTICULAR PURPOSE.  See the
   GNU Lesser General Public License for more details.
   
   Cite this work as:
   * C. Bannwarth, E. Caldeweyher, S. Ehlert, A. Hansen, P. Pracht,
     J. Seibert, S. Spicher, S. Grimme, WIREs Comput. Mol. Sci., 2020, 11,
     e01493. DOI: 10.1002/wcms.1493
   
   for GFN2-xTB:
   * C. Bannwarth, S. Ehlert and S. Grimme., J. Chem. Theory Comput., 2019,
     15, 1652-1671. DOI: 10.1021/acs.jctc.8b01176
   for GFN1-xTB:
   * S. Grimme, C. Bannwarth, P. Shushkov, J. Chem. Theory Comput., 2017,
     13, 1989-2009. DOI: 10.1021/acs.jctc.7b00118
   for GFN0-xTB:
   * P. Pracht, E. Caldeweyher, S. Ehlert, S. Grimme, ChemRxiv, 2019, preprint.
     DOI: 10.26434/chemrxiv.8326202.v1
   for GFN-FF:
   * S. Spicher and S. Grimme, Angew. Chem. Int. Ed., 2020, 59, 15665-15673.
     DOI: 10.1002/anie.202004239
   
   for ALPB and GBSA implicit solvation:
   * S. Ehlert, M. Stahn, S. Spicher, S. Grimme, J. Chem. Theory Comput.,
     2021, 17, 4250-4261. DOI: 10.1021/acs.jctc.1c00471
   
   for DFT-D4:
   * E. Caldeweyher, C. Bannwarth and S. Grimme, J. Chem. Phys., 2017,
     147, 034112. DOI: 10.1063/1.4993215
   * E. Caldeweyher, S. Ehlert, A. Hansen, H. Neugebauer, S. Spicher,
     C. Bannwarth and S. Grimme, J. Chem. Phys., 2019, 150, 154122.
     DOI: 10.1063/1.5090222
   * E. Caldeweyher, J.-M. Mewes, S. Ehlert and S. Grimme, Phys. Chem. Chem. Phys.
     2020, 22, 8499-8512. DOI: 10.1039/D0CP00502A
   
   for sTDA-xTB:
   * S. Grimme and C. Bannwarth, J. Chem. Phys., 2016, 145, 054103.
     DOI: 10.1063/1.4959605
   
   in the mass-spec context:
   * V. Asgeirsson, C. Bauer and S. Grimme, Chem. Sci., 2017, 8, 4879.
     DOI: 10.1039/c7sc00601b
   * J. Koopman and S. Grimme, ACS Omega 2019, 4, 12, 15120-15133.
     DOI: 10.1021/acsomega.9b02011
   
   for metadynamics refer to:
   * S. Grimme, J. Chem. Theory Comput., 2019, 155, 2847-2862
     DOI: 10.1021/acs.jctc.9b00143
   
   for SPH calculations refer to:
   * S. Spicher and S. Grimme, J. Chem. Theory Comput., 2021, 17, 1701-1714
     DOI: 10.1021/acs.jctc.0c01306
   
   with help from (in alphabetical order)
   P. Atkinson, C. Bannwarth, F. Bohle, G. Brandenburg, E. Caldeweyher
   M. Checinski, S. Dohm, S. Ehlert, S. Ehrlich, I. Gerasimov, C. Hölzer
   A. Katbashev, J. Koopman, C. Lavigne, S. Lehtola, F. März, M. Müller,
   F. Musil, H. Neugebauer, J. Pisarek, C. Plett, P. Pracht, F. Pultar,
   J. Seibert, P. Shushkov, S. Spicher, M. Stahn, M. Steiner, T. Strunk,
   J. Stückrath, T. Rose, and J. Unsleber
   
 * started run on 2023/01/24 at 14:58:16.825     

           -------------------------------------------------
          |                Calculation Setup                |
           -------------------------------------------------

          program call               : xtb init.xyz --opt -c 1 -u 0 -P 16 --alpb water
          hostname                   : gpg-woodward
          coordinate file            : init.xyz
          omp threads                :                    16

   ID    Z sym.   atoms
    1    7 N      1
    2    6 C      2-9
    3    1 H      10-21

           -------------------------------------------------
          |                 G F N 2 - x T B                 |
           -------------------------------------------------

        Reference                      10.1021/acs.jctc.8b01176
      * Hamiltonian:
        H0-scaling (s, p, d)           1.850000    2.230000    2.230000
        zeta-weighting                 0.500000
      * Dispersion:
        s8                             2.700000
        a1                             0.520000
        a2                             5.000000
        s9                             5.000000
      * Repulsion:
        kExp                           1.500000    1.000000
        rExp                           1.000000
      * Coulomb:
        alpha                          2.000000
        third order                    shell-resolved
        anisotropic                    true
        a3                             3.000000
        a5                             4.000000
        cn-shift                       1.200000
        cn-exp                         4.000000
        max-rad                        5.000000

      * Solvation model:               ALPB
        Solvent                        water
        Parameter file                 internal GFN2-xTB/ALPB
        Dielectric constant                8.0200E+01
        Reference state                gsolv [1 M gas/solution]
        Free energy shift                  1.0808E-03 Eh       6.7819E-01 kcal/mol
        Temperature                        2.9815E+02 K
        Density                            1.0000E+00 kg/L
        Solvent mass                       1.8000E+01 g/mol
        Interaction kernel             P16
        Born radius scaling (c1)           1.4744E+00
        Born radii integrator          GBOBC
        Born offset                        0.0000E+00 a0       0.0000E+00 AA
        H-bond correction              true
        Ion screening                  false
        Surface tension                    1.0000E-05 Eh       1.5569E+01 dyn/cm
        Grid points                               230 per atom

          ...................................................
          :                      SETUP                      :
          :.................................................:
          :  # basis functions                  48          :
          :  # atomic orbitals                  48          :
          :  # shells                           30          :
          :  # electrons                        48          :
          :  max. iterations                   250          :
          :  Hamiltonian                  GFN2-xTB          :
          :  restarted?                      false          :
          :  GBSA solvation                   true          :
          :  PC potential                    false          :
          :  electronic temp.          300.0000000     K    :
          :  accuracy                    1.0000000          :
          :  -> integral cutoff          0.2500000E+02      :
          :  -> integral neglect         0.1000000E-07      :
          :  -> SCF convergence          0.1000000E-05 Eh   :
          :  -> wf. convergence          0.1000000E-03 e    :
          :  Broyden damping             0.4000000          :
          ...................................................

 iter      E             dE          RMSdq      gap      omega  full diag
   1    -26.1800663 -0.261801E+02  0.403E+00    4.66       0.0  T
   2    -26.2549349 -0.748686E-01  0.228E+00    4.66       1.0  T
   3    -26.2568457 -0.191075E-02  0.106E+00    4.65       1.0  T
   4    -26.2560473  0.798327E-03  0.319E-01    4.61       1.0  T
   5    -26.2576997 -0.165238E-02  0.763E-02    4.64       1.0  T
   6    -26.2577053 -0.554764E-05  0.440E-02    4.64       1.0  T
   7    -26.2577119 -0.659828E-05  0.172E-02    4.64       1.3  T
   8    -26.2577140 -0.209309E-05  0.726E-03    4.64       3.0  T
   9    -26.2577141 -0.137425E-06  0.303E-03    4.64       7.2  T
  10    -26.2577141 -0.290272E-07  0.103E-03    4.64      21.2  T
  11    -26.2577141 -0.616872E-08  0.274E-04    4.64      79.7  T
  12    -26.2577141 -0.536460E-09  0.143E-04    4.64     152.2  T

   *** convergence criteria satisfied after 12 iterations ***

         #    Occupation            Energy/Eh            Energy/eV
      -------------------------------------------------------------
         1        2.0000           -0.6976575             -18.9842
       ...           ...                  ...                  ...
        18        2.0000           -0.4730474             -12.8723
        19        2.0000           -0.4675305             -12.7222
        20        2.0000           -0.4530173             -12.3272
        21        2.0000           -0.4305358             -11.7155
        22        2.0000           -0.4256625             -11.5829
        23        2.0000           -0.4080260             -11.1030
        24        2.0000           -0.4075784             -11.0908 (HOMO)
        25                         -0.2371487              -6.4531 (LUMO)
        26                         -0.2312278              -6.2920
        27                         -0.1117258              -3.0402
        28                         -0.0427156              -1.1624
        29                          0.0534602               1.4547
       ...                                ...                  ...
        48                          0.6225649              16.9409
      -------------------------------------------------------------
                  HL-Gap            0.1704296 Eh            4.6376 eV
             Fermi-level           -0.3223636 Eh           -8.7720 eV

 SCC (total)                   0 d,  0 h,  0 min,  0.023 sec
 SCC setup                      ...        0 min,  0.000 sec (  1.572%)
 Dispersion                     ...        0 min,  0.000 sec (  1.154%)
 classical contributions        ...        0 min,  0.000 sec (  0.255%)
 integral evaluation            ...        0 min,  0.001 sec (  3.613%)
 iterations                     ...        0 min,  0.019 sec ( 80.067%)
 molecular gradient             ...        0 min,  0.003 sec ( 11.602%)
 printout                       ...        0 min,  0.000 sec (  0.571%)

         :::::::::::::::::::::::::::::::::::::::::::::::::::::
         ::                     SUMMARY                     ::
         :::::::::::::::::::::::::::::::::::::::::::::::::::::
         :: total energy             -25.829027801956 Eh    ::
         :: total w/o Gsasa/hb       -25.818723947065 Eh    ::
         :: gradient norm              0.030919792344 Eh/a0 ::
         :: HOMO-LUMO gap              4.637626203592 eV    ::
         ::.................................................::
         :: SCC energy               -26.257714126735 Eh    ::
         :: -> isotropic ES            0.121312571441 Eh    ::
         :: -> anisotropic ES         -0.015080059087 Eh    ::
         :: -> anisotropic XC          0.020454771256 Eh    ::
         :: -> dispersion             -0.014986857735 Eh    ::
         :: -> Gsolv                  -0.113078005651 Eh    ::
         ::    -> Gelec               -0.102774150759 Eh    ::
         ::    -> Gsasa               -0.001566834639 Eh    ::
         ::    -> Ghb                 -0.009817779951 Eh    ::
         ::    -> Gshift               0.001080759698 Eh    ::
         :: repulsion energy           0.428598639704 Eh    ::
         :: add. restraining           0.000000000000 Eh    ::
         :: total charge               1.000000000000 e     ::
         :::::::::::::::::::::::::::::::::::::::::::::::::::::

      ----------------------------------------------------------- 
     |                   =====================                   |
     |                        A N C O P T                        |
     |                   =====================                   |
     |               Approximate Normal Coordinate               |
     |                Rational Function Optimizer                |
      ----------------------------------------------------------- 

          ...................................................
          :                      SETUP                      :
          :.................................................:
          :   optimization level            normal          :
          :   max. optcycles                   200          :
          :   ANC micro-cycles                  20          :
          :   degrees of freedom                57          :
          :.................................................:
          :   RF solver                   davidson          :
          :   write xtbopt.log                true          :
          :   linear?                        false          :
          :   energy convergence         0.5000000E-05 Eh   :
          :   grad. convergence          0.1000000E-02 Eh/α :
          :   maximium RF displ.         1.0000000          :
          :   Hlow (freq-cutoff)         0.1000000E-01      :
          :   Hmax (freq-cutoff)         5.0000000          :
          :   S6 in model hess.         20.0000000          :
          ...................................................

generating ANC from model Hessian ...
Using Lindh-Hessian (1995)
 Shifting diagonal of input Hessian by    8.0041009687130682E-003
 Lowest  eigenvalues of input Hessian
    0.000000    0.000000    0.000000    0.000000    0.000000    0.000000
    0.010000    0.010356    0.014362    0.017974    0.018540    0.019536
    0.021269    0.021960    0.029840    0.034528    0.038316    0.054377
 Highest eigenvalues
    1.433532    1.522379    1.566367    1.824841    1.926224    1.940113


........................................................................
.............................. CYCLE    1 ..............................
........................................................................
   1    -26.2577141 -0.262577E+02  0.213E-05    4.64       0.0  T
   2    -26.2577141 -0.246914E-11  0.119E-05    4.64    1829.5  T
   3    -26.2577141 -0.536460E-12  0.758E-06    4.64    2878.9  T
     SCC iter.                  ...        0 min,  0.005 sec
     gradient                   ...        0 min,  0.002 sec
 * total energy  :   -25.8290278 Eh     change       -0.2414069E-10 Eh
   gradient norm :     0.0309200 Eh/α   predicted     0.0000000E+00 (-100.00%)
   displ. norm   :     0.1808756 α      lambda       -0.3161940E-02
   maximum displ.:     0.0756862 α      in ANC's #11, #3, #4, ...

........................................................................
.............................. CYCLE    2 ..............................
........................................................................
   1    -26.2790319 -0.262790E+02  0.142E-01    4.73       0.0  T
   2    -26.2790368 -0.489435E-05  0.844E-02    4.73       1.0  T
   3    -26.2790353  0.148524E-05  0.125E-02    4.74       1.7  T
   4    -26.2790378 -0.250808E-05  0.380E-03    4.74       5.7  T
   5    -26.2790379 -0.855723E-07  0.208E-03    4.74      10.5  T
   6    -26.2790379 -0.582019E-08  0.740E-04    4.74      29.5  T
   7    -26.2790379 -0.316534E-08  0.238E-04    4.74      91.7  T
     SCC iter.                  ...        0 min,  0.010 sec
     gradient                   ...        0 min,  0.002 sec
 * total energy  :   -25.8309913 Eh     change       -0.1963450E-02 Eh
   gradient norm :     0.0089143 Eh/α   predicted    -0.1632718E-02 ( -16.84%)
   displ. norm   :     0.1012116 α      lambda       -0.3602966E-03
   maximum displ.:     0.0655734 α      in ANC's #3, #11, #4, ...

........................................................................
.............................. CYCLE    3 ..............................
........................................................................
   1    -26.2851217 -0.262851E+02  0.490E-02    4.76       0.0  T
   2    -26.2851228 -0.111343E-05  0.289E-02    4.76       1.0  T
   3    -26.2851226  0.228100E-06  0.602E-03    4.76       3.6  T
   4    -26.2851230 -0.430370E-06  0.175E-03    4.76      12.5  T
   5    -26.2851231 -0.176154E-07  0.923E-04    4.76      23.7  T
   6    -26.2851231 -0.166796E-08  0.280E-04    4.76      78.0  T
     SCC iter.                  ...        0 min,  0.009 sec
     gradient                   ...        0 min,  0.002 sec
 * total energy  :   -25.8312002 Eh     change       -0.2089247E-03 Eh
   gradient norm :     0.0024624 Eh/α   predicted    -0.1820827E-03 ( -12.85%)
   displ. norm   :     0.0558408 α      lambda       -0.4959754E-04
   maximum displ.:     0.0432639 α      in ANC's #3, #4, #1, ...

........................................................................
.............................. CYCLE    4 ..............................
........................................................................
   1    -26.2852714 -0.262853E+02  0.209E-02    4.76       0.0  T
   2    -26.2852716 -0.147762E-06  0.119E-02    4.76       1.8  T
   3    -26.2852715  0.426271E-07  0.263E-03    4.76       8.3  T
   4    -26.2852716 -0.849352E-07  0.627E-04    4.76      34.8  T
   5    -26.2852716 -0.642196E-09  0.334E-04    4.76      65.3  T
     SCC iter.                  ...        0 min,  0.007 sec
     gradient                   ...        0 min,  0.002 sec
 * total energy  :   -25.8312354 Eh     change       -0.3523671E-04 Eh
   gradient norm :     0.0014248 Eh/α   predicted    -0.2487658E-04 ( -29.40%)
   displ. norm   :     0.0950028 α      lambda       -0.2982395E-04
   maximum displ.:     0.0687314 α      in ANC's #3, #1, #4, ...

........................................................................
.............................. CYCLE    5 ..............................
........................................................................
   1    -26.2843965 -0.262844E+02  0.342E-02    4.75       0.0  T
   2    -26.2843968 -0.262606E-06  0.196E-02    4.75       1.1  T
   3    -26.2843966  0.163191E-06  0.415E-03    4.75       5.3  T
   4    -26.2843969 -0.264440E-06  0.836E-04    4.75      26.1  T
   5    -26.2843969  0.326150E-09  0.397E-04    4.75      55.0  T
     SCC iter.                  ...        0 min,  0.007 sec
     gradient                   ...        0 min,  0.002 sec
 * total energy  :   -25.8312564 Eh     change       -0.2100657E-04 Eh
   gradient norm :     0.0015641 Eh/α   predicted    -0.1497211E-04 ( -28.73%)
   displ. norm   :     0.0324200 α      lambda       -0.8765650E-05
   maximum displ.:     0.0209590 α      in ANC's #7, #1, #2, ...

........................................................................
.............................. CYCLE    6 ..............................
........................................................................
   1    -26.2844383 -0.262844E+02  0.125E-02    4.75       0.0  T
   2    -26.2844384 -0.280083E-07  0.730E-03    4.75       3.0  T
   3    -26.2844383  0.120725E-07  0.108E-03    4.75      20.2  T
   4    -26.2844384 -0.183740E-07  0.231E-04    4.75      94.4  T
   5    -26.2844384 -0.252591E-09  0.129E-04    4.75     169.2  T
     SCC iter.                  ...        0 min,  0.006 sec
     gradient                   ...        0 min,  0.001 sec
 * total energy  :   -25.8312674 Eh     change       -0.1093085E-04 Eh
   gradient norm :     0.0008503 Eh/α   predicted    -0.4390796E-05 ( -59.83%)
   displ. norm   :     0.1025135 α      lambda       -0.1849786E-04
   maximum displ.:     0.0683307 α      in ANC's #7, #1, #2, ...

........................................................................
.............................. CYCLE    7 ..............................
........................................................................
   1    -26.2846067 -0.262846E+02  0.345E-02    4.75       0.0  T
   2    -26.2846069 -0.135212E-06  0.203E-02    4.75       1.1  T
   3    -26.2846067  0.161763E-06  0.349E-03    4.75       6.2  T
   4    -26.2846069 -0.211066E-06  0.547E-04    4.75      39.9  T
   5    -26.2846069 -0.942507E-09  0.306E-04    4.75      71.2  T
     SCC iter.                  ...        0 min,  0.005 sec
     gradient                   ...        0 min,  0.001 sec
 * total energy  :   -25.8312847 Eh     change       -0.1736738E-04 Eh
   gradient norm :     0.0009736 Eh/α   predicted    -0.9292657E-05 ( -46.49%)
   displ. norm   :     0.0674281 α      lambda       -0.6650916E-05
   maximum displ.:     0.0464835 α      in ANC's #1, #7, #3, ...

........................................................................
.............................. CYCLE    8 ..............................
........................................................................
   1    -26.2846050 -0.262846E+02  0.250E-02    4.75       0.0  T
   2    -26.2846051 -0.330220E-07  0.146E-02    4.75       1.5  T
   3    -26.2846050  0.412436E-07  0.189E-03    4.75      11.5  T
   4    -26.2846051 -0.567626E-07  0.325E-04    4.75      67.1  T
   5    -26.2846051 -0.574332E-10  0.169E-04    4.75     128.8  T
     SCC iter.                  ...        0 min,  0.005 sec
     gradient                   ...        0 min,  0.001 sec
 * total energy  :   -25.8312909 Eh     change       -0.6223727E-05 Eh
   gradient norm :     0.0008630 Eh/α   predicted    -0.3333536E-05 ( -46.44%)
   displ. norm   :     0.0430167 α      lambda       -0.3766577E-05
   maximum displ.:     0.0332206 α      in ANC's #1, #7, #11, ...

........................................................................
.............................. CYCLE    9 ..............................
........................................................................
   1    -26.2847179 -0.262847E+02  0.168E-02    4.75       0.0  T
   2    -26.2847179 -0.169840E-07  0.981E-03    4.75       2.2  T
   3    -26.2847179  0.148260E-07  0.120E-03    4.75      18.2  T
   4    -26.2847179 -0.224374E-07  0.251E-04    4.75      86.8  T
   5    -26.2847179 -0.733031E-10  0.122E-04    4.75     178.9  T
     SCC iter.                  ...        0 min,  0.005 sec
     gradient                   ...        0 min,  0.001 sec
 * total energy  :   -25.8312948 Eh     change       -0.3852000E-05 Eh
   gradient norm :     0.0003399 Eh/α   predicted    -0.1885682E-05 ( -51.05%)
   displ. norm   :     0.0273734 α      lambda       -0.1484334E-05
   maximum displ.:     0.0225082 α      in ANC's #1, #7, #2, ...

   *** GEOMETRY OPTIMIZATION CONVERGED AFTER 9 ITERATIONS ***

------------------------------------------------------------------------
 total energy gain   :        -0.0022670 Eh       -1.4226 kcal/mol
 total RMSD          :         0.1121984 a0        0.0594 Å
 total power (kW/mol):        -0.6613319 (step)  -61.0320 (real)
------------------------------------------------------------------------

 ANCopt (total)                0 d,  0 h,  0 min,  0.098 sec
 optimizer setup                ...        0 min,  0.000 sec (  0.183%)
 model hessian                  ...        0 min,  0.009 sec (  9.454%)
 ANC generation                 ...        0 min,  0.001 sec (  1.379%)
 coordinate transformation      ...        0 min,  0.000 sec (  0.242%)
 single point calculation       ...        0 min,  0.084 sec ( 85.720%)
 optimization log               ...        0 min,  0.001 sec (  0.916%)
 hessian update                 ...        0 min,  0.000 sec (  0.193%)
 rational function              ...        0 min,  0.001 sec (  0.720%)

================
 final structure:
================
21
 xtb: 6.5.1 (fef0646)
N            1.16826759748572        0.28901435560687       -0.73586197718165
C            2.47571546698162       -0.01923371744859       -0.07939301515882
C            2.30442806550154        0.07155043933115        1.43203092644129
C            2.95623692260645       -1.38500967442715       -0.51231140774343
C            4.18016063189392       -1.52029124394755       -1.15403187473789
C            4.63330842336893       -2.76847292387103       -1.54545951579011
C            3.86378725699691       -3.89372702711780       -1.30281306077893
C            2.64236979724990       -3.76683803683643       -0.66163918422529
C            2.19105516819951       -2.52031577277151       -0.26723804747689
H            0.83695773791430        1.21827679717278       -0.45069342434669
H            0.46499725462289       -0.40557212340356       -0.45716645977416
H            1.25924016317828        0.26478816348714       -1.75807426195203
H            3.20159904706677        0.72905789454414       -0.40675568451771
H            1.57121971515137       -0.64454280954655        1.79070394250161
H            2.00279690366637        1.07166170518442        1.72975763072339
H            3.24787262710940       -0.15118999544317        1.92115562349073
H            4.79056342256693       -0.65105306043871       -1.34724754063645
H            5.58715165054597       -2.86475173245086       -2.04194842785720
H            4.21644463249211       -4.86709461396372       -1.60933910964000
H            2.04408920160471       -4.64418780337196       -0.46762959960681
H            1.24446831379644       -2.45455882028790        0.24675446826706

 Bond Distances (Angstroems)
 ---------------------------
N1-C2=1.4951         N1-H10=1.0269        N1-H11=1.0270        N1-H12=1.0265        C2-N1=1.4951         C2-C3=1.5238         
C2-C4=1.5112         C2-H13=1.0927        C3-C2=1.5238         C3-H14=1.0858        C3-H15=1.0862        C3-H16=1.0858        
C4-C2=1.5112         C4-C5=1.3886         C4-C9=1.3909         C5-C4=1.3886         C5-C6=1.3844         C5-H17=1.0796        
C6-C5=1.3844         C6-C7=1.3846         C6-H18=1.0796        C7-C6=1.3846         C7-C8=1.3853         C7-H19=1.0797        
C8-C7=1.3853         C8-C9=1.3831         C8-H20=1.0795        C9-C4=1.3909         C9-C8=1.3831         C9-H21=1.0791        
H10-N1=1.0269        H11-N1=1.0270        H12-N1=1.0265        H13-C2=1.0927        H14-C3=1.0858        H15-C3=1.0862        
H16-C3=1.0858        H17-C5=1.0796        H18-C6=1.0796        H19-C7=1.0797        H20-C8=1.0795        H21-C9=1.0791        
 C  H  Rav=1.0831 sigma=0.0045  Rmin=1.0791  Rmax=1.0927     9
 C  C  Rav=1.4190 sigma=0.0570  Rmin=1.3831  Rmax=1.5238     8
 N  H  Rav=1.0268 sigma=0.0002  Rmin=1.0265  Rmax=1.0270     3
 N  C  Rav=1.4951 sigma=0.0000  Rmin=1.4951  Rmax=1.4951     1

 selected bond angles (degree)
 --------------------
H10-N1-C2=110.29               H11-N1-C2=109.89               H11-N1-H10=108.40              H12-N1-C2=110.78               
H12-N1-H10=109.05              H12-N1-H11=108.36              C3-C2-N1=108.96                C4-C2-N1=109.79                
C4-C2-C3=111.95                H13-C2-N1=107.95               H13-C2-C3=109.33               H13-C2-C4=108.78               
H14-C3-C2=111.36               H15-C3-C2=110.97               H15-C3-H14=109.22              H16-C3-C2=109.69               
H16-C3-H14=107.62              H16-C3-H15=107.86              C5-C4-C2=120.05                C9-C4-C2=120.82                
C9-C4-C5=119.13                C6-C5-C4=120.47                H17-C5-C4=120.17               H17-C5-C6=119.36               
C7-C6-C5=120.08                H18-C6-C5=119.98               H18-C6-C7=119.94               C8-C7-C6=119.78                
H19-C7-C6=120.09               H19-C7-C8=120.13               C9-C8-C7=120.15                H20-C8-C7=119.83               
H20-C8-C9=120.02               C8-C9-C4=120.39                H21-C9-C4=121.12               H21-C9-C8=118.49               

 selected dihedral angles (degree)
 ---------------------------------
C3-C2-N1-H10= 57.37           C3-C2-N1-H11=297.92           C3-C2-N1-H12=178.21           C4-C2-N1-H10=180.30           
C4-C2-N1-H11= 60.85           C4-C2-N1-H12=301.14           H13-C2-N1-H10=298.74          H13-C2-N1-H11=179.28          
H13-C2-N1-H12= 59.58          H14-C3-C2-N1= 60.94           H14-C3-C2-C4=299.31           H14-C3-C2-H13=178.70          
H15-C3-C2-N1=299.04           H15-C3-C2-C4=177.41           H15-C3-C2-H13= 56.80          H16-C3-C2-N1=179.96           
H16-C3-C2-C4= 58.33           H16-C3-C2-H13=297.72          C5-C4-C2-N1=120.91            C5-C4-C2-C3=242.06            
C5-C4-C2-H13=  2.99           C9-C4-C2-N1=300.40            C9-C4-C2-C3= 61.55            C9-C4-C2-H13=182.48           
C6-C5-C4-C2=179.52            C6-C5-C4-C9=  0.00            H17-C5-C4-C2=359.87           H17-C5-C4-C9=180.38           
C7-C6-C5-C4=  0.23            C7-C6-C5-H17=179.88           H18-C6-C5-C4=180.13           H18-C6-C5-H17=359.78          
C8-C7-C6-C5=359.70            C8-C7-C6-H18=179.79           H19-C7-C6-C5=179.91           H19-C7-C6-H18=  0.00          
C9-C8-C7-C6=  0.13            C9-C8-C7-H19=179.91           H20-C8-C7-C6=180.31           H20-C8-C7-H19=  0.09          
C8-C9-C4-C2=180.31            C8-C9-C4-C5=359.80            H21-C9-C4-C2=359.26           H21-C9-C4-C5=178.76           
C4-C9-C8-C7=  0.12            C4-C9-C8-H20=179.94           H21-C9-C8-C7=181.14           H21-C9-C8-H20=  0.96          
           -------------------------------------------------
          |                Final Singlepoint                |
           -------------------------------------------------

          ...................................................
          :                      SETUP                      :
          :.................................................:
          :  # basis functions                  48          :
          :  # atomic orbitals                  48          :
          :  # shells                           30          :
          :  # electrons                        48          :
          :  max. iterations                   250          :
          :  Hamiltonian                  GFN2-xTB          :
          :  restarted?                      false          :
          :  GBSA solvation                   true          :
          :  PC potential                    false          :
          :  electronic temp.          300.0000000     K    :
          :  accuracy                    1.0000000          :
          :  -> integral cutoff          0.2500000E+02      :
          :  -> integral neglect         0.1000000E-07      :
          :  -> SCF convergence          0.1000000E-05 Eh   :
          :  -> wf. convergence          0.1000000E-03 e    :
          :  Broyden damping             0.4000000          :
          ...................................................

 iter      E             dE          RMSdq      gap      omega  full diag
   1    -26.2847179 -0.262847E+02  0.232E-05    4.75       0.0  T
   2    -26.2847179 -0.427747E-11  0.132E-05    4.75    1652.5  T
   3    -26.2847179 -0.150280E-11  0.779E-06    4.75    2799.6  T

   *** convergence criteria satisfied after 3 iterations ***

         #    Occupation            Energy/Eh            Energy/eV
      -------------------------------------------------------------
         1        2.0000           -0.6969314             -18.9645
       ...           ...                  ...                  ...
        18        2.0000           -0.4747729             -12.9192
        19        2.0000           -0.4684867             -12.7482
        20        2.0000           -0.4546308             -12.3711
        21        2.0000           -0.4302567             -11.7079
        22        2.0000           -0.4256648             -11.5829
        23        2.0000           -0.4102801             -11.1643
        24        2.0000           -0.4089838             -11.1290 (HOMO)
        25                         -0.2342882              -6.3753 (LUMO)
        26                         -0.2287392              -6.2243
        27                         -0.1056222              -2.8741
        28                         -0.0437637              -1.1909
        29                          0.0487487               1.3265
       ...                                ...                  ...
        48                          0.6575909              17.8940
      -------------------------------------------------------------
                  HL-Gap            0.1746956 Eh            4.7537 eV
             Fermi-level           -0.3216360 Eh           -8.7522 eV

 SCC (total)                   0 d,  0 h,  0 min,  0.005 sec
 SCC setup                      ...        0 min,  0.000 sec (  2.912%)
 Dispersion                     ...        0 min,  0.000 sec (  1.815%)
 classical contributions        ...        0 min,  0.000 sec (  0.389%)
 integral evaluation            ...        0 min,  0.000 sec (  8.540%)
 iterations                     ...        0 min,  0.003 sec ( 61.865%)
 molecular gradient             ...        0 min,  0.001 sec ( 21.337%)
 printout                       ...        0 min,  0.000 sec (  1.391%)

         :::::::::::::::::::::::::::::::::::::::::::::::::::::
         ::                     SUMMARY                     ::
         :::::::::::::::::::::::::::::::::::::::::::::::::::::
         :: total energy             -25.831294794045 Eh    ::
         :: total w/o Gsasa/hb       -25.821010158934 Eh    ::
         :: gradient norm              0.000340096194 Eh/a0 ::
         :: HOMO-LUMO gap              4.753710007264 eV    ::
         ::.................................................::
         :: SCC energy               -26.284717915023 Eh    ::
         :: -> isotropic ES            0.120890593151 Eh    ::
         :: -> anisotropic ES         -0.015593669127 Eh    ::
         :: -> anisotropic XC          0.019629805476 Eh    ::
         :: -> dispersion             -0.015122221983 Eh    ::
         :: -> Gsolv                  -0.112746700506 Eh    ::
         ::    -> Gelec               -0.102462065396 Eh    ::
         ::    -> Gsasa               -0.001564207042 Eh    ::
         ::    -> Ghb                 -0.009801187767 Eh    ::
         ::    -> Gshift               0.001080759698 Eh    ::
         :: repulsion energy           0.453335392214 Eh    ::
         :: add. restraining           0.000000000000 Eh    ::
         :: total charge               1.000000000000 e     ::
         :::::::::::::::::::::::::::::::::::::::::::::::::::::

           -------------------------------------------------
          |                Property Printout                |
           -------------------------------------------------

    * Orbital Energies and Occupations

         #    Occupation            Energy/Eh            Energy/eV
      -------------------------------------------------------------
         1        2.0000           -0.6969314             -18.9645
       ...           ...                  ...                  ...
        12        2.0000           -0.5268540             -14.3364
        13        2.0000           -0.5116904             -13.9238
        14        2.0000           -0.4990983             -13.5812
        15        2.0000           -0.4907937             -13.3552
        16        2.0000           -0.4852453             -13.2042
        17        2.0000           -0.4812618             -13.0958
        18        2.0000           -0.4747729             -12.9192
        19        2.0000           -0.4684867             -12.7482
        20        2.0000           -0.4546308             -12.3711
        21        2.0000           -0.4302567             -11.7079
        22        2.0000           -0.4256648             -11.5829
        23        2.0000           -0.4102801             -11.1643
        24        2.0000           -0.4089838             -11.1290 (HOMO)
        25                         -0.2342882              -6.3753 (LUMO)
        26                         -0.2287392              -6.2243
        27                         -0.1056222              -2.8741
        28                         -0.0437637              -1.1909
        29                          0.0487487               1.3265
        30                          0.0643580               1.7513
        31                          0.0970900               2.6420
        32                          0.1055707               2.8727
        33                          0.1198157               3.2604
        34                          0.1507109               4.1011
        35                          0.1720778               4.6825
       ...                                ...                  ...
        48                          0.6575909              17.8940
      -------------------------------------------------------------
                  HL-Gap            0.1746956 Eh            4.7537 eV
             Fermi-level           -0.3216360 Eh           -8.7522 eV

     #   Z          covCN         q      C6AA      α(0)
     1   7 N        3.486    -0.169    24.640     7.372
     2   6 C        3.786     0.027    20.137     6.392
     3   6 C        3.756    -0.149    23.439     6.903
     4   6 C        2.972     0.003    27.948     8.672
     5   6 C        2.924    -0.042    29.053     8.839
     6   6 C        2.919    -0.031    28.782     8.798
     7   6 C        2.920    -0.031    28.782     8.798
     8   6 C        2.919    -0.033    28.825     8.804
     9   6 C        2.923    -0.044    29.085     8.844
    10   1 H        0.859     0.316     0.669     1.281
    11   1 H        0.859     0.302     0.706     1.316
    12   1 H        0.859     0.310     0.685     1.297
    13   1 H        0.924     0.105     1.743     2.065
    14   1 H        0.925     0.076     2.017     2.221
    15   1 H        0.925     0.079     1.988     2.205
    16   1 H        0.925     0.070     2.086     2.259
    17   1 H        0.926     0.052     2.290     2.367
    18   1 H        0.926     0.032     2.560     2.502
    19   1 H        0.926     0.026     2.642     2.542
    20   1 H        0.926     0.037     2.490     2.468
    21   1 H        0.926     0.065     2.143     2.289

 Mol. C6AA /au·bohr⁶  :       3875.161867
 Mol. C8AA /au·bohr⁸  :      90773.872054
 Mol. α(0) /au        :         98.233074


Wiberg/Mayer (AO) data.
largest (>0.10) Wiberg bond orders for each atom

 ---------------------------------------------------------------------------
     #   Z sym  total        # sym  WBO       # sym  WBO       # sym  WBO
 ---------------------------------------------------------------------------
     1   7 N    3.650 --     2 C    0.940    12 H    0.890    11 H    0.889
                            10 H    0.885
     2   6 C    3.936 --     3 C    1.004     4 C    0.995    13 H    0.957
                             1 N    0.940
     3   6 C    3.981 --     2 C    1.004    14 H    0.978    15 H    0.978
                            16 H    0.978
     4   6 C    3.987 --     5 C    1.417     9 C    1.410     2 C    0.995
                             7 C    0.109
     5   6 C    3.990 --     6 C    1.440     4 C    1.417    17 H    0.967
                             8 C    0.111
     6   6 C    3.992 --     7 C    1.442     5 C    1.440    18 H    0.971
                             9 C    0.112
     7   6 C    3.992 --     6 C    1.442     8 C    1.436    19 H    0.972
                             4 C    0.109
     8   6 C    3.992 --     9 C    1.447     7 C    1.436    20 H    0.971
                             5 C    0.111
     9   6 C    3.989 --     8 C    1.447     4 C    1.410    21 H    0.962
                             6 C    0.112
    10   1 H    0.900 --     1 N    0.885
    11   1 H    0.909 --     1 N    0.889
    12   1 H    0.904 --     1 N    0.890
    13   1 H    0.989 --     2 C    0.957
    14   1 H    0.994 --     3 C    0.978
    15   1 H    0.993 --     3 C    0.978
    16   1 H    0.995 --     3 C    0.978
    17   1 H    0.997 --     5 C    0.967
    18   1 H    0.999 --     6 C    0.971
    19   1 H    0.999 --     7 C    0.972
    20   1 H    0.998 --     8 C    0.971
    21   1 H    0.996 --     9 C    0.962
 ---------------------------------------------------------------------------

Topologies differ in total number of bonds
Writing topology from bond orders to xtbtopo.mol

molecular dipole:
                 x           y           z       tot (Debye)
 q only:        2.341       0.578      -1.058
   full:        2.377       0.419      -1.168       6.816
molecular quadrupole (traceless):
                xx          xy          yy          xz          yz          zz
 q only:        5.218       2.843      -3.441      -3.542      -1.247      -1.777
  q+dip:        6.035       1.384      -0.185      -7.125      -0.323      -5.850
   full:        5.560       0.841      -1.684      -5.281      -0.614      -3.875

           -------------------------------------------------
          |                Geometry Summary                 |
           -------------------------------------------------

      molecular mass/u    :      122.1878794
   center of mass at/Å    :        2.8669680      -1.6307277      -0.5099876
  moments of inertia/u·Å² :        0.1499596E+03   0.4679341E+03   0.5094404E+03
rotational constants/cm⁻¹ :        0.1124145E+00   0.3602565E-01   0.3309049E-01

 * 20 selected distances

     #   Z          #   Z                                           value/Å
     1   7 N        2   6 C                                       1.4951216
     2   6 C        3   6 C                                       1.5238057 (max)
     4   6 C        5   6 C                                       1.3885589
     5   6 C        6   6 C                                       1.3843830
     6   6 C        7   6 C                                       1.3846434
     7   6 C        8   6 C                                       1.3853035
     4   6 C        9   6 C                                       1.3908574
     8   6 C        9   6 C                                       1.3831324
     1   7 N       10   1 H                                       1.0269451
     1   7 N       11   1 H                                       1.0269912
     1   7 N       12   1 H                                       1.0265384 (min)
     2   6 C       13   1 H                                       1.0927094
     3   6 C       14   1 H                                       1.0858317
     3   6 C       15   1 H                                       1.0862068
     3   6 C       16   1 H                                       1.0857919
     5   6 C       17   1 H                                       1.0795828
     6   6 C       18   1 H                                       1.0796240
     7   6 C       19   1 H                                       1.0797083
     8   6 C       20   1 H                                       1.0795009
     9   6 C       21   1 H                                       1.0791382

 * 4 distinct bonds (by element types)

   Z      Z             #   av. dist./Å        max./Å        min./Å
   1 H    6 C           9     1.0831216     1.0927094     1.0791382
   6 C    6 C           7     1.4058121     1.5238057     1.3831324
   1 H    7 N           3     1.0268249     1.0269912     1.0265384
   6 C    7 N           1     1.4951216     1.4951216     1.4951216


optimized geometry written to: xtbopt.xyz


           -------------------------------------------------
          | TOTAL ENERGY              -25.831294794045 Eh   |
          | GRADIENT NORM               0.000340096194 Eh/α |
          | HOMO-LUMO GAP               4.753710007264 eV   |
           -------------------------------------------------

------------------------------------------------------------------------
 * finished run on 2023/01/24 at 14:58:16.993     
------------------------------------------------------------------------
 total:
 * wall-time:     0 d,  0 h,  0 min,  0.169 sec
 *  cpu-time:     0 d,  0 h,  0 min, 20.099 sec
 * ratio c/w:   119.277 speedup
 SCF:
 * wall-time:     0 d,  0 h,  0 min,  0.024 sec
 *  cpu-time:     0 d,  0 h,  0 min,  3.240 sec
 * ratio c/w:   137.721 speedup
 ANC optimizer:
 * wall-time:     0 d,  0 h,  0 min,  0.104 sec
 *  cpu-time:     0 d,  0 h,  0 min, 11.595 sec
 * ratio c/w:   111.948 speedup

