21
 energy: -25.831294794045 gnorm: 0.000340096194 xtb: 6.5.1 (fef0646)
N            1.16826759748572        0.28901435560687       -0.73586197718165
C            2.47571546698162       -0.01923371744859       -0.07939301515882
C            2.30442806550154        0.07155043933115        1.43203092644129
C            2.95623692260645       -1.38500967442715       -0.51231140774343
C            4.18016063189392       -1.52029124394755       -1.15403187473789
C            4.63330842336893       -2.76847292387103       -1.54545951579011
C            3.86378725699691       -3.89372702711780       -1.30281306077893
C            2.64236979724990       -3.76683803683643       -0.66163918422529
C            2.19105516819951       -2.52031577277151       -0.26723804747689
H            0.83695773791430        1.21827679717278       -0.45069342434669
H            0.46499725462289       -0.40557212340356       -0.45716645977416
H            1.25924016317828        0.26478816348714       -1.75807426195203
H            3.20159904706677        0.72905789454414       -0.40675568451771
H            1.57121971515137       -0.64454280954655        1.79070394250161
H            2.00279690366637        1.07166170518442        1.72975763072339
H            3.24787262710940       -0.15118999544317        1.92115562349073
H            4.79056342256693       -0.65105306043871       -1.34724754063645
H            5.58715165054597       -2.86475173245086       -2.04194842785720
H            4.21644463249211       -4.86709461396372       -1.60933910964000
H            2.04408920160471       -4.64418780337196       -0.46762959960681
H            1.24446831379644       -2.45455882028790        0.24675446826706
