      -----------------------------------------------------------      
     |                   =====================                   |     
     |                           x T B                           |     
     |                   =====================                   |     
     |                         S. Grimme                         |     
     |          Mulliken Center for Theoretical Chemistry        |     
     |                    University of Bonn                     |     
      -----------------------------------------------------------      

   * xtb version 6.5.1 (fef0646) compiled by 'conda@b96dff2e9fd6' on 2023-01-04

   xtb is free software: you can redistribute it and/or modify it under
   the terms of the GNU Lesser General Public License as published by
   the Free Software Foundation, either version 3 of the License, or
   (at your option) any later version.
   
   xtb is distributed in the hope that it will be useful,
   but WITHOUT ANY WARRANTY; without even the implied warranty of
   MERCHANTABILITY or FITNESS FOR A PARTICULAR PURPOSE.  See the
   GNU Lesser General Public License for more details.
   
   Cite this work as:
   * C. Bannwarth, E. Caldeweyher, S. Ehlert, A. Hansen, P. Pracht,
     J. Seibert, S. Spicher, S. Grimme, WIREs Comput. Mol. Sci., 2020, 11,
     e01493. DOI: 10.1002/wcms.1493
   
   for GFN2-xTB:
   * C. Bannwarth, S. Ehlert and S. Grimme., J. Chem. Theory Comput., 2019,
     15, 1652-1671. DOI: 10.1021/acs.jctc.8b01176
   for GFN1-xTB:
   * S. Grimme, C. Bannwarth, P. Shushkov, J. Chem. Theory Comput., 2017,
     13, 1989-2009. DOI: 10.1021/acs.jctc.7b00118
   for GFN0-xTB:
   * P. Pracht, E. Caldeweyher, S. Ehlert, S. Grimme, ChemRxiv, 2019, preprint.
     DOI: 10.26434/chemrxiv.8326202.v1
   for GFN-FF:
   * S. Spicher and S. Grimme, Angew. Chem. Int. Ed., 2020, 59, 15665-15673.
     DOI: 10.1002/anie.202004239
   
   for ALPB and GBSA implicit solvation:
   * S. Ehlert, M. Stahn, S. Spicher, S. Grimme, J. Chem. Theory Comput.,
     2021, 17, 4250-4261. DOI: 10.1021/acs.jctc.1c00471
   
   for DFT-D4:
   * E. Caldeweyher, C. Bannwarth and S. Grimme, J. Chem. Phys., 2017,
     147, 034112. DOI: 10.1063/1.4993215
   * E. Caldeweyher, S. Ehlert, A. Hansen, H. Neugebauer, S. Spicher,
     C. Bannwarth and S. Grimme, J. Chem. Phys., 2019, 150, 154122.
     DOI: 10.1063/1.5090222
   * E. Caldeweyher, J.-M. Mewes, S. Ehlert and S. Grimme, Phys. Chem. Chem. Phys.
     2020, 22, 8499-8512. DOI: 10.1039/D0CP00502A
   
   for sTDA-xTB:
   * S. Grimme and C. Bannwarth, J. Chem. Phys., 2016, 145, 054103.
     DOI: 10.1063/1.4959605
   
   in the mass-spec context:
   * V. Asgeirsson, C. Bauer and S. Grimme, Chem. Sci., 2017, 8, 4879.
     DOI: 10.1039/c7sc00601b
   * J. Koopman and S. Grimme, ACS Omega 2019, 4, 12, 15120-15133.
     DOI: 10.1021/acsomega.9b02011
   
   for metadynamics refer to:
   * S. Grimme, J. Chem. Theory Comput., 2019, 155, 2847-2862
     DOI: 10.1021/acs.jctc.9b00143
   
   for SPH calculations refer to:
   * S. Spicher and S. Grimme, J. Chem. Theory Comput., 2021, 17, 1701-1714
     DOI: 10.1021/acs.jctc.0c01306
   
   with help from (in alphabetical order)
   P. Atkinson, C. Bannwarth, F. Bohle, G. Brandenburg, E. Caldeweyher
   M. Checinski, S. Dohm, S. Ehlert, S. Ehrlich, I. Gerasimov, C. Hölzer
   A. Katbashev, J. Koopman, C. Lavigne, S. Lehtola, F. März, M. Müller,
   F. Musil, H. Neugebauer, J. Pisarek, C. Plett, P. Pracht, F. Pultar,
   J. Seibert, P. Shushkov, S. Spicher, M. Stahn, M. Steiner, T. Strunk,
   J. Stückrath, T. Rose, and J. Unsleber
   
 * started run on 2023/01/24 at 14:56:02.070     

           -------------------------------------------------
          |                Calculation Setup                |
           -------------------------------------------------

          program call               : xtb init.xyz --opt -c 0 -u 0 -P 16 --alpb water
          hostname                   : gpg-woodward
          coordinate file            : init.xyz
          omp threads                :                    16

   ID    Z sym.   atoms
    1    7 N      1, 10, 11
    2    6 C      2-9, 12-17
    3   17 Cl     18
    4    1 H      19-34

molecular fragmentation (1/2 indicates fragments):
1111111111111111121111111111111111
# atoms in fragment 1/2:    33     1
 fragment masses (1/2) :      226.30       35.45
CMA distance (Bohr)    :  15.052
constraining FC (au)   :  0.0500

           -------------------------------------------------
          |                 G F N 2 - x T B                 |
           -------------------------------------------------

        Reference                      10.1021/acs.jctc.8b01176
      * Hamiltonian:
        H0-scaling (s, p, d)           1.850000    2.230000    2.230000
        zeta-weighting                 0.500000
      * Dispersion:
        s8                             2.700000
        a1                             0.520000
        a2                             5.000000
        s9                             5.000000
      * Repulsion:
        kExp                           1.500000    1.000000
        rExp                           1.000000
      * Coulomb:
        alpha                          2.000000
        third order                    shell-resolved
        anisotropic                    true
        a3                             3.000000
        a5                             4.000000
        cn-shift                       1.200000
        cn-exp                         4.000000
        max-rad                        5.000000

      * Solvation model:               ALPB
        Solvent                        water
        Parameter file                 internal GFN2-xTB/ALPB
        Dielectric constant                8.0200E+01
        Reference state                gsolv [1 M gas/solution]
        Free energy shift                  1.0808E-03 Eh       6.7819E-01 kcal/mol
        Temperature                        2.9815E+02 K
        Density                            1.0000E+00 kg/L
        Solvent mass                       1.8000E+01 g/mol
        Interaction kernel             P16
        Born radius scaling (c1)           1.4744E+00
        Born radii integrator          GBOBC
        Born offset                        0.0000E+00 a0       0.0000E+00 AA
        H-bond correction              true
        Ion screening                  false
        Surface tension                    1.0000E-05 Eh       1.5569E+01 dyn/cm
        Grid points                               230 per atom

          ...................................................
          :                      SETUP                      :
          :.................................................:
          :  # basis functions                  94          :
          :  # atomic orbitals                  93          :
          :  # shells                           53          :
          :  # electrons                        94          :
          :  max. iterations                   250          :
          :  Hamiltonian                  GFN2-xTB          :
          :  restarted?                      false          :
          :  GBSA solvation                   true          :
          :  PC potential                    false          :
          :  electronic temp.          300.0000000     K    :
          :  accuracy                    1.0000000          :
          :  -> integral cutoff          0.2500000E+02      :
          :  -> integral neglect         0.1000000E-07      :
          :  -> SCF convergence          0.1000000E-05 Eh   :
          :  -> wf. convergence          0.1000000E-03 e    :
          :  Broyden damping             0.4000000          :
          ...................................................

 iter      E             dE          RMSdq      gap      omega  full diag
   1    -52.0510103 -0.520510E+02  0.461E+00    1.78       0.0  T
   2    -52.1462433 -0.952329E-01  0.268E+00    1.49       1.0  T
   3    -52.1451068  0.113642E-02  0.122E+00    1.32       1.0  T
   4    -52.1538051 -0.869826E-02  0.482E-01    1.13       1.0  T
   5    -52.1582373 -0.443226E-02  0.223E-01    1.14       1.0  T
   6    -52.1584919 -0.254518E-03  0.159E-01    1.14       1.0  T
   7    -52.1587744 -0.282561E-03  0.847E-02    1.14       1.0  T
   8    -52.1588471 -0.727218E-04  0.329E-02    1.14       1.0  T
   9    -52.1588604 -0.132941E-04  0.141E-02    1.14       1.2  T
  10    -52.1588615 -0.102990E-05  0.565E-03    1.14       3.0  T
  11    -52.1588616 -0.168888E-06  0.188E-03    1.14       9.1  T
  12    -52.1588617 -0.567804E-07  0.921E-04    1.14      18.6  T
  13    -52.1588617 -0.419020E-08  0.512E-04    1.14      33.5  T

   *** convergence criteria satisfied after 13 iterations ***

         #    Occupation            Energy/Eh            Energy/eV
      -------------------------------------------------------------
         1        2.0000           -1.0028293             -27.2884
       ...           ...                  ...                  ...
        41        2.0000           -0.4066182             -11.0646
        42        2.0000           -0.4060731             -11.0498
        43        2.0000           -0.4019163             -10.9367
        44        2.0000           -0.3990602             -10.8590
        45        2.0000           -0.3987258             -10.8499
        46        2.0000           -0.3914355             -10.6515
        47        2.0000           -0.3460001              -9.4151 (HOMO)
        48                         -0.3040387              -8.2733 (LUMO)
        49                         -0.2306934              -6.2775
        50                         -0.2303110              -6.2671
        51                         -0.2221867              -6.0460
        52                         -0.2023916              -5.5074
       ...                                ...                  ...
        93                          0.6290635              17.1177
      -------------------------------------------------------------
                  HL-Gap            0.0419614 Eh            1.1418 eV
             Fermi-level           -0.3250194 Eh           -8.8442 eV

 SCC (total)                   0 d,  0 h,  0 min,  0.092 sec
 SCC setup                      ...        0 min,  0.001 sec (  0.745%)
 Dispersion                     ...        0 min,  0.001 sec (  0.634%)
 classical contributions        ...        0 min,  0.000 sec (  0.109%)
 integral evaluation            ...        0 min,  0.004 sec (  4.125%)
 iterations                     ...        0 min,  0.080 sec ( 86.466%)
 molecular gradient             ...        0 min,  0.006 sec (  6.781%)
 printout                       ...        0 min,  0.001 sec (  0.748%)

         :::::::::::::::::::::::::::::::::::::::::::::::::::::
         ::                     SUMMARY                     ::
         :::::::::::::::::::::::::::::::::::::::::::::::::::::
         :: total energy             -51.415430893188 Eh    ::
         :: total w/o Gsasa/hb       -51.404124758248 Eh    ::
         :: gradient norm              0.072679443051 Eh/a0 ::
         :: HOMO-LUMO gap              1.141826486320 eV    ::
         ::.................................................::
         :: SCC energy               -52.158861696263 Eh    ::
         :: -> isotropic ES            0.129011577068 Eh    ::
         :: -> anisotropic ES         -0.028450217751 Eh    ::
         :: -> anisotropic XC          0.034409950358 Eh    ::
         :: -> dispersion             -0.031325256439 Eh    ::
         :: -> Gsolv                  -0.076811818532 Eh    ::
         ::    -> Gelec               -0.065505683592 Eh    ::
         ::    -> Gsasa               -0.004742784042 Eh    ::
         ::    -> Ghb                 -0.007644110596 Eh    ::
         ::    -> Gshift               0.001080759698 Eh    ::
         :: repulsion energy           0.743678598254 Eh    ::
         :: add. restraining           0.000000000000 Eh    ::
         :: total charge               0.000000000000 e     ::
         :::::::::::::::::::::::::::::::::::::::::::::::::::::

      ----------------------------------------------------------- 
     |                   =====================                   |
     |                        A N C O P T                        |
     |                   =====================                   |
     |               Approximate Normal Coordinate               |
     |                Rational Function Optimizer                |
      ----------------------------------------------------------- 

          ...................................................
          :                      SETUP                      :
          :.................................................:
          :   optimization level            normal          :
          :   max. optcycles                   200          :
          :   ANC micro-cycles                  20          :
          :   degrees of freedom                96          :
          :.................................................:
          :   RF solver                   davidson          :
          :   write xtbopt.log                true          :
          :   linear?                        false          :
          :   energy convergence         0.5000000E-05 Eh   :
          :   grad. convergence          0.1000000E-02 Eh/α :
          :   maximium RF displ.         1.0000000          :
          :   Hlow (freq-cutoff)         0.1000000E-01      :
          :   Hmax (freq-cutoff)         5.0000000          :
          :   S6 in model hess.         20.0000000          :
          ...................................................

generating ANC from model Hessian ...
Using Lindh-Hessian (1995)
 Shifting diagonal of input Hessian by    9.8473033216069355E-003
 Lowest  eigenvalues of input Hessian
    0.000000    0.000000    0.000000    0.000000    0.000000    0.000000
    0.010000    0.010108    0.010382    0.010594    0.011027    0.011659
    0.011828    0.013800    0.014807    0.018028    0.020658    0.022124
 Highest eigenvalues
    1.843152    1.880382    1.934847    1.967130    1.992391    2.078635


........................................................................
.............................. CYCLE    1 ..............................
........................................................................
   1    -52.1588617 -0.521589E+02  0.196E-04    1.14       0.0  T
   2    -52.1588617 -0.158408E-09  0.150E-04    1.14     114.0  T
   3    -52.1588617 -0.834603E-10  0.117E-04    1.14     146.7  T
     SCC iter.                  ...        0 min,  0.019 sec
     gradient                   ...        0 min,  0.005 sec
 * total energy  :   -51.4154309 Eh     change       -0.2128658E-08 Eh
   gradient norm :     0.0726779 Eh/α   predicted     0.0000000E+00 (-100.00%)
   displ. norm   :     0.2621379 α      lambda       -0.9915582E-02
   maximum displ.:     0.0759770 α      in ANC's #9, #62, #8, ...

........................................................................
.............................. CYCLE    2 ..............................
........................................................................
   1    -52.1947388 -0.521947E+02  0.182E-01    1.03       0.0  T
   2    -52.1948813 -0.142507E-03  0.106E-01    1.01       1.0  T
   3    -52.1948796  0.176314E-05  0.428E-02    1.02       1.0  T
   4    -52.1948866 -0.706002E-05  0.163E-02    1.01       1.1  T
   5    -52.1948914 -0.477603E-05  0.493E-03    1.02       3.5  T
   6    -52.1948915 -0.878225E-07  0.255E-03    1.02       6.7  T
   7    -52.1948915 -0.379019E-07  0.181E-03    1.02       9.5  T
   8    -52.1948915 -0.311719E-07  0.961E-04    1.02      17.8  T
   9    -52.1948916 -0.874147E-08  0.414E-04    1.02      41.5  T
     SCC iter.                  ...        0 min,  0.054 sec
     gradient                   ...        0 min,  0.005 sec
 * total energy  :   -51.4222064 Eh     change       -0.6775534E-02 Eh
   gradient norm :     0.0326871 Eh/α   predicted    -0.5300973E-02 ( -21.76%)
   displ. norm   :     0.3004308 α      lambda       -0.3528471E-02
   maximum displ.:     0.1306541 α      in ANC's #9, #2, #18, ...

........................................................................
.............................. CYCLE    3 ..............................
........................................................................
   1    -52.2104980 -0.522105E+02  0.162E-01    0.91       0.0  T
   2    -52.2106297 -0.131615E-03  0.780E-02    0.90       1.0  T
   3    -52.2106335 -0.381637E-05  0.372E-02    0.90       1.0  T
   4    -52.2106379 -0.443816E-05  0.172E-02    0.90       1.0  T
   5    -52.2106416 -0.366420E-05  0.674E-03    0.90       2.5  T
   6    -52.2106418 -0.229307E-06  0.398E-03    0.90       4.3  T
   7    -52.2106419 -0.888362E-07  0.263E-03    0.90       6.5  T
   8    -52.2106420 -0.887313E-07  0.872E-04    0.90      19.7  T
   9    -52.2106420 -0.490321E-08  0.363E-04    0.90      47.3  T
     SCC iter.                  ...        0 min,  0.054 sec
     gradient                   ...        0 min,  0.005 sec
 * total energy  :   -51.4244683 Eh     change       -0.2261897E-02 Eh
   gradient norm :     0.0149292 Eh/α   predicted    -0.1926584E-02 ( -14.82%)
   displ. norm   :     0.3086301 α      lambda       -0.1357420E-02
   maximum displ.:     0.1358625 α      in ANC's #9, #2, #18, ...

........................................................................
.............................. CYCLE    4 ..............................
........................................................................
   1    -52.2112044 -0.522112E+02  0.131E-01    0.85       0.0  T
   2    -52.2112859 -0.814779E-04  0.530E-02    0.84       1.0  T
   3    -52.2112905 -0.462249E-05  0.287E-02    0.85       1.0  T
   4    -52.2112965 -0.592181E-05  0.153E-02    0.85       1.1  T
   5    -52.2112981 -0.166281E-05  0.812E-03    0.85       2.1  T
   6    -52.2112986 -0.430483E-06  0.500E-03    0.85       3.4  T
   7    -52.2112987 -0.153378E-06  0.293E-03    0.85       5.9  T
   8    -52.2112988 -0.128710E-06  0.583E-04    0.85      29.4  T
   9    -52.2112988 -0.981196E-09  0.245E-04    0.85      70.0  T
     SCC iter.                  ...        0 min,  0.053 sec
     gradient                   ...        0 min,  0.004 sec
 * total energy  :   -51.4255167 Eh     change       -0.1048394E-02 Eh
   gradient norm :     0.0147662 Eh/α   predicted    -0.7434236E-03 ( -29.09%)
   displ. norm   :     0.4396851 α      lambda       -0.1445181E-02
   maximum displ.:     0.1956901 α      in ANC's #2, #9, #18, ...

........................................................................
.............................. CYCLE    5 ..............................
........................................................................
   1    -52.2072984 -0.522073E+02  0.190E-01    0.82       0.0  T
   2    -52.2074716 -0.173188E-03  0.730E-02    0.80       1.0  T
   3    -52.2074837 -0.121757E-04  0.409E-02    0.81       1.0  T
   4    -52.2074990 -0.152371E-04  0.231E-02    0.81       1.0  T
   5    -52.2075023 -0.333786E-05  0.131E-02    0.81       1.3  T
   6    -52.2075035 -0.123626E-05  0.785E-03    0.81       2.2  T
   7    -52.2075039 -0.389748E-06  0.448E-03    0.81       3.8  T
   8    -52.2075042 -0.294134E-06  0.776E-04    0.81      22.1  T
   9    -52.2075042 -0.191623E-08  0.383E-04    0.81      44.8  T
     SCC iter.                  ...        0 min,  0.054 sec
     gradient                   ...        0 min,  0.004 sec
 * total energy  :   -51.4265767 Eh     change       -0.1059983E-02 Eh
   gradient norm :     0.0167243 Eh/α   predicted    -0.8622884E-03 ( -18.65%)
   displ. norm   :     0.3880890 α      lambda       -0.1006340E-02
   maximum displ.:     0.1785898 α      in ANC's #2, #3, #9, ...

........................................................................
.............................. CYCLE    6 ..............................
........................................................................
   1    -52.2050352 -0.522050E+02  0.177E-01    0.81       0.0  T
   2    -52.2051865 -0.151293E-03  0.669E-02    0.79       1.0  T
   3    -52.2051983 -0.117592E-04  0.365E-02    0.80       1.0  T
   4    -52.2052118 -0.135427E-04  0.213E-02    0.80       1.0  T
   5    -52.2052147 -0.286314E-05  0.122E-02    0.80       1.4  T
   6    -52.2052158 -0.113115E-05  0.717E-03    0.80       2.4  T
   7    -52.2052162 -0.367186E-06  0.396E-03    0.80       4.3  T
   8    -52.2052164 -0.208227E-06  0.678E-04    0.80      25.3  T
   9    -52.2052164 -0.251568E-08  0.358E-04    0.80      48.0  T
     SCC iter.                  ...        0 min,  0.054 sec
     gradient                   ...        0 min,  0.004 sec
 * total energy  :   -51.4273293 Eh     change       -0.7525989E-03 Eh
   gradient norm :     0.0139982 Eh/α   predicted    -0.5789545E-03 ( -23.07%)
   displ. norm   :     0.4283211 α      lambda       -0.8012620E-03
   maximum displ.:     0.2162490 α      in ANC's #2, #3, #1, ...

........................................................................
.............................. CYCLE    7 ..............................
........................................................................
   1    -52.2045790 -0.522046E+02  0.177E-01    0.82       0.0  T
   2    -52.2047254 -0.146353E-03  0.686E-02    0.80       1.0  T
   3    -52.2047386 -0.132406E-04  0.359E-02    0.81       1.0  T
   4    -52.2047503 -0.117098E-04  0.230E-02    0.80       1.0  T
   5    -52.2047540 -0.367300E-05  0.128E-02    0.80       1.3  T
   6    -52.2047553 -0.133942E-05  0.731E-03    0.80       2.3  T
   7    -52.2047557 -0.426269E-06  0.362E-03    0.80       4.7  T
   8    -52.2047559 -0.157609E-06  0.657E-04    0.80      26.1  T
   9    -52.2047559 -0.257354E-08  0.356E-04    0.80      48.1  T
     SCC iter.                  ...        0 min,  0.054 sec
     gradient                   ...        0 min,  0.005 sec
 * total energy  :   -51.4278550 Eh     change       -0.5257079E-03 Eh
   gradient norm :     0.0101358 Eh/α   predicted    -0.4741307E-03 (  -9.81%)
   displ. norm   :     0.2515569 α      lambda       -0.3854966E-03
   maximum displ.:     0.1035314 α      in ANC's #2, #3, #12, ...

........................................................................
.............................. CYCLE    8 ..............................
........................................................................
   1    -52.2080293 -0.522080E+02  0.759E-02    0.81       0.0  T
   2    -52.2080492 -0.198604E-04  0.354E-02    0.81       1.0  T
   3    -52.2080512 -0.205724E-05  0.169E-02    0.81       1.0  T
   4    -52.2080530 -0.177488E-05  0.107E-02    0.81       1.6  T
   5    -52.2080539 -0.894835E-06  0.554E-03    0.81       3.1  T
   6    -52.2080541 -0.203130E-06  0.370E-03    0.81       4.6  T
   7    -52.2080542 -0.141979E-06  0.135E-03    0.81      12.7  T
   8    -52.2080543 -0.196571E-07  0.397E-04    0.81      43.2  T
   9    -52.2080543 -0.758106E-09  0.198E-04    0.81      86.4  T
     SCC iter.                  ...        0 min,  0.049 sec
     gradient                   ...        0 min,  0.004 sec
 * total energy  :   -51.4280848 Eh     change       -0.2297441E-03 Eh
   gradient norm :     0.0067400 Eh/α   predicted    -0.2049489E-03 ( -10.79%)
   displ. norm   :     0.2678820 α      lambda       -0.2094754E-03
   maximum displ.:     0.1240558 α      in ANC's #2, #3, #1, ...

........................................................................
.............................. CYCLE    9 ..............................
........................................................................
   1    -52.2079990 -0.522080E+02  0.741E-02    0.80       0.0  T
   2    -52.2080201 -0.211519E-04  0.347E-02    0.80       1.0  T
   3    -52.2080226 -0.247058E-05  0.178E-02    0.80       1.0  T
   4    -52.2080242 -0.158447E-05  0.119E-02    0.80       1.4  T
   5    -52.2080254 -0.119967E-05  0.655E-03    0.80       2.6  T
   6    -52.2080257 -0.342479E-06  0.383E-03    0.80       4.5  T
   7    -52.2080259 -0.122509E-06  0.139E-03    0.80      12.4  T
   8    -52.2080259 -0.310930E-07  0.359E-04    0.80      47.8  T
   9    -52.2080259 -0.503164E-09  0.171E-04    0.80     100.5  T
     SCC iter.                  ...        0 min,  0.048 sec
     gradient                   ...        0 min,  0.004 sec
 * total energy  :   -51.4281961 Eh     change       -0.1113354E-03 Eh
   gradient norm :     0.0038929 Eh/α   predicted    -0.1122541E-03 (   0.83%)
   displ. norm   :     0.1288069 α      lambda       -0.1189087E-03
   maximum displ.:     0.0594744 α      in ANC's #1, #8, #5, ...

........................................................................
.............................. CYCLE   10 ..............................
........................................................................
   1    -52.2099159 -0.522099E+02  0.286E-02    0.79       0.0  T
   2    -52.2099163 -0.377688E-06  0.168E-02    0.79       1.0  T
   3    -52.2099163 -0.249236E-07  0.395E-03    0.79       4.3  T
   4    -52.2099165 -0.214282E-06  0.233E-03    0.79       7.4  T
   5    -52.2099165 -0.325790E-07  0.154E-03    0.79      11.1  T
   6    -52.2099166 -0.209485E-07  0.789E-04    0.79      21.7  T
   7    -52.2099166 -0.676264E-08  0.366E-04    0.79      46.9  T
     SCC iter.                  ...        0 min,  0.038 sec
     gradient                   ...        0 min,  0.004 sec
 * total energy  :   -51.4282916 Eh     change       -0.9550592E-04 Eh
   gradient norm :     0.0045955 Eh/α   predicted    -0.6045913E-04 ( -36.70%)
   displ. norm   :     0.3274696 α      lambda       -0.2717578E-03
   maximum displ.:     0.1492197 α      in ANC's #1, #5, #8, ...

........................................................................
.............................. CYCLE   11 ..............................
........................................................................
   1    -52.2107254 -0.522107E+02  0.761E-02    0.78       0.0  T
   2    -52.2107278 -0.242888E-05  0.447E-02    0.78       1.0  T
   3    -52.2107279 -0.841688E-07  0.855E-03    0.78       2.0  T
   4    -52.2107288 -0.937636E-06  0.493E-03    0.78       3.5  T
   5    -52.2107290 -0.165137E-06  0.337E-03    0.78       5.1  T
   6    -52.2107291 -0.806292E-07  0.200E-03    0.78       8.6  T
   7    -52.2107291 -0.469461E-07  0.793E-04    0.78      21.6  T
   8    -52.2107291 -0.560858E-08  0.307E-04    0.78      55.8  T
     SCC iter.                  ...        0 min,  0.043 sec
     gradient                   ...        0 min,  0.004 sec
 * total energy  :   -51.4285004 Eh     change       -0.2088330E-03 Eh
   gradient norm :     0.0069310 Eh/α   predicted    -0.1504532E-03 ( -27.96%)
   displ. norm   :     0.5087957 α      lambda       -0.3528630E-03
   maximum displ.:     0.2472128 α      in ANC's #1, #5, #6, ...

........................................................................
.............................. CYCLE   12 ..............................
........................................................................
   1    -52.2090249 -0.522090E+02  0.123E-01    0.77       0.0  T
   2    -52.2090367 -0.117431E-04  0.699E-02    0.77       1.0  T
   3    -52.2090374 -0.694306E-06  0.167E-02    0.77       1.0  T
   4    -52.2090393 -0.188021E-05  0.964E-03    0.77       1.8  T
   5    -52.2090403 -0.101749E-05  0.576E-03    0.77       3.0  T
   6    -52.2090405 -0.211104E-06  0.377E-03    0.77       4.5  T
   7    -52.2090406 -0.138403E-06  0.154E-03    0.77      11.2  T
   8    -52.2090407 -0.375969E-07  0.479E-04    0.77      35.8  T
   9    -52.2090407 -0.641144E-09  0.214E-04    0.77      80.2  T
     SCC iter.                  ...        0 min,  0.047 sec
     gradient                   ...        0 min,  0.004 sec
 * total energy  :   -51.4287685 Eh     change       -0.2680970E-03 Eh
   gradient norm :     0.0094827 Eh/α   predicted    -0.2221062E-03 ( -17.15%)
   displ. norm   :     0.4522834 α      lambda       -0.3071790E-03
   maximum displ.:     0.2243673 α      in ANC's #1, #6, #5, ...

........................................................................
.............................. CYCLE   13 ..............................
........................................................................
   1    -52.2062893 -0.522063E+02  0.128E-01    0.77       0.0  T
   2    -52.2063168 -0.274735E-04  0.677E-02    0.77       1.0  T
   3    -52.2063177 -0.873620E-06  0.228E-02    0.77       1.0  T
   4    -52.2063198 -0.213534E-05  0.119E-02    0.77       1.4  T
   5    -52.2063217 -0.190935E-05  0.553E-03    0.77       3.1  T
   6    -52.2063219 -0.168233E-06  0.401E-03    0.77       4.3  T
   7    -52.2063220 -0.132186E-06  0.186E-03    0.77       9.2  T
   8    -52.2063221 -0.588399E-07  0.450E-04    0.77      38.1  T
   9    -52.2063221 -0.542954E-09  0.202E-04    0.77      84.8  T
     SCC iter.                  ...        0 min,  0.046 sec
     gradient                   ...        0 min,  0.004 sec
 * total energy  :   -51.4290032 Eh     change       -0.2346592E-03 Eh
   gradient norm :     0.0083389 Eh/α   predicted    -0.1850092E-03 ( -21.16%)
   displ. norm   :     0.3863382 α      lambda       -0.2969528E-03
   maximum displ.:     0.1995067 α      in ANC's #1, #2, #6, ...

........................................................................
.............................. CYCLE   14 ..............................
........................................................................
   1    -52.2057287 -0.522057E+02  0.129E-01    0.78       0.0  T
   2    -52.2057682 -0.395769E-04  0.630E-02    0.78       1.0  T
   3    -52.2057707 -0.247034E-05  0.246E-02    0.78       1.0  T
   4    -52.2057728 -0.210095E-05  0.137E-02    0.78       1.3  T
   5    -52.2057751 -0.231269E-05  0.622E-03    0.78       2.8  T
   6    -52.2057753 -0.212109E-06  0.456E-03    0.78       3.8  T
   7    -52.2057755 -0.180650E-06  0.208E-03    0.78       8.2  T
   8    -52.2057756 -0.676017E-07  0.434E-04    0.78      39.5  T
   9    -52.2057756 -0.108486E-08  0.230E-04    0.78      74.6  T
     SCC iter.                  ...        0 min,  0.046 sec
     gradient                   ...        0 min,  0.004 sec
 * total energy  :   -51.4292157 Eh     change       -0.2125172E-03 Eh
   gradient norm :     0.0070647 Eh/α   predicted    -0.1706385E-03 ( -19.71%)
   displ. norm   :     0.3295874 α      lambda       -0.2085349E-03
   maximum displ.:     0.1703816 α      in ANC's #1, #2, #6, ...

........................................................................
.............................. CYCLE   15 ..............................
........................................................................
   1    -52.2066731 -0.522067E+02  0.110E-01    0.79       0.0  T
   2    -52.2067029 -0.298193E-04  0.541E-02    0.79       1.0  T
   3    -52.2067053 -0.240175E-05  0.217E-02    0.79       1.0  T
   4    -52.2067069 -0.161204E-05  0.126E-02    0.79       1.4  T
   5    -52.2067088 -0.189127E-05  0.616E-03    0.79       2.8  T
   6    -52.2067091 -0.217559E-06  0.444E-03    0.79       3.9  T
   7    -52.2067092 -0.189333E-06  0.176E-03    0.79       9.7  T
   8    -52.2067093 -0.464820E-07  0.403E-04    0.79      42.5  T
   9    -52.2067093 -0.138412E-08  0.210E-04    0.79      81.8  T
     SCC iter.                  ...        0 min,  0.046 sec
     gradient                   ...        0 min,  0.003 sec
 * total energy  :   -51.4293702 Eh     change       -0.1545025E-03 Eh
   gradient norm :     0.0072065 Eh/α   predicted    -0.1155951E-03 ( -25.18%)
   displ. norm   :     0.3764615 α      lambda       -0.2076567E-03
   maximum displ.:     0.1927438 α      in ANC's #1, #2, #6, ...

........................................................................
.............................. CYCLE   16 ..............................
........................................................................
   1    -52.2080542 -0.522081E+02  0.112E-01    0.79       0.0  T
   2    -52.2080707 -0.165812E-04  0.615E-02    0.78       1.0  T
   3    -52.2080726 -0.180452E-05  0.194E-02    0.79       1.0  T
   4    -52.2080741 -0.150202E-05  0.112E-02    0.78       1.5  T
   5    -52.2080757 -0.163852E-05  0.654E-03    0.78       2.6  T
   6    -52.2080760 -0.263980E-06  0.437E-03    0.78       3.9  T
   7    -52.2080762 -0.233937E-06  0.985E-04    0.78      17.4  T
   8    -52.2080762 -0.124075E-07  0.388E-04    0.78      44.2  T
     SCC iter.                  ...        0 min,  0.041 sec
     gradient                   ...        0 min,  0.003 sec
 * total energy  :   -51.4295385 Eh     change       -0.1682587E-03 Eh
   gradient norm :     0.0070804 Eh/α   predicted    -0.1185451E-03 ( -29.55%)
   displ. norm   :     0.4555726 α      lambda       -0.2389516E-03
   maximum displ.:     0.2299724 α      in ANC's #1, #2, #6, ...

........................................................................
.............................. CYCLE   17 ..............................
........................................................................
   1    -52.2086474 -0.522086E+02  0.155E-01    0.79       0.0  T
   2    -52.2087003 -0.529159E-04  0.781E-02    0.78       1.0  T
   3    -52.2087043 -0.399375E-05  0.299E-02    0.78       1.0  T
   4    -52.2087067 -0.241117E-05  0.171E-02    0.78       1.0  T
   5    -52.2087104 -0.377505E-05  0.847E-03    0.78       2.0  T
   6    -52.2087109 -0.417911E-06  0.610E-03    0.78       2.8  T
   7    -52.2087112 -0.338723E-06  0.264E-03    0.78       6.5  T
   8    -52.2087113 -0.108384E-06  0.604E-04    0.78      28.4  T
   9    -52.2087113 -0.317673E-08  0.305E-04    0.78      56.1  T
     SCC iter.                  ...        0 min,  0.046 sec
     gradient                   ...        0 min,  0.003 sec
 * total energy  :   -51.4296925 Eh     change       -0.1540870E-03 Eh
   gradient norm :     0.0075190 Eh/α   predicted    -0.1442750E-03 (  -6.37%)
   displ. norm   :     0.4163670 α      lambda       -0.2692637E-03
   maximum displ.:     0.2279241 α      in ANC's #6, #1, #2, ...

........................................................................
.............................. CYCLE   18 ..............................
........................................................................
   1    -52.2109823 -0.522110E+02  0.132E-01    0.76       0.0  T
   2    -52.2109888 -0.647172E-05  0.782E-02    0.77       1.0  T
   3    -52.2109890 -0.181723E-06  0.136E-02    0.76       1.3  T
   4    -52.2109914 -0.241912E-05  0.810E-03    0.77       2.1  T
   5    -52.2109918 -0.421562E-06  0.582E-03    0.77       2.9  T
   6    -52.2109921 -0.267105E-06  0.337E-03    0.77       5.1  T
   7    -52.2109922 -0.126240E-06  0.113E-03    0.77      15.1  T
   8    -52.2109922 -0.166718E-07  0.402E-04    0.77      42.7  T
   9    -52.2109922 -0.627828E-09  0.200E-04    0.77      85.7  T
     SCC iter.                  ...        0 min,  0.046 sec
     gradient                   ...        0 min,  0.003 sec
 * total energy  :   -51.4298258 Eh     change       -0.1332571E-03 Eh
   gradient norm :     0.0087647 Eh/α   predicted    -0.1579735E-03 (  18.55%)
   displ. norm   :     0.3958065 α      lambda       -0.1704847E-03
   maximum displ.:     0.2007792 α      in ANC's #1, #6, #2, ...

........................................................................
.............................. CYCLE   19 ..............................
........................................................................
   1    -52.2064772 -0.522065E+02  0.132E-01    0.77       0.0  T
   2    -52.2065047 -0.275292E-04  0.696E-02    0.76       1.0  T
   3    -52.2065068 -0.206982E-05  0.224E-02    0.77       1.0  T
   4    -52.2065075 -0.719355E-06  0.120E-02    0.76       1.4  T
   5    -52.2065097 -0.218210E-05  0.605E-03    0.76       2.8  T
   6    -52.2065099 -0.212243E-06  0.433E-03    0.76       4.0  T
   7    -52.2065101 -0.175031E-06  0.186E-03    0.76       9.2  T
   8    -52.2065101 -0.566983E-07  0.476E-04    0.76      36.1  T
   9    -52.2065102 -0.133339E-08  0.243E-04    0.76      70.4  T
     SCC iter.                  ...        0 min,  0.046 sec
     gradient                   ...        0 min,  0.003 sec
 * total energy  :   -51.4299014 Eh     change       -0.7559932E-04 Eh
   gradient norm :     0.0076534 Eh/α   predicted    -0.9859885E-04 (  30.42%)
   displ. norm   :     0.2018218 α      lambda       -0.3149785E-03
   maximum displ.:     0.1081819 α      in ANC's #5, #4, #6, ...

........................................................................
.............................. CYCLE   20 ..............................
........................................................................
   1    -52.2108132 -0.522108E+02  0.798E-02    0.77       0.0  T
   2    -52.2108308 -0.175989E-04  0.380E-02    0.77       1.0  T
   3    -52.2108318 -0.100465E-05  0.141E-02    0.77       1.2  T
   4    -52.2108320 -0.173424E-06  0.733E-03    0.77       2.3  T
   5    -52.2108327 -0.680964E-06  0.251E-03    0.77       6.8  T
   6    -52.2108327 -0.361170E-07  0.176E-03    0.77       9.7  T
   7    -52.2108327 -0.187001E-07  0.119E-03    0.77      14.4  T
   8    -52.2108327 -0.162187E-07  0.458E-04    0.77      37.4  T
   9    -52.2108327 -0.149463E-08  0.247E-04    0.77      69.4  T
     SCC iter.                  ...        0 min,  0.046 sec
     gradient                   ...        0 min,  0.004 sec
 * total energy  :   -51.4299671 Eh     change       -0.6570319E-04 Eh
   gradient norm :     0.0111701 Eh/α   predicted    -0.1639048E-03 ( 149.46%)
   displ. norm   :     0.1504846 α      lambda       -0.2076568E-03
   maximum displ.:     0.0900719 α      in ANC's #6, #9, #1, ...
 * RMSD in coord.:     0.9161743 α      energy gain  -0.1453622E-01 Eh

generating ANC from model Hessian ...
Using Lindh-Hessian (1995)
 Shifting diagonal of input Hessian by    9.9473266102185834E-003
 Lowest  eigenvalues of input Hessian
    0.000000    0.000000    0.000000    0.000000    0.000000    0.000000
    0.010000    0.010275    0.010484    0.011195    0.011329    0.011684
    0.012102    0.014113    0.015243    0.019900    0.020739    0.025051
 Highest eigenvalues
    1.903337    1.912964    1.989572    2.026229    2.073108    2.140650


........................................................................
.............................. CYCLE   21 ..............................
........................................................................
   1    -52.2093966 -0.522094E+02  0.549E-02    0.77       0.0  T
   2    -52.2093987 -0.216723E-05  0.315E-02    0.77       1.0  T
   3    -52.2093988 -0.533296E-07  0.632E-03    0.77       2.7  T
   4    -52.2093990 -0.252282E-06  0.330E-03    0.77       5.2  T
   5    -52.2093992 -0.124814E-06  0.186E-03    0.77       9.2  T
   6    -52.2093992 -0.209368E-07  0.124E-03    0.77      13.8  T
   7    -52.2093992 -0.142635E-07  0.575E-04    0.77      29.8  T
   8    -52.2093992 -0.362886E-08  0.270E-04    0.77      63.4  T
     SCC iter.                  ...        0 min,  0.041 sec
     gradient                   ...        0 min,  0.004 sec
 * total energy  :   -51.4300931 Eh     change       -0.1259802E-03 Eh
   gradient norm :     0.0057655 Eh/α   predicted     0.0000000E+00 (-100.00%)
   displ. norm   :     0.0505576 α      lambda       -0.4018669E-04
   maximum displ.:     0.0327291 α      in ANC's #5, #7, #8, ...

........................................................................
.............................. CYCLE   22 ..............................
........................................................................
   1    -52.2100315 -0.522100E+02  0.173E-02    0.77       0.0  T
   2    -52.2100322 -0.663658E-06  0.994E-03    0.77       1.7  T
   3    -52.2100322 -0.241863E-08  0.282E-03    0.77       6.1  T
   4    -52.2100323 -0.624689E-07  0.143E-03    0.77      12.0  T
   5    -52.2100323 -0.259761E-07  0.728E-04    0.77      23.6  T
   6    -52.2100323 -0.312187E-08  0.516E-04    0.77      33.2  T
     SCC iter.                  ...        0 min,  0.032 sec
     gradient                   ...        0 min,  0.004 sec
 * total energy  :   -51.4301397 Eh     change       -0.4657969E-04 Eh
   gradient norm :     0.0021285 Eh/α   predicted    -0.3092171E-04 ( -33.62%)
   displ. norm   :     0.1021969 α      lambda       -0.6253932E-04
   maximum displ.:     0.0704158 α      in ANC's #5, #7, #8, ...

........................................................................
.............................. CYCLE   23 ..............................
........................................................................
   1    -52.2106183 -0.522106E+02  0.333E-02    0.77       0.0  T
   2    -52.2106201 -0.176968E-05  0.181E-02    0.77       1.0  T
   3    -52.2106202 -0.747541E-07  0.513E-03    0.77       3.3  T
   4    -52.2106203 -0.137959E-06  0.273E-03    0.77       6.3  T
   5    -52.2106204 -0.913934E-07  0.120E-03    0.77      14.3  T
   6    -52.2106204 -0.761489E-08  0.924E-04    0.77      18.6  T
   7    -52.2106204 -0.695276E-08  0.522E-04    0.77      32.8  T
     SCC iter.                  ...        0 min,  0.036 sec
     gradient                   ...        0 min,  0.004 sec
 * total energy  :   -51.4301849 Eh     change       -0.4520478E-04 Eh
   gradient norm :     0.0025254 Eh/α   predicted    -0.3159951E-04 ( -30.10%)
   displ. norm   :     0.1120740 α      lambda       -0.4398695E-04
   maximum displ.:     0.0742195 α      in ANC's #5, #7, #6, ...

........................................................................
.............................. CYCLE   24 ..............................
........................................................................
   1    -52.2106534 -0.522107E+02  0.399E-02    0.77       0.0  T
   2    -52.2106561 -0.267463E-05  0.201E-02    0.77       1.0  T
   3    -52.2106562 -0.151172E-06  0.630E-03    0.77       2.7  T
   4    -52.2106563 -0.908379E-07  0.333E-03    0.77       5.2  T
   5    -52.2106564 -0.149077E-06  0.950E-04    0.77      18.1  T
   6    -52.2106564 -0.495971E-08  0.743E-04    0.77      23.1  T
     SCC iter.                  ...        0 min,  0.031 sec
     gradient                   ...        0 min,  0.004 sec
 * total energy  :   -51.4302222 Eh     change       -0.3736090E-04 Eh
   gradient norm :     0.0038425 Eh/α   predicted    -0.2227065E-04 ( -40.39%)
   displ. norm   :     0.1728793 α      lambda       -0.6428178E-04
   maximum displ.:     0.1096636 α      in ANC's #5, #7, #6, ...

........................................................................
.............................. CYCLE   25 ..............................
........................................................................
   1    -52.2102241 -0.522102E+02  0.706E-02    0.77       0.0  T
   2    -52.2102348 -0.106858E-04  0.330E-02    0.77       1.0  T
   3    -52.2102354 -0.624054E-06  0.114E-02    0.77       1.5  T
   4    -52.2102356 -0.177645E-06  0.618E-03    0.77       2.8  T
   5    -52.2102361 -0.493314E-06  0.116E-03    0.77      14.8  T
   6    -52.2102361 -0.822300E-08  0.855E-04    0.77      20.1  T
   7    -52.2102361 -0.460335E-08  0.597E-04    0.77      28.7  T
     SCC iter.                  ...        0 min,  0.036 sec
     gradient                   ...        0 min,  0.003 sec
 * total energy  :   -51.4302762 Eh     change       -0.5393097E-04 Eh
   gradient norm :     0.0033359 Eh/α   predicted    -0.3310268E-04 ( -38.62%)
   displ. norm   :     0.2388298 α      lambda       -0.7437638E-04
   maximum displ.:     0.1506441 α      in ANC's #5, #7, #6, ...

........................................................................
.............................. CYCLE   26 ..............................
........................................................................
   1    -52.2093781 -0.522094E+02  0.110E-01    0.77       0.0  T
   2    -52.2094074 -0.293285E-04  0.484E-02    0.77       1.0  T
   3    -52.2094092 -0.182003E-05  0.172E-02    0.77       1.0  T
   4    -52.2094095 -0.288399E-06  0.956E-03    0.77       1.8  T
   5    -52.2094106 -0.114768E-05  0.119E-03    0.77      14.4  T
   6    -52.2094106 -0.108016E-07  0.743E-04    0.77      23.1  T
   7    -52.2094106 -0.345536E-08  0.532E-04    0.77      32.2  T
     SCC iter.                  ...        0 min,  0.037 sec
     gradient                   ...        0 min,  0.003 sec
 * total energy  :   -51.4303316 Eh     change       -0.5542838E-04 Eh
   gradient norm :     0.0019477 Eh/α   predicted    -0.3930967E-04 ( -29.08%)
   displ. norm   :     0.3042687 α      lambda       -0.4539116E-04
   maximum displ.:     0.1924529 α      in ANC's #5, #7, #2, ...

........................................................................
.............................. CYCLE   27 ..............................
........................................................................
   1    -52.2085605 -0.522086E+02  0.153E-01    0.77       0.0  T
   2    -52.2086189 -0.583288E-04  0.656E-02    0.77       1.0  T
   3    -52.2086227 -0.382682E-05  0.233E-02    0.77       1.0  T
   4    -52.2086230 -0.305927E-06  0.133E-02    0.77       1.3  T
   5    -52.2086252 -0.219937E-05  0.132E-03    0.77      13.0  T
   6    -52.2086252 -0.154300E-07  0.750E-04    0.77      22.9  T
   7    -52.2086252 -0.409391E-08  0.495E-04    0.77      34.7  T
     SCC iter.                  ...        0 min,  0.037 sec
     gradient                   ...        0 min,  0.004 sec
 * total energy  :   -51.4303700 Eh     change       -0.3845042E-04 Eh
   gradient norm :     0.0035821 Eh/α   predicted    -0.2363056E-04 ( -38.54%)
   displ. norm   :     0.0605682 α      lambda       -0.2381211E-04
   maximum displ.:     0.0336290 α      in ANC's #5, #4, #7, ...

........................................................................
.............................. CYCLE   28 ..............................
........................................................................
   1    -52.2094991 -0.522095E+02  0.306E-02    0.76       0.0  T
   2    -52.2095013 -0.214843E-05  0.139E-02    0.76       1.2  T
   3    -52.2095014 -0.172580E-06  0.488E-03    0.76       3.5  T
   4    -52.2095014  0.275830E-07  0.276E-03    0.76       6.2  T
   5    -52.2095015 -0.115416E-06  0.812E-04    0.76      21.1  T
   6    -52.2095015 -0.309993E-08  0.628E-04    0.76      27.3  T
     SCC iter.                  ...        0 min,  0.033 sec
     gradient                   ...        0 min,  0.004 sec
 * total energy  :   -51.4303903 Eh     change       -0.2023498E-04 Eh
   gradient norm :     0.0025179 Eh/α   predicted    -0.1195032E-04 ( -40.94%)
   displ. norm   :     0.1249594 α      lambda       -0.3861830E-04
   maximum displ.:     0.0703104 α      in ANC's #4, #5, #7, ...

........................................................................
.............................. CYCLE   29 ..............................
........................................................................
   1    -52.2104346 -0.522104E+02  0.641E-02    0.76       0.0  T
   2    -52.2104443 -0.974702E-05  0.287E-02    0.76       1.0  T
   3    -52.2104451 -0.765196E-06  0.104E-02    0.76       1.7  T
   4    -52.2104450  0.861089E-07  0.604E-03    0.76       2.8  T
   5    -52.2104455 -0.518210E-06  0.180E-03    0.76       9.5  T
   6    -52.2104456 -0.157261E-07  0.135E-03    0.76      12.7  T
   7    -52.2104456 -0.166160E-07  0.616E-04    0.76      27.9  T
   8    -52.2104456 -0.640653E-08  0.168E-04    0.76     102.4  T
     SCC iter.                  ...        0 min,  0.042 sec
     gradient                   ...        0 min,  0.004 sec
 * total energy  :   -51.4304169 Eh     change       -0.2666019E-04 Eh
   gradient norm :     0.0011061 Eh/α   predicted    -0.1961693E-04 ( -26.42%)
   displ. norm   :     0.1422251 α      lambda       -0.1372341E-04
   maximum displ.:     0.0796691 α      in ANC's #4, #5, #7, ...

........................................................................
.............................. CYCLE   30 ..............................
........................................................................
   1    -52.2102772 -0.522103E+02  0.771E-02    0.76       0.0  T
   2    -52.2102920 -0.147899E-04  0.332E-02    0.76       1.0  T
   3    -52.2102931 -0.104608E-05  0.123E-02    0.76       1.4  T
   4    -52.2102931 -0.622200E-07  0.726E-03    0.76       2.4  T
   5    -52.2102938 -0.661783E-06  0.191E-03    0.76       9.0  T
   6    -52.2102938 -0.169853E-07  0.146E-03    0.76      11.7  T
   7    -52.2102938 -0.177843E-07  0.788E-04    0.76      21.8  T
   8    -52.2102939 -0.932057E-08  0.205E-04    0.76      83.7  T
     SCC iter.                  ...        0 min,  0.043 sec
     gradient                   ...        0 min,  0.004 sec
 * total energy  :   -51.4304305 Eh     change       -0.1356551E-04 Eh
   gradient norm :     0.0009943 Eh/α   predicted    -0.6923633E-05 ( -48.96%)
   displ. norm   :     0.0686067 α      lambda       -0.6616546E-05
   maximum displ.:     0.0403502 α      in ANC's #4, #5, #2, ...

........................................................................
.............................. CYCLE   31 ..............................
........................................................................
   1    -52.2100495 -0.522100E+02  0.387E-02    0.76       0.0  T
   2    -52.2100533 -0.382980E-05  0.162E-02    0.76       1.1  T
   3    -52.2100535 -0.249698E-06  0.608E-03    0.76       2.8  T
   4    -52.2100536 -0.864629E-07  0.359E-03    0.76       4.8  T
   5    -52.2100538 -0.138606E-06  0.976E-04    0.76      17.6  T
   6    -52.2100538 -0.450360E-08  0.753E-04    0.76      22.8  T
     SCC iter.                  ...        0 min,  0.034 sec
     gradient                   ...        0 min,  0.004 sec
 * total energy  :   -51.4304391 Eh     change       -0.8619281E-05 Eh
   gradient norm :     0.0005274 Eh/α   predicted    -0.3315470E-05 ( -61.53%)
   displ. norm   :     0.1268700 α      lambda       -0.1313986E-04
   maximum displ.:     0.0774575 α      in ANC's #4, #2, #5, ...

........................................................................
.............................. CYCLE   32 ..............................
........................................................................
   1    -52.2098074 -0.522098E+02  0.673E-02    0.76       0.0  T
   2    -52.2098187 -0.112784E-04  0.283E-02    0.76       1.0  T
   3    -52.2098194 -0.758236E-06  0.107E-02    0.76       1.6  T
   4    -52.2098198 -0.339407E-06  0.639E-03    0.76       2.7  T
   5    -52.2098202 -0.418460E-06  0.204E-03    0.76       8.4  T
   6    -52.2098202 -0.200043E-07  0.157E-03    0.76      11.0  T
   7    -52.2098202 -0.232097E-07  0.795E-04    0.76      21.6  T
   8    -52.2098202 -0.833484E-08  0.232E-04    0.76      74.0  T
     SCC iter.                  ...        0 min,  0.044 sec
     gradient                   ...        0 min,  0.004 sec
 * total energy  :   -51.4304543 Eh     change       -0.1516409E-04 Eh
   gradient norm :     0.0009514 Eh/α   predicted    -0.6619998E-05 ( -56.34%)
   displ. norm   :     0.1436280 α      lambda       -0.9720700E-05
   maximum displ.:     0.0862647 α      in ANC's #4, #2, #7, ...

........................................................................
.............................. CYCLE   33 ..............................
........................................................................
   1    -52.2096236 -0.522096E+02  0.760E-02    0.76       0.0  T
   2    -52.2096377 -0.140128E-04  0.319E-02    0.76       1.0  T
   3    -52.2096386 -0.954627E-06  0.119E-02    0.76       1.4  T
   4    -52.2096390 -0.392466E-06  0.707E-03    0.76       2.4  T
   5    -52.2096395 -0.520144E-06  0.222E-03    0.76       7.7  T
   6    -52.2096395 -0.235945E-07  0.171E-03    0.76      10.1  T
   7    -52.2096396 -0.276357E-07  0.875E-04    0.76      19.6  T
   8    -52.2096396 -0.101321E-07  0.252E-04    0.76      68.1  T
     SCC iter.                  ...        0 min,  0.043 sec
     gradient                   ...        0 min,  0.004 sec
 * total energy  :   -51.4304631 Eh     change       -0.8805661E-05 Eh
   gradient norm :     0.0013060 Eh/α   predicted    -0.4905882E-05 ( -44.29%)
   displ. norm   :     0.0380507 α      lambda       -0.3009213E-05
   maximum displ.:     0.0199126 α      in ANC's #2, #4, #6, ...

........................................................................
.............................. CYCLE   34 ..............................
........................................................................
   1    -52.2100920 -0.522101E+02  0.137E-02    0.76       0.0  T
   2    -52.2100924 -0.371643E-06  0.646E-03    0.76       2.7  T
   3    -52.2100924 -0.303220E-07  0.238E-03    0.76       7.2  T
   4    -52.2100924 -0.185602E-07  0.141E-03    0.76      12.2  T
   5    -52.2100924 -0.211013E-07  0.649E-04    0.76      26.4  T
   6    -52.2100924 -0.219505E-08  0.493E-04    0.76      34.8  T
     SCC iter.                  ...        0 min,  0.032 sec
     gradient                   ...        0 min,  0.004 sec
 * total energy  :   -51.4304664 Eh     change       -0.3256794E-05 Eh
   gradient norm :     0.0006715 Eh/α   predicted    -0.1506552E-05 ( -53.74%)
   displ. norm   :     0.0422598 α      lambda       -0.3228276E-05
   maximum displ.:     0.0274274 α      in ANC's #2, #7, #6, ...

   *** GEOMETRY OPTIMIZATION CONVERGED AFTER 34 ITERATIONS ***

------------------------------------------------------------------------
 total energy gain   :        -0.0150355 Eh       -9.4349 kcal/mol
 total RMSD          :         1.0511889 a0        0.5563 Å
 total power (kW/mol):        -1.1610467 (step)  -22.7296 (real)
------------------------------------------------------------------------

 ANCopt (total)                0 d,  0 h,  0 min,  1.737 sec
 optimizer setup                ...        0 min,  0.000 sec (  0.009%)
 model hessian                  ...        0 min,  0.020 sec (  1.178%)
 ANC generation                 ...        0 min,  0.007 sec (  0.427%)
 coordinate transformation      ...        0 min,  0.002 sec (  0.117%)
 single point calculation       ...        0 min,  1.689 sec ( 97.233%)
 optimization log               ...        0 min,  0.005 sec (  0.288%)
 hessian update                 ...        0 min,  0.002 sec (  0.088%)
 rational function              ...        0 min,  0.005 sec (  0.291%)

================
 final structure:
================
34
 xtb: 6.5.1 (fef0646)
N            2.51740712063425       -1.83583070771085        1.83251434018879
C            2.28856020718324       -2.43516194345334        0.50292023547194
C            2.94796505340039       -1.56953880170468       -0.57088016228545
C            4.44387208231700       -1.58042424476965       -0.44182315952463
C            5.20580538380346       -2.55973663650900       -1.07662295713693
C            6.57577804661554       -2.58690269963493       -0.94094753280089
C            5.08699886518305       -0.62204524895762        0.33988690666050
C            6.45907721034569       -0.63210520541251        0.47673751294925
C            7.22215822617711       -1.62062967038280       -0.15667629012497
N            8.58895677352045       -1.53904967755253        0.01716186625522
N            9.28074102655548       -2.52400168206159       -0.40570975333116
C           10.65383460880784       -2.41633940575339       -0.27196859881324
C           11.32207156094406       -1.25191902954522        0.12940679082265
C           12.69817204307164       -1.24232731417887        0.20883080121198
C           13.42539039962372       -2.38271452907649       -0.10533772485317
C           12.77083611514453       -3.53859367869666       -0.50499172117707
C           11.39369496784594       -3.55938642732483       -0.59348756847237
Cl           1.81933577812124        1.14290519489384        1.81393670010873
H            2.01314063886391       -2.33451349315084        2.56849603377587
H            2.20099946612304       -0.83139575046941        1.83348825628268
H            3.51795474353367       -1.81794685192620        2.04768808734023
H            1.21628840626715       -2.47536572660909        0.31823557491535
H            2.70278429421360       -3.44400374766299        0.48198838726174
H            2.57781595503160       -0.54956810177953       -0.45919671188479
H            2.65948927820029       -1.94201577749370       -1.55259945642243
H            4.71599253929359       -3.30031539606070       -1.69108921999373
H            7.17759407351385       -3.33208079662042       -1.43777723614353
H            4.50233401299890        0.14939953963351        0.82149005000555
H            6.96652135542737        0.10936216971866        1.07410065705568
H           10.73764646116719       -0.37586407993734        0.36588535519245
H           13.21197346397471       -0.34367141709868        0.51612095071784
H           14.50252047063469       -2.36765519534917       -0.04037077730308
H           13.33923883682123       -4.42274216624261       -0.74985551940418
H           10.86463053463990       -4.44753150112068       -0.90116411654637

 Bond Distances (Angstroems)
 ---------------------------
N1-C2=1.4763         N1-H19=1.0221        N1-H20=1.0531        N1-H21=1.0236        C2-N1=1.4763         C2-C3=1.5288         
C2-H22=1.0888        C2-H23=1.0908        C3-C2=1.5288         C3-C4=1.5015         C3-H24=1.0908        C3-H25=1.0889        
C4-C3=1.5015         C4-C5=1.3938         C4-C7=1.3940         C5-C4=1.3938         C5-C6=1.3769         C5-H26=1.0798        
C6-C5=1.3769         C6-C9=1.4023         C6-H27=1.0790        C7-C4=1.3940         C7-C8=1.3789         C7-H28=1.0812        
C8-C7=1.3789         C8-C9=1.4002         C8-H29=1.0789        C9-C6=1.4023         C9-C8=1.4002         C9-N10=1.3802        
N10-C9=1.3802        N10-N11=1.2757       N11-N10=1.2757       N11-C12=1.3838       C12-N11=1.3838       C12-C13=1.4013       
C12-C17=1.3990       C13-C12=1.4013       C13-C14=1.3784       C13-H30=1.0793       C14-C13=1.3784       C14-C15=1.3885       
C14-H31=1.0798       C15-C14=1.3885       C15-C16=1.3872       C15-H32=1.0792       C16-C15=1.3872       C16-C17=1.3801       
C16-H33=1.0792       C17-C12=1.3990       C17-C16=1.3801       C17-H34=1.0786       H19-N1=1.0221        H20-N1=1.0531        
H21-N1=1.0236        H22-C2=1.0888        H23-C2=1.0908        H24-C3=1.0908        H25-C3=1.0889        H26-C5=1.0798        
H27-C6=1.0790        H28-C7=1.0812        H29-C8=1.0789        H30-C13=1.0793       H31-C14=1.0798       H32-C15=1.0792       
H33-C16=1.0792       H34-C17=1.0786       
 C  H  Rav=1.0826 sigma=0.0048  Rmin=1.0786  Rmax=1.0908    13
 C  C  Rav=1.4079 sigma=0.0449  Rmin=1.3769  Rmax=1.5288    14
 N  H  Rav=1.0329 sigma=0.0143  Rmin=1.0221  Rmax=1.0531     3
 N  C  Rav=1.4134 sigma=0.0445  Rmin=1.3802  Rmax=1.4763     3
 N  N  Rav=1.2757 sigma=0.0000  Rmin=1.2757  Rmax=1.2757     1

 selected bond angles (degree)
 --------------------
H19-N1-C2=111.96               H20-N1-C2=109.97               H20-N1-H19=108.45              H21-N1-C2=110.36               
H21-N1-H19=109.84              H21-N1-H20=106.07              C3-C2-N1=109.63                H22-C2-N1=108.69               
H22-C2-C3=109.06               H23-C2-N1=109.51               H23-C2-C3=110.27               H23-C2-H22=109.67              
C4-C3-C2=111.42                H24-C3-C2=108.13               H24-C3-C4=109.64               H25-C3-C2=108.98               
H25-C3-C4=109.81               H25-C3-H24=108.80              C5-C4-C3=120.70                C7-C4-C3=120.19                
C7-C4-C5=119.10                C6-C5-C4=120.86                H26-C5-C4=119.55               H26-C5-C6=119.59               
C9-C6-C5=120.01                H27-C6-C5=121.55               H27-C6-C9=118.44               C8-C7-C4=120.64                
H28-C7-C4=119.40               H28-C7-C8=119.94               C9-C8-C7=120.17                H29-C8-C7=121.19               
H29-C8-C9=118.64               C8-C9-C6=119.22                N10-C9-C6=124.58               N10-C9-C8=116.17               
N11-N10-C9=116.72              

 selected dihedral angles (degree)
 ---------------------------------
C3-C2-N1-H19=174.30           C3-C2-N1-H20= 53.67           C3-C2-N1-H21=296.99           H22-C2-N1-H19= 55.18          
H22-C2-N1-H20=294.55          H22-C2-N1-H21=177.87          H23-C2-N1-H19=295.40          H23-C2-N1-H20=174.76          
H23-C2-N1-H21= 58.08          C4-C3-C2-N1= 66.36            C4-C3-C2-H22=185.25           C4-C3-C2-H23=305.73           
H24-C3-C2-N1=305.81           H24-C3-C2-H22= 64.70          H24-C3-C2-H23=185.17          H25-C3-C2-N1=187.69           
H25-C3-C2-H22=306.58          H25-C3-C2-H23= 67.06          C5-C4-C3-C2= 87.95            C5-C4-C3-H24=207.61           
C5-C4-C3-H25=327.10           C7-C4-C3-C2=269.24            C7-C4-C3-H24= 28.90           C7-C4-C3-H25=148.39           
C6-C5-C4-C3=181.17            C6-C5-C4-C7=359.90            H26-C5-C4-C3=  1.82           H26-C5-C4-C7=180.55           
C9-C6-C5-C4=359.96            C9-C6-C5-H26=179.31           H27-C6-C5-C4=180.81           H27-C6-C5-H26=  0.17          
C8-C7-C4-C3=179.29            C8-C7-C4-C5=  0.55            H28-C7-C4-C3=357.75           H28-C7-C4-C5=179.01           
C9-C8-C7-C4=359.14            C9-C8-C7-H28=180.68           H29-C8-C7-C4=179.58           H29-C8-C7-H28=  1.13          
C8-C9-C6-C5=359.73            C8-C9-C6-H27=178.91           N10-C9-C6-C5=181.68           N10-C9-C6-H27=  0.85          
C6-C9-C8-C7=  0.71            C6-C9-C8-H29=180.28           N10-C9-C8-C7=178.93           N10-C9-C8-H29=358.50          
N11-N10-C9-C6=349.30          N11-N10-C9-C8=171.19          

 CMA Distance (Angstroems)
 ---------------------------
R(CMA):  6.9138
           -------------------------------------------------
          |                Final Singlepoint                |
           -------------------------------------------------

          ...................................................
          :                      SETUP                      :
          :.................................................:
          :  # basis functions                  94          :
          :  # atomic orbitals                  93          :
          :  # shells                           53          :
          :  # electrons                        94          :
          :  max. iterations                   250          :
          :  Hamiltonian                  GFN2-xTB          :
          :  restarted?                      false          :
          :  GBSA solvation                   true          :
          :  PC potential                    false          :
          :  electronic temp.          300.0000000     K    :
          :  accuracy                    1.0000000          :
          :  -> integral cutoff          0.2500000E+02      :
          :  -> integral neglect         0.1000000E-07      :
          :  -> SCF convergence          0.1000000E-05 Eh   :
          :  -> wf. convergence          0.1000000E-03 e    :
          :  Broyden damping             0.4000000          :
          ...................................................

 iter      E             dE          RMSdq      gap      omega  full diag
   1    -52.2100924 -0.522101E+02  0.173E-04    0.76       0.0  T
   2    -52.2100924 -0.169187E-09  0.132E-04    0.76     130.2  T
   3    -52.2100924 -0.980904E-10  0.104E-04    0.76     164.4  T

   *** convergence criteria satisfied after 3 iterations ***

         #    Occupation            Energy/Eh            Energy/eV
      -------------------------------------------------------------
         1        2.0000           -1.0067339             -27.3946
       ...           ...                  ...                  ...
        41        2.0000           -0.4104362             -11.1685
        42        2.0000           -0.4091006             -11.1322
        43        2.0000           -0.4027151             -10.9584
        44        2.0000           -0.4002918             -10.8925
        45        2.0000           -0.3996026             -10.8737
        46        2.0000           -0.3867569             -10.5242
        47        2.0000           -0.3360477              -9.1443 (HOMO)
        48        0.0000           -0.3080533              -8.3826 (LUMO)
        49                         -0.2273120              -6.1855
        50                         -0.2255947              -6.1387
        51                         -0.2179399              -5.9304
        52                         -0.1930601              -5.2534
       ...                                ...                  ...
        93                          0.6619909              18.0137
      -------------------------------------------------------------
                  HL-Gap            0.0279944 Eh            0.7618 eV
             Fermi-level           -0.3220505 Eh           -8.7634 eV

 SCC (total)                   0 d,  0 h,  0 min,  0.023 sec
 SCC setup                      ...        0 min,  0.000 sec (  1.121%)
 Dispersion                     ...        0 min,  0.000 sec (  1.838%)
 classical contributions        ...        0 min,  0.000 sec (  0.192%)
 integral evaluation            ...        0 min,  0.001 sec (  6.312%)
 iterations                     ...        0 min,  0.017 sec ( 71.596%)
 molecular gradient             ...        0 min,  0.004 sec ( 15.829%)
 printout                       ...        0 min,  0.001 sec (  2.317%)

         :::::::::::::::::::::::::::::::::::::::::::::::::::::
         ::                     SUMMARY                     ::
         :::::::::::::::::::::::::::::::::::::::::::::::::::::
         :: total energy             -51.430466353727 Eh    ::
         :: total w/o Gsasa/hb       -51.419535852974 Eh    ::
         :: gradient norm              0.000670796315 Eh/a0 ::
         :: HOMO-LUMO gap              0.761765753613 eV    ::
         ::.................................................::
         :: SCC energy               -52.210092438735 Eh    ::
         :: -> isotropic ES            0.132767152899 Eh    ::
         :: -> anisotropic ES         -0.035058525065 Eh    ::
         :: -> anisotropic XC          0.032038988809 Eh    ::
         :: -> dispersion             -0.032184904105 Eh    ::
         :: -> Gsolv                  -0.078145731947 Eh    ::
         ::    -> Gelec               -0.067215231194 Eh    ::
         ::    -> Gsasa               -0.004537666752 Eh    ::
         ::    -> Ghb                 -0.007473593699 Eh    ::
         ::    -> Gshift               0.001080759698 Eh    ::
         :: repulsion energy           0.779872126508 Eh    ::
         :: add. restraining           0.000000000000 Eh    ::
         :: total charge               0.000000000000 e     ::
         :::::::::::::::::::::::::::::::::::::::::::::::::::::

           -------------------------------------------------
          |                Property Printout                |
           -------------------------------------------------

    * Orbital Energies and Occupations

         #    Occupation            Energy/Eh            Energy/eV
      -------------------------------------------------------------
         1        2.0000           -1.0067339             -27.3946
       ...           ...                  ...                  ...
        35        2.0000           -0.4472386             -12.1700
        36        2.0000           -0.4348961             -11.8341
        37        2.0000           -0.4313319             -11.7371
        38        2.0000           -0.4233618             -11.5203
        39        2.0000           -0.4204871             -11.4420
        40        2.0000           -0.4175948             -11.3633
        41        2.0000           -0.4104362             -11.1685
        42        2.0000           -0.4091006             -11.1322
        43        2.0000           -0.4027151             -10.9584
        44        2.0000           -0.4002918             -10.8925
        45        2.0000           -0.3996026             -10.8737
        46        2.0000           -0.3867569             -10.5242
        47        2.0000           -0.3360477              -9.1443 (HOMO)
        48        0.0000           -0.3080533              -8.3826 (LUMO)
        49                         -0.2273120              -6.1855
        50                         -0.2255947              -6.1387
        51                         -0.2179399              -5.9304
        52                         -0.1930601              -5.2534
        53                         -0.0939197              -2.5557
        54                         -0.0850777              -2.3151
        55                         -0.0229950              -0.6257
        56                          0.0785607               2.1377
        57                          0.0836371               2.2759
        58                          0.0917779               2.4974
       ...                                ...                  ...
        93                          0.6619909              18.0137
      -------------------------------------------------------------
                  HL-Gap            0.0279944 Eh            0.7618 eV
             Fermi-level           -0.3220505 Eh           -8.7634 eV

     #   Z          covCN         q      C6AA      α(0)
     1   7 N        3.484    -0.166    24.576     7.363
     2   6 C        3.733    -0.025    21.112     6.558
     3   6 C        3.810    -0.090    22.204     6.707
     4   6 C        2.970     0.025    27.452     8.594
     5   6 C        2.920    -0.042    29.052     8.839
     6   6 C        2.916    -0.038    28.951     8.823
     7   6 C        2.920    -0.044    29.090     8.845
     8   6 C        2.925    -0.037    28.930     8.821
     9   6 C        2.939     0.069    26.453     8.435
    10   7 N        1.942    -0.173    25.533     7.493
    11   7 N        1.942    -0.172    25.519     7.491
    12   6 C        2.939     0.072    26.384     8.424
    13   6 C        2.918    -0.038    28.943     8.822
    14   6 C        2.917    -0.033    28.824     8.804
    15   6 C        2.920    -0.029    28.733     8.790
    16   6 C        2.917    -0.034    28.839     8.806
    17   6 C        2.927    -0.039    28.969     8.827
    18  17 Cl       0.046    -0.946   124.841    17.005
    19   1 H        0.859     0.306     0.695     1.306
    20   1 H        0.903     0.299     0.714     1.322
    21   1 H        0.859     0.283     0.767     1.372
    22   1 H        0.925     0.111     1.691     2.034
    23   1 H        0.924     0.108     1.710     2.045
    24   1 H        0.924     0.078     1.999     2.211
    25   1 H        0.925     0.082     1.957     2.188
    26   1 H        0.926     0.060     2.197     2.318
    27   1 H        0.926     0.053     2.280     2.361
    28   1 H        0.926     0.058     2.222     2.331
    29   1 H        0.926     0.047     2.358     2.401
    30   1 H        0.926     0.051     2.313     2.378
    31   1 H        0.926     0.045     2.381     2.413
    32   1 H        0.926     0.051     2.313     2.378
    33   1 H        0.926     0.051     2.309     2.376
    34   1 H        0.926     0.059     2.214     2.327

 Mol. C6AA /au·bohr⁶  :      14625.406677
 Mol. C8AA /au·bohr⁸  :     373611.601459
 Mol. α(0) /au        :        191.207834


Wiberg/Mayer (AO) data.
largest (>0.10) Wiberg bond orders for each atom

 ---------------------------------------------------------------------------
     #   Z sym  total        # sym  WBO       # sym  WBO       # sym  WBO
 ---------------------------------------------------------------------------
     1   7 N    3.646 --     2 C    0.969    21 H    0.899    19 H    0.892
                            20 H    0.829
     2   6 C    3.926 --     3 C    0.991     1 N    0.969    23 H    0.966
                            22 H    0.966
     3   6 C    3.988 --     4 C    1.017     2 C    0.991    24 H    0.964
                            25 H    0.962
     4   6 C    3.966 --     7 C    1.389     5 C    1.384     3 C    1.017
     5   6 C    3.988 --     6 C    1.485     4 C    1.384    26 H    0.965
     6   6 C    3.982 --     5 C    1.485     9 C    1.322    27 H    0.966
     7   6 C    3.988 --     8 C    1.474     4 C    1.389    28 H    0.964
     8   6 C    3.974 --     7 C    1.474     9 C    1.330    29 H    0.968
     9   6 C    3.976 --     8 C    1.330     6 C    1.322    10 N    1.161
    10   7 N    3.032 --    11 N    1.642     9 C    1.161
    11   7 N    3.026 --    10 N    1.642    12 C    1.153
    12   6 C    3.979 --    17 C    1.338    13 C    1.330    11 N    1.153
    13   6 C    3.982 --    14 C    1.476    12 C    1.330    30 H    0.967
                            16 C    0.101
    14   6 C    3.991 --    13 C    1.476    15 C    1.417    31 H    0.969
    15   6 C    3.967 --    16 C    1.426    14 C    1.417    32 H    0.970
    16   6 C    3.990 --    17 C    1.466    15 C    1.426    33 H    0.969
                            13 C    0.101
    17   6 C    3.972 --    16 C    1.466    12 C    1.338    34 H    0.967
    18  17 Cl   0.104
    19   1 H    0.906 --     1 N    0.892
    20   1 H    0.911 --     1 N    0.829
    21   1 H    0.920 --     1 N    0.899
    22   1 H    0.987 --     2 C    0.966
    23   1 H    0.988 --     2 C    0.966
    24   1 H    0.993 --     3 C    0.964
    25   1 H    0.992 --     3 C    0.962
    26   1 H    0.996 --     5 C    0.965
    27   1 H    0.997 --     6 C    0.966
    28   1 H    0.996 --     7 C    0.964
    29   1 H    0.997 --     8 C    0.968
    30   1 H    0.997 --    13 C    0.967
    31   1 H    0.998 --    14 C    0.969
    32   1 H    0.997 --    15 C    0.970
    33   1 H    0.997 --    16 C    0.969
    34   1 H    0.997 --    17 C    0.967
 ---------------------------------------------------------------------------

Topologies differ in total number of bonds
Writing topology from bond orders to xtbtopo.mol

molecular dipole:
                 x           y           z       tot (Debye)
 q only:        0.638      -5.393      -0.322
   full:        0.623      -4.537      -0.150      11.645
molecular quadrupole (traceless):
                xx          xy          yy          xz          yz          zz
 q only:        5.732     -33.987       5.046       3.707     -22.574     -10.778
  q+dip:        9.673     -29.462       6.536       4.442     -16.128     -16.209
   full:        7.079     -29.192       4.836       3.797     -19.677     -11.915

           -------------------------------------------------
          |                Geometry Summary                 |
           -------------------------------------------------

      molecular mass/u    :      261.7504018
   center of mass at/Å    :        6.8955748      -1.5677412       0.1973778
  moments of inertia/u·Å² :        0.4802451E+03   0.4509209E+04   0.4831547E+04
rotational constants/cm⁻¹ :        0.3510215E-01   0.3738490E-02   0.3489076E-02

 * 31 selected distances

     #   Z          #   Z                                           value/Å
     1   7 N        2   6 C                                       1.4762756
     2   6 C        3   6 C                                       1.5287792 (max)
     4   6 C        5   6 C                                       1.3937598
     5   6 C        6   6 C                                       1.3769427
     4   6 C        7   6 C                                       1.3939775
     7   6 C        8   6 C                                       1.3789230
     6   6 C        9   6 C                                       1.4023454
     8   6 C        9   6 C                                       1.4002452
    10   7 N       11   7 N                                       1.2757416
    12   6 C       13   6 C                                       1.4012559
    13   6 C       14   6 C                                       1.3784241
    14   6 C       15   6 C                                       1.3885358
    15   6 C       16   6 C                                       1.3871631
    12   6 C       17   6 C                                       1.3990442
    16   6 C       17   6 C                                       1.3801384
     1   7 N       19   1 H                                       1.0220756 (min)
     1   7 N       20   1 H                                       1.0530928
     1   7 N       21   1 H                                       1.0235797
     2   6 C       22   1 H                                       1.0888029
     2   6 C       23   1 H                                       1.0907712
     3   6 C       24   1 H                                       1.0907905
     3   6 C       25   1 H                                       1.0889125
     5   6 C       26   1 H                                       1.0797882
     6   6 C       27   1 H                                       1.0790333
     7   6 C       28   1 H                                       1.0811576
     8   6 C       29   1 H                                       1.0789422
    13   6 C       30   1 H                                       1.0793272
    14   6 C       31   1 H                                       1.0798156
    15   6 C       32   1 H                                       1.0791927
    16   6 C       33   1 H                                       1.0792399
    17   6 C       34   1 H                                       1.0785991

 * 5 distinct bonds (by element types)

   Z      Z             #   av. dist./Å        max./Å        min./Å
   1 H    6 C          13     1.0826441     1.0907905     1.0785991
   6 C    6 C          13     1.4007334     1.5287792     1.3769427
   1 H    7 N           3     1.0329160     1.0530928     1.0220756
   6 C    7 N           1     1.4762756     1.4762756     1.4762756
   7 N    7 N           1     1.2757416     1.2757416     1.2757416


optimized geometry written to: xtbopt.xyz


           -------------------------------------------------
          | TOTAL ENERGY              -51.430466353727 Eh   |
          | GRADIENT NORM               0.000670796315 Eh/α |
          | HOMO-LUMO GAP               0.761765753613 eV   |
           -------------------------------------------------

------------------------------------------------------------------------
 * finished run on 2023/01/24 at 14:56:03.941     
------------------------------------------------------------------------
 total:
 * wall-time:     0 d,  0 h,  0 min,  1.871 sec
 *  cpu-time:     0 d,  0 h,  3 min, 26.820 sec
 * ratio c/w:   110.548 speedup
 SCF:
 * wall-time:     0 d,  0 h,  0 min,  0.093 sec
 *  cpu-time:     0 d,  0 h,  0 min, 12.699 sec
 * ratio c/w:   137.075 speedup
 ANC optimizer:
 * wall-time:     0 d,  0 h,  0 min,  1.761 sec
 *  cpu-time:     0 d,  0 h,  3 min, 11.968 sec
 * ratio c/w:   109.000 speedup

