      -----------------------------------------------------------      
     |                   =====================                   |     
     |                           x T B                           |     
     |                   =====================                   |     
     |                         S. Grimme                         |     
     |          Mulliken Center for Theoretical Chemistry        |     
     |                    University of Bonn                     |     
      -----------------------------------------------------------      

   * xtb version 6.5.1 (fef0646) compiled by 'conda@b96dff2e9fd6' on 2023-01-04

   xtb is free software: you can redistribute it and/or modify it under
   the terms of the GNU Lesser General Public License as published by
   the Free Software Foundation, either version 3 of the License, or
   (at your option) any later version.
   
   xtb is distributed in the hope that it will be useful,
   but WITHOUT ANY WARRANTY; without even the implied warranty of
   MERCHANTABILITY or FITNESS FOR A PARTICULAR PURPOSE.  See the
   GNU Lesser General Public License for more details.
   
   Cite this work as:
   * C. Bannwarth, E. Caldeweyher, S. Ehlert, A. Hansen, P. Pracht,
     J. Seibert, S. Spicher, S. Grimme, WIREs Comput. Mol. Sci., 2020, 11,
     e01493. DOI: 10.1002/wcms.1493
   
   for GFN2-xTB:
   * C. Bannwarth, S. Ehlert and S. Grimme., J. Chem. Theory Comput., 2019,
     15, 1652-1671. DOI: 10.1021/acs.jctc.8b01176
   for GFN1-xTB:
   * S. Grimme, C. Bannwarth, P. Shushkov, J. Chem. Theory Comput., 2017,
     13, 1989-2009. DOI: 10.1021/acs.jctc.7b00118
   for GFN0-xTB:
   * P. Pracht, E. Caldeweyher, S. Ehlert, S. Grimme, ChemRxiv, 2019, preprint.
     DOI: 10.26434/chemrxiv.8326202.v1
   for GFN-FF:
   * S. Spicher and S. Grimme, Angew. Chem. Int. Ed., 2020, 59, 15665-15673.
     DOI: 10.1002/anie.202004239
   
   for ALPB and GBSA implicit solvation:
   * S. Ehlert, M. Stahn, S. Spicher, S. Grimme, J. Chem. Theory Comput.,
     2021, 17, 4250-4261. DOI: 10.1021/acs.jctc.1c00471
   
   for DFT-D4:
   * E. Caldeweyher, C. Bannwarth and S. Grimme, J. Chem. Phys., 2017,
     147, 034112. DOI: 10.1063/1.4993215
   * E. Caldeweyher, S. Ehlert, A. Hansen, H. Neugebauer, S. Spicher,
     C. Bannwarth and S. Grimme, J. Chem. Phys., 2019, 150, 154122.
     DOI: 10.1063/1.5090222
   * E. Caldeweyher, J.-M. Mewes, S. Ehlert and S. Grimme, Phys. Chem. Chem. Phys.
     2020, 22, 8499-8512. DOI: 10.1039/D0CP00502A
   
   for sTDA-xTB:
   * S. Grimme and C. Bannwarth, J. Chem. Phys., 2016, 145, 054103.
     DOI: 10.1063/1.4959605
   
   in the mass-spec context:
   * V. Asgeirsson, C. Bauer and S. Grimme, Chem. Sci., 2017, 8, 4879.
     DOI: 10.1039/c7sc00601b
   * J. Koopman and S. Grimme, ACS Omega 2019, 4, 12, 15120-15133.
     DOI: 10.1021/acsomega.9b02011
   
   for metadynamics refer to:
   * S. Grimme, J. Chem. Theory Comput., 2019, 155, 2847-2862
     DOI: 10.1021/acs.jctc.9b00143
   
   for SPH calculations refer to:
   * S. Spicher and S. Grimme, J. Chem. Theory Comput., 2021, 17, 1701-1714
     DOI: 10.1021/acs.jctc.0c01306
   
   with help from (in alphabetical order)
   P. Atkinson, C. Bannwarth, F. Bohle, G. Brandenburg, E. Caldeweyher
   M. Checinski, S. Dohm, S. Ehlert, S. Ehrlich, I. Gerasimov, C. Hölzer
   A. Katbashev, J. Koopman, C. Lavigne, S. Lehtola, F. März, M. Müller,
   F. Musil, H. Neugebauer, J. Pisarek, C. Plett, P. Pracht, F. Pultar,
   J. Seibert, P. Shushkov, S. Spicher, M. Stahn, M. Steiner, T. Strunk,
   J. Stückrath, T. Rose, and J. Unsleber
   
 * started run on 2023/01/24 at 14:57:47.758     

           -------------------------------------------------
          |                Calculation Setup                |
           -------------------------------------------------

          program call               : xtb init.xyz --opt -c 0 -u 0 -P 16 --alpb water
          hostname                   : gpg-woodward
          coordinate file            : init.xyz
          omp threads                :                    16

   ID    Z sym.   atoms
    1    7 N      1
    2    6 C      2-10
    3   17 Cl     11
    4    1 H      12-25

molecular fragmentation (1/2 indicates fragments):
1111111111211111111111111
# atoms in fragment 1/2:    24     1
 fragment masses (1/2) :      136.21       35.45
CMA distance (Bohr)    :   9.980
constraining FC (au)   :  0.0500

           -------------------------------------------------
          |                 G F N 2 - x T B                 |
           -------------------------------------------------

        Reference                      10.1021/acs.jctc.8b01176
      * Hamiltonian:
        H0-scaling (s, p, d)           1.850000    2.230000    2.230000
        zeta-weighting                 0.500000
      * Dispersion:
        s8                             2.700000
        a1                             0.520000
        a2                             5.000000
        s9                             5.000000
      * Repulsion:
        kExp                           1.500000    1.000000
        rExp                           1.000000
      * Coulomb:
        alpha                          2.000000
        third order                    shell-resolved
        anisotropic                    true
        a3                             3.000000
        a5                             4.000000
        cn-shift                       1.200000
        cn-exp                         4.000000
        max-rad                        5.000000

      * Solvation model:               ALPB
        Solvent                        water
        Parameter file                 internal GFN2-xTB/ALPB
        Dielectric constant                8.0200E+01
        Reference state                gsolv [1 M gas/solution]
        Free energy shift                  1.0808E-03 Eh       6.7819E-01 kcal/mol
        Temperature                        2.9815E+02 K
        Density                            1.0000E+00 kg/L
        Solvent mass                       1.8000E+01 g/mol
        Interaction kernel             P16
        Born radius scaling (c1)           1.4744E+00
        Born radii integrator          GBOBC
        Born offset                        0.0000E+00 a0       0.0000E+00 AA
        H-bond correction              true
        Ion screening                  false
        Surface tension                    1.0000E-05 Eh       1.5569E+01 dyn/cm
        Grid points                               230 per atom

          ...................................................
          :                      SETUP                      :
          :.................................................:
          :  # basis functions                  64          :
          :  # atomic orbitals                  63          :
          :  # shells                           37          :
          :  # electrons                        62          :
          :  max. iterations                   250          :
          :  Hamiltonian                  GFN2-xTB          :
          :  restarted?                      false          :
          :  GBSA solvation                   true          :
          :  PC potential                    false          :
          :  electronic temp.          300.0000000     K    :
          :  accuracy                    1.0000000          :
          :  -> integral cutoff          0.2500000E+02      :
          :  -> integral neglect         0.1000000E-07      :
          :  -> SCF convergence          0.1000000E-05 Eh   :
          :  -> wf. convergence          0.1000000E-03 e    :
          :  Broyden damping             0.4000000          :
          ...................................................

 iter      E             dE          RMSdq      gap      omega  full diag
   1    -34.2885455 -0.342885E+02  0.395E+00    4.57       0.0  T
   2    -34.3711286 -0.825831E-01  0.225E+00    4.65       1.0  T
   3    -34.3755998 -0.447123E-02  0.107E+00    4.60       1.0  T
   4    -34.3759583 -0.358405E-03  0.423E-01    4.62       1.0  T
   5    -34.3776524 -0.169419E-02  0.265E-01    4.60       1.0  T
   6    -34.3781840 -0.531529E-03  0.142E-01    4.59       1.0  T
   7    -34.3783580 -0.174008E-03  0.644E-02    4.61       1.0  T
   8    -34.3783986 -0.406011E-04  0.255E-02    4.60       1.0  T
   9    -34.3783994 -0.813360E-06  0.758E-03    4.60       2.6  T
  10    -34.3783999 -0.529078E-06  0.235E-03    4.60       8.5  T
  11    -34.3784000 -0.301850E-07  0.144E-03    4.60      13.9  T
  12    -34.3784000 -0.797857E-08  0.663E-04    4.60      30.2  T
  13    -34.3784000 -0.340629E-08  0.246E-04    4.60      81.5  T

   *** convergence criteria satisfied after 13 iterations ***

         #    Occupation            Energy/Eh            Energy/eV
      -------------------------------------------------------------
         1        2.0000           -1.0114010             -27.5216
       ...           ...                  ...                  ...
        25        2.0000           -0.4162663             -11.3272
        26        2.0000           -0.4115064             -11.1977
        27        2.0000           -0.4027337             -10.9589
        28        2.0000           -0.4026060             -10.9555
        29        2.0000           -0.4004754             -10.8975
        30        2.0000           -0.3952078             -10.7542
        31        2.0000           -0.3877049             -10.5500 (HOMO)
        32                         -0.2187449              -5.9524 (LUMO)
        33                         -0.2171040              -5.9077
        34                         -0.0933736              -2.5408
        35                         -0.0260094              -0.7078
        36                          0.0707487               1.9252
       ...                                ...                  ...
        63                          0.6388821              17.3849
      -------------------------------------------------------------
                  HL-Gap            0.1689600 Eh            4.5976 eV
             Fermi-level           -0.3032249 Eh           -8.2512 eV

 SCC (total)                   0 d,  0 h,  0 min,  0.052 sec
 SCC setup                      ...        0 min,  0.001 sec (  1.530%)
 Dispersion                     ...        0 min,  0.001 sec (  1.317%)
 classical contributions        ...        0 min,  0.000 sec (  0.371%)
 integral evaluation            ...        0 min,  0.007 sec ( 14.329%)
 iterations                     ...        0 min,  0.037 sec ( 71.047%)
 molecular gradient             ...        0 min,  0.005 sec ( 10.406%)
 printout                       ...        0 min,  0.000 sec (  0.375%)

         :::::::::::::::::::::::::::::::::::::::::::::::::::::
         ::                     SUMMARY                     ::
         :::::::::::::::::::::::::::::::::::::::::::::::::::::
         :: total energy             -33.903689359349 Eh    ::
         :: total w/o Gsasa/hb       -33.896118241616 Eh    ::
         :: gradient norm              0.036654746814 Eh/a0 ::
         :: HOMO-LUMO gap              4.597636855734 eV    ::
         ::.................................................::
         :: SCC energy               -34.378399971218 Eh    ::
         :: -> isotropic ES            0.105882236689 Eh    ::
         :: -> anisotropic ES         -0.026134796909 Eh    ::
         :: -> anisotropic XC          0.010811024581 Eh    ::
         :: -> dispersion             -0.018827218023 Eh    ::
         :: -> Gsolv                  -0.063067749040 Eh    ::
         ::    -> Gelec               -0.055496631307 Eh    ::
         ::    -> Gsasa               -0.001753761083 Eh    ::
         ::    -> Ghb                 -0.006898116349 Eh    ::
         ::    -> Gshift               0.001080759698 Eh    ::
         :: repulsion energy           0.474700903507 Eh    ::
         :: add. restraining           0.000000000000 Eh    ::
         :: total charge               0.000000000000 e     ::
         :::::::::::::::::::::::::::::::::::::::::::::::::::::

      ----------------------------------------------------------- 
     |                   =====================                   |
     |                        A N C O P T                        |
     |                   =====================                   |
     |               Approximate Normal Coordinate               |
     |                Rational Function Optimizer                |
      ----------------------------------------------------------- 

          ...................................................
          :                      SETUP                      :
          :.................................................:
          :   optimization level            normal          :
          :   max. optcycles                   200          :
          :   ANC micro-cycles                  20          :
          :   degrees of freedom                69          :
          :.................................................:
          :   RF solver                   davidson          :
          :   write xtbopt.log                true          :
          :   linear?                        false          :
          :   energy convergence         0.5000000E-05 Eh   :
          :   grad. convergence          0.1000000E-02 Eh/α :
          :   maximium RF displ.         1.0000000          :
          :   Hlow (freq-cutoff)         0.1000000E-01      :
          :   Hmax (freq-cutoff)         5.0000000          :
          :   S6 in model hess.         20.0000000          :
          ...................................................

generating ANC from model Hessian ...
Using Lindh-Hessian (1995)
 Shifting diagonal of input Hessian by    9.9045725771718714E-003
 Lowest  eigenvalues of input Hessian
    0.000000    0.000000    0.000000    0.000000    0.000000    0.000000
    0.010000    0.010702    0.011162    0.011778    0.012703    0.015697
    0.016867    0.020986    0.023920    0.025530    0.026849    0.029524
 Highest eigenvalues
    1.527750    1.538380    1.561216    1.832745    1.933743    1.946137


........................................................................
.............................. CYCLE    1 ..............................
........................................................................
   1    -34.3784000 -0.343784E+02  0.122E-04    4.60       0.0  T
   2    -34.3784000 -0.511591E-10  0.904E-05    4.60     221.2  T
   3    -34.3784000 -0.201084E-10  0.648E-05    4.60     308.7  T
     SCC iter.                  ...        0 min,  0.008 sec
     gradient                   ...        0 min,  0.003 sec
 * total energy  :   -33.9036894 Eh     change       -0.2719744E-09 Eh
   gradient norm :     0.0366554 Eh/α   predicted     0.0000000E+00 (-100.00%)
   displ. norm   :     0.3012849 α      lambda       -0.7192595E-02
   maximum displ.:     0.2187450 α      in ANC's #15, #17, #18, ...

........................................................................
.............................. CYCLE    2 ..............................
........................................................................
   1    -34.3992065 -0.343992E+02  0.205E-01    4.69       0.0  T
   2    -34.3993001 -0.935946E-04  0.110E-01    4.69       1.0  T
   3    -34.3993049 -0.475393E-05  0.325E-02    4.69       1.0  T
   4    -34.3993055 -0.661416E-06  0.648E-03    4.69       3.1  T
   5    -34.3993058 -0.225348E-06  0.396E-03    4.69       5.1  T
   6    -34.3993059 -0.896326E-07  0.251E-03    4.69       8.0  T
   7    -34.3993059 -0.376144E-07  0.146E-03    4.69      13.7  T
   8    -34.3993059 -0.979387E-08  0.926E-04    4.69      21.6  T
   9    -34.3993059 -0.822879E-08  0.258E-04    4.69      77.6  T
     SCC iter.                  ...        0 min,  0.022 sec
     gradient                   ...        0 min,  0.003 sec
 * total energy  :   -33.9080597 Eh     change       -0.4370301E-02 Eh
   gradient norm :     0.0211660 Eh/α   predicted    -0.3922797E-02 ( -10.24%)
   displ. norm   :     0.1496145 α      lambda       -0.1250495E-02
   maximum displ.:     0.0784112 α      in ANC's #15, #8, #5, ...

........................................................................
.............................. CYCLE    3 ..............................
........................................................................
   1    -34.4064759 -0.344065E+02  0.793E-02    4.73       0.0  T
   2    -34.4064887 -0.128206E-04  0.438E-02    4.72       1.0  T
   3    -34.4064897 -0.934587E-06  0.126E-02    4.73       1.6  T
   4    -34.4064899 -0.219194E-06  0.471E-03    4.73       4.2  T
   5    -34.4064900 -0.158491E-06  0.305E-03    4.73       6.6  T
   6    -34.4064901 -0.452592E-07  0.196E-03    4.73      10.2  T
   7    -34.4064901 -0.236329E-07  0.111E-03    4.73      18.1  T
   8    -34.4064901 -0.781479E-08  0.651E-04    4.73      30.7  T
   9    -34.4064901 -0.344323E-08  0.146E-04    4.73     136.7  T
     SCC iter.                  ...        0 min,  0.022 sec
     gradient                   ...        0 min,  0.003 sec
 * total energy  :   -33.9088774 Eh     change       -0.8177321E-03 Eh
   gradient norm :     0.0100451 Eh/α   predicted    -0.6392519E-03 ( -21.83%)
   displ. norm   :     0.1194046 α      lambda       -0.3480191E-03
   maximum displ.:     0.0669321 α      in ANC's #5, #4, #8, ...

........................................................................
.............................. CYCLE    4 ..............................
........................................................................
   1    -34.4074850 -0.344075E+02  0.435E-02    4.72       0.0  T
   2    -34.4074884 -0.332941E-05  0.252E-02    4.72       1.0  T
   3    -34.4074888 -0.472739E-06  0.738E-03    4.72       2.7  T
   4    -34.4074890 -0.145728E-06  0.396E-03    4.72       5.1  T
   5    -34.4074891 -0.721208E-07  0.291E-03    4.72       6.9  T
   6    -34.4074891 -0.515001E-07  0.168E-03    4.72      11.9  T
   7    -34.4074891 -0.224166E-07  0.726E-04    4.72      27.5  T
   8    -34.4074891 -0.296895E-08  0.346E-04    4.72      57.9  T
     SCC iter.                  ...        0 min,  0.018 sec
     gradient                   ...        0 min,  0.002 sec
 * total energy  :   -33.9090957 Eh     change       -0.2182848E-03 Eh
   gradient norm :     0.0040939 Eh/α   predicted    -0.1764921E-03 ( -19.15%)
   displ. norm   :     0.0908836 α      lambda       -0.9106404E-04
   maximum displ.:     0.0597941 α      in ANC's #5, #4, #2, ...

........................................................................
.............................. CYCLE    5 ..............................
........................................................................
   1    -34.4071527 -0.344072E+02  0.258E-02    4.71       0.0  T
   2    -34.4071530 -0.315771E-06  0.157E-02    4.71       1.3  T
   3    -34.4071532 -0.218881E-06  0.367E-03    4.71       5.5  T
   4    -34.4071532 -0.501841E-07  0.278E-03    4.71       7.2  T
   5    -34.4071533 -0.410999E-07  0.169E-03    4.71      11.8  T
   6    -34.4071533 -0.258244E-07  0.541E-04    4.71      37.0  T
   7    -34.4071533 -0.233394E-08  0.232E-04    4.71      86.2  T
     SCC iter.                  ...        0 min,  0.016 sec
     gradient                   ...        0 min,  0.002 sec
 * total energy  :   -33.9091619 Eh     change       -0.6617568E-04 Eh
   gradient norm :     0.0023427 Eh/α   predicted    -0.4597011E-04 ( -30.53%)
   displ. norm   :     0.1375225 α      lambda       -0.8159408E-04
   maximum displ.:     0.0893583 α      in ANC's #5, #4, #3, ...

........................................................................
.............................. CYCLE    6 ..............................
........................................................................
   1    -34.4066790 -0.344067E+02  0.369E-02    4.71       0.0  T
   2    -34.4066794 -0.402972E-06  0.225E-02    4.71       1.0  T
   3    -34.4066799 -0.438961E-06  0.518E-03    4.71       3.9  T
   4    -34.4066800 -0.949547E-07  0.407E-03    4.71       4.9  T
   5    -34.4066801 -0.128923E-06  0.151E-03    4.71      13.3  T
   6    -34.4066801 -0.213857E-07  0.493E-04    4.71      40.5  T
   7    -34.4066801 -0.584322E-09  0.251E-04    4.71      79.7  T
     SCC iter.                  ...        0 min,  0.016 sec
     gradient                   ...        0 min,  0.002 sec
 * total energy  :   -33.9092235 Eh     change       -0.6166301E-04 Eh
   gradient norm :     0.0031971 Eh/α   predicted    -0.4157126E-04 ( -32.58%)
   displ. norm   :     0.1570677 α      lambda       -0.7434026E-04
   maximum displ.:     0.0937172 α      in ANC's #5, #4, #3, ...

........................................................................
.............................. CYCLE    7 ..............................
........................................................................
   1    -34.4063869 -0.344064E+02  0.437E-02    4.71       0.0  T
   2    -34.4063874 -0.495313E-06  0.265E-02    4.71       1.0  T
   3    -34.4063879 -0.504572E-06  0.574E-03    4.71       3.5  T
   4    -34.4063880 -0.126640E-06  0.457E-03    4.71       4.4  T
   5    -34.4063882 -0.158163E-06  0.187E-03    4.71      10.7  T
   6    -34.4063882 -0.318296E-07  0.480E-04    4.71      41.7  T
   7    -34.4063882 -0.596529E-09  0.259E-04    4.71      77.3  T
     SCC iter.                  ...        0 min,  0.013 sec
     gradient                   ...        0 min,  0.002 sec
 * total energy  :   -33.9092842 Eh     change       -0.6070968E-04 Eh
   gradient norm :     0.0038961 Eh/α   predicted    -0.3809169E-04 ( -37.26%)
   displ. norm   :     0.2268628 α      lambda       -0.9548400E-04
   maximum displ.:     0.1275533 α      in ANC's #5, #4, #3, ...

........................................................................
.............................. CYCLE    8 ..............................
........................................................................
   1    -34.4062967 -0.344063E+02  0.657E-02    4.71       0.0  T
   2    -34.4062976 -0.924499E-06  0.396E-02    4.71       1.0  T
   3    -34.4062985 -0.908199E-06  0.796E-03    4.71       2.5  T
   4    -34.4062988 -0.275536E-06  0.637E-03    4.71       3.1  T
   5    -34.4062991 -0.329768E-06  0.219E-03    4.71       9.1  T
   6    -34.4062992 -0.389177E-07  0.651E-04    4.71      30.7  T
   7    -34.4062992 -0.154979E-08  0.338E-04    4.71      59.1  T
     SCC iter.                  ...        0 min,  0.013 sec
     gradient                   ...        0 min,  0.002 sec
 * total energy  :   -33.9093548 Eh     change       -0.7056262E-04 Eh
   gradient norm :     0.0036995 Eh/α   predicted    -0.5020120E-04 ( -28.86%)
   displ. norm   :     0.1867942 α      lambda       -0.5919953E-04
   maximum displ.:     0.0950953 α      in ANC's #4, #5, #3, ...

........................................................................
.............................. CYCLE    9 ..............................
........................................................................
   1    -34.4065899 -0.344066E+02  0.584E-02    4.72       0.0  T
   2    -34.4065904 -0.551037E-06  0.349E-02    4.72       1.0  T
   3    -34.4065909 -0.476185E-06  0.596E-03    4.72       3.4  T
   4    -34.4065911 -0.176663E-06  0.476E-03    4.72       4.2  T
   5    -34.4065912 -0.178106E-06  0.183E-03    4.72      10.9  T
   6    -34.4065913 -0.281472E-07  0.471E-04    4.72      42.5  T
   7    -34.4065913 -0.702663E-09  0.224E-04    4.72      89.1  T
     SCC iter.                  ...        0 min,  0.013 sec
     gradient                   ...        0 min,  0.002 sec
 * total energy  :   -33.9093955 Eh     change       -0.4074347E-04 Eh
   gradient norm :     0.0025969 Eh/α   predicted    -0.3063298E-04 ( -24.82%)
   displ. norm   :     0.1025483 α      lambda       -0.3211493E-04
   maximum displ.:     0.0596409 α      in ANC's #3, #4, #6, ...

........................................................................
.............................. CYCLE   10 ..............................
........................................................................
   1    -34.4070804 -0.344071E+02  0.381E-02    4.72       0.0  T
   2    -34.4070806 -0.171199E-06  0.225E-02    4.72       1.0  T
   3    -34.4070807 -0.789807E-07  0.243E-03    4.72       8.2  T
   4    -34.4070807 -0.308661E-07  0.187E-03    4.72      10.7  T
   5    -34.4070807 -0.187513E-07  0.127E-03    4.72      15.8  T
   6    -34.4070808 -0.136768E-07  0.380E-04    4.72      52.7  T
   7    -34.4070808 -0.903484E-09  0.174E-04    4.72     114.8  T
     SCC iter.                  ...        0 min,  0.013 sec
     gradient                   ...        0 min,  0.002 sec
 * total energy  :   -33.9094195 Eh     change       -0.2397896E-04 Eh
   gradient norm :     0.0013950 Eh/α   predicted    -0.1622866E-04 ( -32.32%)
   displ. norm   :     0.1440404 α      lambda       -0.2763267E-04
   maximum displ.:     0.0892246 α      in ANC's #3, #6, #1, ...

........................................................................
.............................. CYCLE   11 ..............................
........................................................................
   1    -34.4074616 -0.344075E+02  0.595E-02    4.72       0.0  T
   2    -34.4074619 -0.237213E-06  0.350E-02    4.72       1.0  T
   3    -34.4074620 -0.107922E-06  0.238E-03    4.72       8.4  T
   4    -34.4074620 -0.233955E-07  0.182E-03    4.72      11.0  T
   5    -34.4074620 -0.155439E-07  0.122E-03    4.72      16.4  T
   6    -34.4074620 -0.121405E-07  0.508E-04    4.72      39.3  T
   7    -34.4074620 -0.152872E-08  0.240E-04    4.72      83.4  T
     SCC iter.                  ...        0 min,  0.013 sec
     gradient                   ...        0 min,  0.002 sec
 * total energy  :   -33.9094462 Eh     change       -0.2669270E-04 Eh
   gradient norm :     0.0020104 Eh/α   predicted    -0.1394581E-04 ( -47.75%)
   displ. norm   :     0.0764460 α      lambda       -0.1860532E-04
   maximum displ.:     0.0452590 α      in ANC's #3, #1, #6, ...

........................................................................
.............................. CYCLE   12 ..............................
........................................................................
   1    -34.4073231 -0.344073E+02  0.329E-02    4.72       0.0  T
   2    -34.4073232 -0.494188E-07  0.193E-02    4.72       1.0  T
   3    -34.4073232 -0.334186E-07  0.125E-03    4.72      16.0  T
   4    -34.4073232 -0.470357E-08  0.926E-04    4.72      21.6  T
   5    -34.4073232 -0.493613E-08  0.556E-04    4.72      35.9  T
     SCC iter.                  ...        0 min,  0.009 sec
     gradient                   ...        0 min,  0.002 sec
 * total energy  :   -33.9094629 Eh     change       -0.1667191E-04 Eh
   gradient norm :     0.0019654 Eh/α   predicted    -0.9359160E-05 ( -43.86%)
   displ. norm   :     0.2733200 α      lambda       -0.4384034E-04
   maximum displ.:     0.1566420 α      in ANC's #3, #1, #6, ...

........................................................................
.............................. CYCLE   13 ..............................
........................................................................
   1    -34.4065657 -0.344066E+02  0.119E-01    4.72       0.0  T
   2    -34.4065664 -0.665991E-06  0.700E-02    4.72       1.0  T
   3    -34.4065668 -0.421518E-06  0.445E-03    4.72       4.5  T
   4    -34.4065668 -0.622210E-07  0.327E-03    4.72       6.1  T
   5    -34.4065669 -0.552142E-07  0.204E-03    4.72       9.8  T
   6    -34.4065669 -0.359180E-07  0.772E-04    4.72      25.9  T
   7    -34.4065669 -0.278569E-08  0.396E-04    4.72      50.5  T
     SCC iter.                  ...        0 min,  0.013 sec
     gradient                   ...        0 min,  0.002 sec
 * total energy  :   -33.9095029 Eh     change       -0.4004443E-04 Eh
   gradient norm :     0.0015473 Eh/α   predicted    -0.2265302E-04 ( -43.43%)
   displ. norm   :     0.1109884 α      lambda       -0.1208368E-04
   maximum displ.:     0.0617597 α      in ANC's #1, #3, #4, ...

........................................................................
.............................. CYCLE   14 ..............................
........................................................................
   1    -34.4069955 -0.344070E+02  0.486E-02    4.72       0.0  T
   2    -34.4069956 -0.104638E-06  0.286E-02    4.72       1.0  T
   3    -34.4069957 -0.780141E-07  0.208E-03    4.72       9.6  T
   4    -34.4069957 -0.164976E-07  0.164E-03    4.72      12.2  T
   5    -34.4069958 -0.172877E-07  0.762E-04    4.72      26.3  T
   6    -34.4069958 -0.482910E-08  0.337E-04    4.72      59.3  T
     SCC iter.                  ...        0 min,  0.011 sec
     gradient                   ...        0 min,  0.002 sec
 * total energy  :   -33.9095175 Eh     change       -0.1461630E-04 Eh
   gradient norm :     0.0009518 Eh/α   predicted    -0.6076132E-05 ( -58.43%)
   displ. norm   :     0.1454448 α      lambda       -0.1658454E-04
   maximum displ.:     0.0827836 α      in ANC's #1, #4, #3, ...

........................................................................
.............................. CYCLE   15 ..............................
........................................................................
   1    -34.4073495 -0.344073E+02  0.644E-02    4.72       0.0  T
   2    -34.4073497 -0.194166E-06  0.379E-02    4.72       1.0  T
   3    -34.4073498 -0.154638E-06  0.285E-03    4.72       7.0  T
   4    -34.4073498 -0.282928E-07  0.225E-03    4.72       8.9  T
   5    -34.4073499 -0.348341E-07  0.987E-04    4.72      20.3  T
   6    -34.4073499 -0.842834E-08  0.447E-04    4.72      44.8  T
     SCC iter.                  ...        0 min,  0.011 sec
     gradient                   ...        0 min,  0.002 sec
 * total energy  :   -33.9095377 Eh     change       -0.2012291E-04 Eh
   gradient norm :     0.0007689 Eh/α   predicted    -0.8371587E-05 ( -58.40%)
   displ. norm   :     0.1743032 α      lambda       -0.1824287E-04
   maximum displ.:     0.1055595 α      in ANC's #1, #4, #3, ...

........................................................................
.............................. CYCLE   16 ..............................
........................................................................
   1    -34.4075853 -0.344076E+02  0.758E-02    4.72       0.0  T
   2    -34.4075856 -0.294112E-06  0.447E-02    4.72       1.0  T
   3    -34.4075859 -0.260588E-06  0.369E-03    4.72       5.4  T
   4    -34.4075859 -0.438080E-07  0.285E-03    4.72       7.0  T
   5    -34.4075860 -0.622058E-07  0.107E-03    4.72      18.7  T
   6    -34.4075860 -0.831420E-08  0.544E-04    4.72      36.8  T
   7    -34.4075860 -0.105933E-08  0.140E-04    4.72     142.6  T
     SCC iter.                  ...        0 min,  0.013 sec
     gradient                   ...        0 min,  0.002 sec
 * total energy  :   -33.9095605 Eh     change       -0.2282441E-04 Eh
   gradient norm :     0.0012229 Eh/α   predicted    -0.9247936E-05 ( -59.48%)
   displ. norm   :     0.2143936 α      lambda       -0.2241303E-04
   maximum displ.:     0.1314146 α      in ANC's #1, #4, #3, ...

........................................................................
.............................. CYCLE   17 ..............................
........................................................................
   1    -34.4074911 -0.344075E+02  0.917E-02    4.72       0.0  T
   2    -34.4074915 -0.447020E-06  0.540E-02    4.72       1.0  T
   3    -34.4074919 -0.407091E-06  0.459E-03    4.72       4.4  T
   4    -34.4074920 -0.668363E-07  0.346E-03    4.72       5.8  T
   5    -34.4074921 -0.954528E-07  0.130E-03    4.72      15.4  T
   6    -34.4074921 -0.117289E-07  0.655E-04    4.72      30.5  T
   7    -34.4074921 -0.124089E-08  0.238E-04    4.72      84.0  T
     SCC iter.                  ...        0 min,  0.013 sec
     gradient                   ...        0 min,  0.002 sec
 * total energy  :   -33.9095892 Eh     change       -0.2872877E-04 Eh
   gradient norm :     0.0015591 Eh/α   predicted    -0.1144030E-04 ( -60.18%)
   displ. norm   :     0.2831801 α      lambda       -0.3182215E-04
   maximum displ.:     0.1800095 α      in ANC's #1, #4, #3, ...

........................................................................
.............................. CYCLE   18 ..............................
........................................................................
   1    -34.4073098 -0.344073E+02  0.115E-01    4.73       0.0  T
   2    -34.4073106 -0.863974E-06  0.676E-02    4.73       1.0  T
   3    -34.4073114 -0.790399E-06  0.649E-03    4.73       3.1  T
   4    -34.4073115 -0.132871E-06  0.493E-03    4.73       4.1  T
   5    -34.4073117 -0.197453E-06  0.181E-03    4.73      11.1  T
   6    -34.4073118 -0.198321E-07  0.870E-04    4.73      23.0  T
   7    -34.4073118 -0.258762E-08  0.277E-04    4.73      72.1  T
     SCC iter.                  ...        0 min,  0.013 sec
     gradient                   ...        0 min,  0.002 sec
 * total energy  :   -33.9096274 Eh     change       -0.3818086E-04 Eh
   gradient norm :     0.0017385 Eh/α   predicted    -0.1648192E-04 ( -56.83%)
   displ. norm   :     0.3469564 α      lambda       -0.3365524E-04
   maximum displ.:     0.2240818 α      in ANC's #1, #4, #3, ...

........................................................................
.............................. CYCLE   19 ..............................
........................................................................
   1    -34.4066371 -0.344066E+02  0.139E-01    4.72       0.0  T
   2    -34.4066384 -0.132762E-05  0.818E-02    4.72       1.0  T
   3    -34.4066397 -0.123990E-05  0.814E-03    4.72       2.5  T
   4    -34.4066399 -0.207399E-06  0.611E-03    4.72       3.3  T
   5    -34.4066402 -0.323891E-06  0.209E-03    4.72       9.6  T
   6    -34.4066402 -0.238080E-07  0.941E-04    4.72      21.3  T
   7    -34.4066402 -0.289562E-08  0.207E-04    4.72      96.8  T
     SCC iter.                  ...        0 min,  0.013 sec
     gradient                   ...        0 min,  0.002 sec
 * total energy  :   -33.9096622 Eh     change       -0.3477652E-04 Eh
   gradient norm :     0.0020927 Eh/α   predicted    -0.1773011E-04 ( -49.02%)
   displ. norm   :     0.1673153 α      lambda       -0.2330868E-04
   maximum displ.:     0.1079743 α      in ANC's #1, #4, #5, ...

........................................................................
.............................. CYCLE   20 ..............................
........................................................................
   1    -34.4071827 -0.344072E+02  0.629E-02    4.73       0.0  T
   2    -34.4071831 -0.342951E-06  0.371E-02    4.73       1.0  T
   3    -34.4071834 -0.292732E-06  0.408E-03    4.73       4.9  T
   4    -34.4071834 -0.588705E-07  0.321E-03    4.73       6.2  T
   5    -34.4071835 -0.808649E-07  0.113E-03    4.73      17.6  T
   6    -34.4071835 -0.743476E-08  0.576E-04    4.73      34.7  T
   7    -34.4071835 -0.123521E-08  0.176E-04    4.73     113.7  T
     SCC iter.                  ...        0 min,  0.013 sec
     gradient                   ...        0 min,  0.002 sec
 * total energy  :   -33.9096781 Eh     change       -0.1594120E-04 Eh
   gradient norm :     0.0012819 Eh/α   predicted    -0.1198467E-04 ( -24.82%)
   displ. norm   :     0.2129173 α      lambda       -0.1294099E-04
   maximum displ.:     0.1328991 α      in ANC's #1, #4, #3, ...
 * RMSD in coord.:     0.5397036 α      energy gain  -0.5988751E-02 Eh

generating ANC from model Hessian ...
Using Lindh-Hessian (1995)
 Shifting diagonal of input Hessian by    9.9238740715337278E-003
 Lowest  eigenvalues of input Hessian
    0.000000    0.000000    0.000000    0.000000    0.000000    0.000000
    0.010000    0.010496    0.011262    0.011516    0.012535    0.015796
    0.017036    0.021045    0.024836    0.025322    0.027661    0.030112
 Highest eigenvalues
    1.469827    1.583062    1.612229    1.898107    2.001247    2.026439


........................................................................
.............................. CYCLE   21 ..............................
........................................................................
   1    -34.4070268 -0.344070E+02  0.847E-02    4.73       0.0  T
   2    -34.4070273 -0.485804E-06  0.499E-02    4.73       1.0  T
   3    -34.4070277 -0.406988E-06  0.454E-03    4.73       4.4  T
   4    -34.4070278 -0.633322E-07  0.344E-03    4.73       5.8  T
   5    -34.4070279 -0.989309E-07  0.132E-03    4.73      15.2  T
   6    -34.4070279 -0.871634E-08  0.635E-04    4.73      31.5  T
   7    -34.4070279 -0.208829E-08  0.180E-04    4.73     111.3  T
     SCC iter.                  ...        0 min,  0.016 sec
     gradient                   ...        0 min,  0.002 sec
 * total energy  :   -33.9096875 Eh     change       -0.9391995E-05 Eh
   gradient norm :     0.0012785 Eh/α   predicted     0.0000000E+00 (-100.00%)
   displ. norm   :     0.0228937 α      lambda       -0.6881294E-05
   maximum displ.:     0.0127676 α      in ANC's #4, #9, #2, ...

........................................................................
.............................. CYCLE   22 ..............................
........................................................................
   1    -34.4078074 -0.344078E+02  0.869E-03    4.73       0.0  T
   2    -34.4078074 -0.211636E-07  0.523E-03    4.73       3.8  T
   3    -34.4078074 -0.656239E-08  0.103E-03    4.73      19.4  T
   4    -34.4078074 -0.914618E-08  0.709E-04    4.73      28.2  T
   5    -34.4078074 -0.251720E-08  0.407E-04    4.73      49.2  T
     SCC iter.                  ...        0 min,  0.011 sec
     gradient                   ...        0 min,  0.002 sec
 * total energy  :   -33.9096940 Eh     change       -0.6535601E-05 Eh
   gradient norm :     0.0003910 Eh/α   predicted    -0.3445747E-05 ( -47.28%)
   displ. norm   :     0.0358152 α      lambda       -0.4645847E-05
   maximum displ.:     0.0221748 α      in ANC's #4, #9, #2, ...

........................................................................
.............................. CYCLE   23 ..............................
........................................................................
   1    -34.4080499 -0.344080E+02  0.876E-03    4.73       0.0  T
   2    -34.4080499 -0.199251E-07  0.524E-03    4.73       3.8  T
   3    -34.4080499 -0.126862E-07  0.948E-04    4.73      21.1  T
   4    -34.4080499 -0.409185E-08  0.734E-04    4.73      27.2  T
     SCC iter.                  ...        0 min,  0.009 sec
     gradient                   ...        0 min,  0.002 sec
 * total energy  :   -33.9096991 Eh     change       -0.5056859E-05 Eh
   gradient norm :     0.0006375 Eh/α   predicted    -0.2329477E-05 ( -53.93%)
   displ. norm   :     0.0493640 α      lambda       -0.4319909E-05
   maximum displ.:     0.0301344 α      in ANC's #4, #2, #9, ...

........................................................................
.............................. CYCLE   24 ..............................
........................................................................
   1    -34.4078543 -0.344079E+02  0.121E-02    4.73       0.0  T
   2    -34.4078543 -0.174029E-07  0.716E-03    4.73       2.8  T
   3    -34.4078543 -0.916980E-08  0.818E-04    4.73      24.4  T
   4    -34.4078543 -0.400777E-08  0.619E-04    4.73      32.3  T
     SCC iter.                  ...        0 min,  0.009 sec
     gradient                   ...        0 min,  0.002 sec
 * total energy  :   -33.9097036 Eh     change       -0.4477427E-05 Eh
   gradient norm :     0.0005085 Eh/α   predicted    -0.2162465E-05 ( -51.70%)
   displ. norm   :     0.0421292 α      lambda       -0.2424551E-05
   maximum displ.:     0.0250450 α      in ANC's #4, #2, #5, ...

   *** GEOMETRY OPTIMIZATION CONVERGED AFTER 24 ITERATIONS ***

------------------------------------------------------------------------
 total energy gain   :        -0.0060142 Eh       -3.7740 kcal/mol
 total RMSD          :         0.5425977 a0        0.2871 Å
 total power (kW/mol):        -0.6579298 (step)  -35.3445 (real)
------------------------------------------------------------------------

 ANCopt (total)                0 d,  0 h,  0 min,  0.447 sec
 optimizer setup                ...        0 min,  0.000 sec (  0.024%)
 model hessian                  ...        0 min,  0.014 sec (  3.098%)
 ANC generation                 ...        0 min,  0.005 sec (  1.022%)
 coordinate transformation      ...        0 min,  0.001 sec (  0.128%)
 single point calculation       ...        0 min,  0.419 sec ( 93.890%)
 optimization log               ...        0 min,  0.002 sec (  0.548%)
 hessian update                 ...        0 min,  0.001 sec (  0.224%)
 rational function              ...        0 min,  0.002 sec (  0.476%)

================
 final structure:
================
25
 xtb: 6.5.1 (fef0646)
N            1.10923621541590       -0.47117565091107       -0.34818791288651
C            2.57478323503743       -0.34083379370388       -0.21831682988341
C            3.04001891228276        0.95743310971595       -0.86471420404500
C            4.53215857778860        1.20240874881269       -0.61422171845263
C            4.96436479345883        2.49536322415981       -1.24528990684565
C            4.69178347238310        3.70501477151120       -0.61730878679833
C            5.05489455597825        4.90343476882223       -1.20435107039448
C            5.69689651956912        4.90905963186292       -2.43178054308449
C            5.97168373021167        3.71011008900507       -3.06645226588244
C            5.60524584793541        2.51251499745813       -2.47683451194070
Cl          -0.22185111784780        1.92699970755137        1.00990318566691
H            0.76441005087854       -1.32088030345319        0.10375365395941
H            0.82845430325284       -0.46148181158989       -1.33158297546541
H            0.64119456250094        0.34877893978922        0.11539411622212
H            3.06162856077581       -1.19567469956968       -0.68945242896758
H            2.82620013105170       -0.32453767684169        0.84202305738863
H            2.46108411262616        1.78373781945058       -0.44772477244585
H            2.86322351460875        0.93224090753631       -1.94087144441028
H            5.11249247504312        0.37790994505542       -1.03023135637589
H            4.71239885200966        1.24554975855354        0.46114947763886
H            4.18922835817238        3.70741525970188        0.33973894817929
H            4.83622898416689        5.83605209857822       -0.70439509044786
H            5.98085895327771        5.84497859715068       -2.89004575118591
H            6.47261280833815        3.70952239798186       -4.02331258772520
H            5.82490959108686        1.58135916336664       -2.97812828181638

 Bond Distances (Angstroems)
 ---------------------------
N1-C2=1.4771         N1-H12=1.0223        N1-H13=1.0227        N1-H14=1.0518        C2-N1=1.4771         C2-C3=1.5231         
C2-H15=1.0908        C2-H16=1.0899        C3-C2=1.5231         C3-C4=1.5327         C3-H17=1.0917        C3-H18=1.0909        
C4-C3=1.5327         C4-C5=1.5023         C4-H19=1.0907        C4-H20=1.0912        C5-C4=1.5023         C5-C6=1.3899         
C5-C10=1.3884        C6-C5=1.3899         C6-C7=1.3830         C6-H21=1.0810        C7-C6=1.3830         C7-C8=1.3852         
C7-H22=1.0805        C8-C7=1.3852         C8-C9=1.3841         C8-H23=1.0801        C9-C8=1.3841         C9-C10=1.3843        
C9-H24=1.0801        C10-C5=1.3884        C10-C9=1.3843        C10-H25=1.0801       H12-N1=1.0223        H13-N1=1.0227        
H14-N1=1.0518        H15-C2=1.0908        H16-C2=1.0899        H17-C3=1.0917        H18-C3=1.0909        H19-C4=1.0907        
H20-C4=1.0912        H21-C6=1.0810        H22-C7=1.0805        H23-C8=1.0801        H24-C9=1.0801        H25-C10=1.0801       
 C  H  Rav=1.0861 sigma=0.0053  Rmin=1.0801  Rmax=1.0917    11
 C  C  Rav=1.4303 sigma=0.0634  Rmin=1.3830  Rmax=1.5327     9
 N  H  Rav=1.0323 sigma=0.0138  Rmin=1.0223  Rmax=1.0518     3
 N  C  Rav=1.4771 sigma=0.0000  Rmin=1.4771  Rmax=1.4771     1

 selected bond angles (degree)
 --------------------
H12-N1-C2=111.66               H13-N1-C2=110.86               H13-N1-H12=109.90              H14-N1-C2=109.51               
H14-N1-H12=107.64              H14-N1-H13=107.11              C3-C2-N1=109.94                H15-C2-N1=109.62               
H15-C2-C3=110.39               H16-C2-N1=108.41               H16-C2-C3=109.25               H16-C2-H15=109.21              
C4-C3-C2=111.36                H17-C3-C2=108.73               H17-C3-C4=109.44               H18-C3-C2=110.46               
H18-C3-C4=108.83               H18-C3-H17=107.96              C5-C4-C3=110.43                H19-C4-C3=109.56               
H19-C4-C5=109.71               H20-C4-C3=109.16               H20-C4-C5=109.42               H20-C4-H19=108.53              
C6-C5-C4=120.19                C10-C5-C4=121.07               C10-C5-C6=118.72               C7-C6-C5=120.72                
H21-C6-C5=119.55               H21-C6-C7=119.73               C8-C7-C6=120.09                H22-C7-C6=119.89               
H22-C7-C8=120.02               C9-C8-C7=119.66                H23-C8-C7=120.09               H23-C8-C9=120.26               
C10-C9-C8=120.10               H24-C9-C8=119.92               H24-C9-C10=119.98              C9-C10-C5=120.71               
H25-C10-C5=119.66              H25-C10-C9=119.63              

 selected dihedral angles (degree)
 ---------------------------------
C3-C2-N1-H12=181.81           C3-C2-N1-H13= 58.90           C3-C2-N1-H14=300.93           H15-C2-N1-H12= 60.29          
H15-C2-N1-H13=297.39          H15-C2-N1-H14=179.41          H16-C2-N1-H12=301.17          H16-C2-N1-H13=178.26          
H16-C2-N1-H14= 60.29          C4-C3-C2-N1=173.71            C4-C3-C2-H15=294.76           C4-C3-C2-H16= 54.86           
H17-C3-C2-N1= 53.04           H17-C3-C2-H15=174.09          H17-C3-C2-H16=294.20          H18-C3-C2-N1=294.75           
H18-C3-C2-H15= 55.80          H18-C3-C2-H16=175.90          C5-C4-C3-C2=180.71            C5-C4-C3-H17=300.96           
C5-C4-C3-H18= 58.72           H19-C4-C3-C2= 59.76           H19-C4-C3-H17=180.01          H19-C4-C3-H18=297.77          
H20-C4-C3-C2=301.04           H20-C4-C3-H17= 61.28          H20-C4-C3-H18=179.05          C6-C5-C4-C3= 79.08            
C6-C5-C4-H19=199.94           C6-C5-C4-H20=318.91           C10-C5-C4-C3=260.95           C10-C5-C4-H19= 21.81          
C10-C5-C4-H20=140.78          C7-C6-C5-C4=181.63            C7-C6-C5-C10=359.80           H21-C6-C5-C4=  1.54           
H21-C6-C5-C10=179.72          C8-C7-C6-C5=  0.04            C8-C7-C6-H21=180.12           H22-C7-C6-C5=179.99           
H22-C7-C6-H21=  0.07          C9-C8-C7-C6=  0.03            C9-C8-C7-H22=180.09           H23-C8-C7-C6=180.03           
H23-C8-C7-H22=  0.08          C10-C9-C8-C7=  0.05           C10-C9-C8-H23=180.06          H24-C9-C8-C7=180.04           
H24-C9-C8-H23=  0.05          C9-C10-C5-C4=178.44           C9-C10-C5-C6=  0.29           H25-C10-C5-C4=358.13          
H25-C10-C5-C6=179.97          C5-C10-C9-C8=359.79           C5-C10-C9-H24=179.80          H25-C10-C9-C8=180.10          
H25-C10-C9-H24=  0.11         

 CMA Distance (Angstroems)
 ---------------------------
R(CMA):  4.9847
           -------------------------------------------------
          |                Final Singlepoint                |
           -------------------------------------------------

          ...................................................
          :                      SETUP                      :
          :.................................................:
          :  # basis functions                  64          :
          :  # atomic orbitals                  63          :
          :  # shells                           37          :
          :  # electrons                        62          :
          :  max. iterations                   250          :
          :  Hamiltonian                  GFN2-xTB          :
          :  restarted?                      false          :
          :  GBSA solvation                   true          :
          :  PC potential                    false          :
          :  electronic temp.          300.0000000     K    :
          :  accuracy                    1.0000000          :
          :  -> integral cutoff          0.2500000E+02      :
          :  -> integral neglect         0.1000000E-07      :
          :  -> SCF convergence          0.1000000E-05 Eh   :
          :  -> wf. convergence          0.1000000E-03 e    :
          :  Broyden damping             0.4000000          :
          ...................................................

 iter      E             dE          RMSdq      gap      omega  full diag
   1    -34.4078543 -0.344079E+02  0.347E-04    4.73       0.0  T
   2    -34.4078543 -0.420840E-09  0.280E-04    4.73      71.5  T
   3    -34.4078543 -0.234607E-09  0.222E-04    4.73      90.2  T

   *** convergence criteria satisfied after 3 iterations ***

         #    Occupation            Energy/Eh            Energy/eV
      -------------------------------------------------------------
         1        2.0000           -1.0060864             -27.3770
       ...           ...                  ...                  ...
        25        2.0000           -0.4161914             -11.3251
        26        2.0000           -0.4126899             -11.2299
        27        2.0000           -0.4026182             -10.9558
        28        2.0000           -0.4001701             -10.8892
        29        2.0000           -0.3998625             -10.8808
        30        2.0000           -0.3971654             -10.8074
        31        2.0000           -0.3897591             -10.6059 (HOMO)
        32                         -0.2159600              -5.8766 (LUMO)
        33                         -0.2155007              -5.8641
        34                         -0.0877899              -2.3889
        35                         -0.0257502              -0.7007
        36                          0.0723986               1.9701
       ...                                ...                  ...
        63                          0.6708480              18.2547
      -------------------------------------------------------------
                  HL-Gap            0.1737991 Eh            4.7293 eV
             Fermi-level           -0.3028596 Eh           -8.2412 eV

 SCC (total)                   0 d,  0 h,  0 min,  0.011 sec
 SCC setup                      ...        0 min,  0.000 sec (  2.151%)
 Dispersion                     ...        0 min,  0.000 sec (  2.569%)
 classical contributions        ...        0 min,  0.000 sec (  0.349%)
 integral evaluation            ...        0 min,  0.001 sec (  9.277%)
 iterations                     ...        0 min,  0.007 sec ( 60.990%)
 molecular gradient             ...        0 min,  0.002 sec ( 22.133%)
 printout                       ...        0 min,  0.000 sec (  0.984%)

         :::::::::::::::::::::::::::::::::::::::::::::::::::::
         ::                     SUMMARY                     ::
         :::::::::::::::::::::::::::::::::::::::::::::::::::::
         :: total energy             -33.909703575368 Eh    ::
         :: total w/o Gsasa/hb       -33.901317925312 Eh    ::
         :: gradient norm              0.000508228371 Eh/a0 ::
         :: HOMO-LUMO gap              4.729314539713 eV    ::
         ::.................................................::
         :: SCC energy               -34.407854314489 Eh    ::
         :: -> isotropic ES            0.121566104827 Eh    ::
         :: -> anisotropic ES         -0.027404020794 Eh    ::
         :: -> anisotropic XC          0.010528322716 Eh    ::
         :: -> dispersion             -0.018936390113 Eh    ::
         :: -> Gsolv                  -0.074807591601 Eh    ::
         ::    -> Gelec               -0.066421941545 Eh    ::
         ::    -> Gsasa               -0.001755217801 Eh    ::
         ::    -> Ghb                 -0.007711191953 Eh    ::
         ::    -> Gshift               0.001080759698 Eh    ::
         :: repulsion energy           0.498095400301 Eh    ::
         :: add. restraining           0.000000000000 Eh    ::
         :: total charge               0.000000000000 e     ::
         :::::::::::::::::::::::::::::::::::::::::::::::::::::

           -------------------------------------------------
          |                Property Printout                |
           -------------------------------------------------

    * Orbital Energies and Occupations

         #    Occupation            Energy/Eh            Energy/eV
      -------------------------------------------------------------
         1        2.0000           -1.0060864             -27.3770
       ...           ...                  ...                  ...
        19        2.0000           -0.4713937             -12.8273
        20        2.0000           -0.4704946             -12.8028
        21        2.0000           -0.4578127             -12.4577
        22        2.0000           -0.4534597             -12.3393
        23        2.0000           -0.4479718             -12.1899
        24        2.0000           -0.4269047             -11.6167
        25        2.0000           -0.4161914             -11.3251
        26        2.0000           -0.4126899             -11.2299
        27        2.0000           -0.4026182             -10.9558
        28        2.0000           -0.4001701             -10.8892
        29        2.0000           -0.3998625             -10.8808
        30        2.0000           -0.3971654             -10.8074
        31        2.0000           -0.3897591             -10.6059 (HOMO)
        32                         -0.2159600              -5.8766 (LUMO)
        33                         -0.2155007              -5.8641
        34                         -0.0877899              -2.3889
        35                         -0.0257502              -0.7007
        36                          0.0723986               1.9701
        37                          0.0923544               2.5131
        38                          0.1000747               2.7232
        39                          0.1168744               3.1803
        40                          0.1176029               3.2001
        41                          0.1195671               3.2536
        42                          0.1199240               3.2633
       ...                                ...                  ...
        63                          0.6708480              18.2547
      -------------------------------------------------------------
                  HL-Gap            0.1737991 Eh            4.7293 eV
             Fermi-level           -0.3028596 Eh           -8.2412 eV

     #   Z          covCN         q      C6AA      α(0)
     1   7 N        3.484    -0.170    24.669     7.377
     2   6 C        3.733    -0.026    21.131     6.561
     3   6 C        3.805    -0.072    21.876     6.658
     4   6 C        3.809    -0.074    21.915     6.664
     5   6 C        2.971     0.014    27.704     8.634
     6   6 C        2.925    -0.041    29.014     8.833
     7   6 C        2.919    -0.036    28.893     8.815
     8   6 C        2.920    -0.039    28.981     8.828
     9   6 C        2.919    -0.037    28.927     8.820
    10   6 C        2.925    -0.045    29.118     8.849
    11  17 Cl       0.047    -0.948   124.909    17.009
    12   1 H        0.859     0.305     0.699     1.310
    13   1 H        0.859     0.297     0.722     1.331
    14   1 H        0.904     0.293     0.731     1.337
    15   1 H        0.924     0.106     1.728     2.056
    16   1 H        0.925     0.097     1.811     2.105
    17   1 H        0.924     0.056     2.245     2.343
    18   1 H        0.924     0.060     2.197     2.318
    19   1 H        0.924     0.057     2.229     2.335
    20   1 H        0.924     0.050     2.319     2.382
    21   1 H        0.926     0.028     2.614     2.528
    22   1 H        0.926     0.022     2.701     2.570
    23   1 H        0.926     0.026     2.643     2.542
    24   1 H        0.926     0.033     2.541     2.493
    25   1 H        0.926     0.044     2.398     2.422

 Mol. C6AA /au·bohr⁶  :       6628.486409
 Mol. C8AA /au·bohr⁸  :     168137.188699
 Mol. α(0) /au        :        127.119444


Wiberg/Mayer (AO) data.
largest (>0.10) Wiberg bond orders for each atom

 ---------------------------------------------------------------------------
     #   Z sym  total        # sym  WBO       # sym  WBO       # sym  WBO
 ---------------------------------------------------------------------------
     1   7 N    3.644 --     2 C    0.968    13 H    0.897    12 H    0.893
                            14 H    0.834
     2   6 C    3.930 --     3 C    1.009    16 H    0.968     1 N    0.968
                            15 H    0.967
     3   6 C    3.992 --     2 C    1.009     4 C    0.988    18 H    0.975
                            17 H    0.973
     4   6 C    3.995 --     5 C    1.012     3 C    0.988    19 H    0.973
                            20 H    0.970
     5   6 C    3.988 --    10 C    1.416     6 C    1.409     4 C    1.012
                             8 C    0.110
     6   6 C    3.992 --     7 C    1.450     5 C    1.409    21 H    0.970
                             9 C    0.112
     7   6 C    3.993 --     6 C    1.450     8 C    1.435    22 H    0.972
                            10 C    0.110
     8   6 C    3.992 --     9 C    1.441     7 C    1.435    23 H    0.972
                             5 C    0.110
     9   6 C    3.992 --    10 C    1.442     8 C    1.441    24 H    0.971
                             6 C    0.112
    10   6 C    3.990 --     9 C    1.442     5 C    1.416    25 H    0.968
                             7 C    0.110
    11  17 Cl   0.101
    12   1 H    0.907 --     1 N    0.893
    13   1 H    0.912 --     1 N    0.897
    14   1 H    0.914 --     1 N    0.834
    15   1 H    0.989 --     2 C    0.967
    16   1 H    0.991 --     2 C    0.968
    17   1 H    0.997 --     3 C    0.973
    18   1 H    0.996 --     3 C    0.975
    19   1 H    0.996 --     4 C    0.973
    20   1 H    0.997 --     4 C    0.970
    21   1 H    0.999 --     6 C    0.970
    22   1 H    0.999 --     7 C    0.972
    23   1 H    0.999 --     8 C    0.972
    24   1 H    0.999 --     9 C    0.971
    25   1 H    0.998 --    10 C    0.968
 ---------------------------------------------------------------------------

Topologies differ in total number of bonds
Writing topology from bond orders to xtbtopo.mol

molecular dipole:
                 x           y           z       tot (Debye)
 q only:        2.553      -4.560      -2.374
   full:        2.059      -3.925      -2.054      12.415
molecular quadrupole (traceless):
                xx          xy          yy          xz          yz          zz
 q only:       13.929      -5.056     -15.699      -0.966      -7.783       1.770
  q+dip:        5.670      -5.865      -8.712      -3.889      -4.160       3.041
   full:        8.124      -5.578     -10.037      -2.196      -4.625       1.913

           -------------------------------------------------
          |                Geometry Summary                 |
           -------------------------------------------------

      molecular mass/u    :      171.6674344
   center of mass at/Å    :        3.2893969       2.1720527      -0.7943684
  moments of inertia/u·Å² :        0.3506847E+03   0.1402509E+04   0.1655272E+04
rotational constants/cm⁻¹ :        0.4807062E-01   0.1201962E-01   0.1018421E-01

 * 23 selected distances

     #   Z          #   Z                                           value/Å
     1   7 N        2   6 C                                       1.4770525
     2   6 C        3   6 C                                       1.5230795
     3   6 C        4   6 C                                       1.5327233 (max)
     5   6 C        6   6 C                                       1.3899346
     6   6 C        7   6 C                                       1.3829964
     7   6 C        8   6 C                                       1.3852009
     8   6 C        9   6 C                                       1.3841230
     5   6 C       10   6 C                                       1.3884254
     9   6 C       10   6 C                                       1.3842544
     1   7 N       12   1 H                                       1.0223280 (min)
     1   7 N       13   1 H                                       1.0227407
     1   7 N       14   1 H                                       1.0518066
     2   6 C       15   1 H                                       1.0907522
     2   6 C       16   1 H                                       1.0898610
     3   6 C       17   1 H                                       1.0917076
     3   6 C       18   1 H                                       1.0908739
     4   6 C       19   1 H                                       1.0907108
     4   6 C       20   1 H                                       1.0912246
     6   6 C       21   1 H                                       1.0809755
     7   6 C       22   1 H                                       1.0805304
     8   6 C       23   1 H                                       1.0800862
     9   6 C       24   1 H                                       1.0800519
    10   6 C       25   1 H                                       1.0800921

 * 4 distinct bonds (by element types)

   Z      Z             #   av. dist./Å        max./Å        min./Å
   1 H    6 C          11     1.0860787     1.0917076     1.0800519
   6 C    6 C           8     1.4213422     1.5327233     1.3829964
   1 H    7 N           3     1.0322917     1.0518066     1.0223280
   6 C    7 N           1     1.4770525     1.4770525     1.4770525


optimized geometry written to: xtbopt.xyz


           -------------------------------------------------
          | TOTAL ENERGY              -33.909703575368 Eh   |
          | GRADIENT NORM               0.000508228371 Eh/α |
          | HOMO-LUMO GAP               4.729314539713 eV   |
           -------------------------------------------------

------------------------------------------------------------------------
 * finished run on 2023/01/24 at 14:57:48.286     
------------------------------------------------------------------------
 total:
 * wall-time:     0 d,  0 h,  0 min,  0.528 sec
 *  cpu-time:     0 d,  0 h,  0 min, 50.738 sec
 * ratio c/w:    96.173 speedup
 SCF:
 * wall-time:     0 d,  0 h,  0 min,  0.053 sec
 *  cpu-time:     0 d,  0 h,  0 min,  7.250 sec
 * ratio c/w:   137.841 speedup
 ANC optimizer:
 * wall-time:     0 d,  0 h,  0 min,  0.459 sec
 *  cpu-time:     0 d,  0 h,  0 min, 41.513 sec
 * ratio c/w:    90.399 speedup

