25
 energy: -33.909703575368 gnorm: 0.000508228371 xtb: 6.5.1 (fef0646)
N            1.10923621541590       -0.47117565091107       -0.34818791288651
C            2.57478323503743       -0.34083379370388       -0.21831682988341
C            3.04001891228276        0.95743310971595       -0.86471420404500
C            4.53215857778860        1.20240874881269       -0.61422171845263
C            4.96436479345883        2.49536322415981       -1.24528990684565
C            4.69178347238310        3.70501477151120       -0.61730878679833
C            5.05489455597825        4.90343476882223       -1.20435107039448
C            5.69689651956912        4.90905963186292       -2.43178054308449
C            5.97168373021167        3.71011008900507       -3.06645226588244
C            5.60524584793541        2.51251499745813       -2.47683451194070
Cl          -0.22185111784780        1.92699970755137        1.00990318566691
H            0.76441005087854       -1.32088030345319        0.10375365395941
H            0.82845430325284       -0.46148181158989       -1.33158297546541
H            0.64119456250094        0.34877893978922        0.11539411622212
H            3.06162856077581       -1.19567469956968       -0.68945242896758
H            2.82620013105170       -0.32453767684169        0.84202305738863
H            2.46108411262616        1.78373781945058       -0.44772477244585
H            2.86322351460875        0.93224090753631       -1.94087144441028
H            5.11249247504312        0.37790994505542       -1.03023135637589
H            4.71239885200966        1.24554975855354        0.46114947763886
H            4.18922835817238        3.70741525970188        0.33973894817929
H            4.83622898416689        5.83605209857822       -0.70439509044786
H            5.98085895327771        5.84497859715068       -2.89004575118591
H            6.47261280833815        3.70952239798186       -4.02331258772520
H            5.82490959108686        1.58135916336664       -2.97812828181638
