      -----------------------------------------------------------      
     |                   =====================                   |     
     |                           x T B                           |     
     |                   =====================                   |     
     |                         S. Grimme                         |     
     |          Mulliken Center for Theoretical Chemistry        |     
     |                    University of Bonn                     |     
      -----------------------------------------------------------      

   * xtb version 6.5.1 (fef0646) compiled by 'conda@b96dff2e9fd6' on 2023-01-04

   xtb is free software: you can redistribute it and/or modify it under
   the terms of the GNU Lesser General Public License as published by
   the Free Software Foundation, either version 3 of the License, or
   (at your option) any later version.
   
   xtb is distributed in the hope that it will be useful,
   but WITHOUT ANY WARRANTY; without even the implied warranty of
   MERCHANTABILITY or FITNESS FOR A PARTICULAR PURPOSE.  See the
   GNU Lesser General Public License for more details.
   
   Cite this work as:
   * C. Bannwarth, E. Caldeweyher, S. Ehlert, A. Hansen, P. Pracht,
     J. Seibert, S. Spicher, S. Grimme, WIREs Comput. Mol. Sci., 2020, 11,
     e01493. DOI: 10.1002/wcms.1493
   
   for GFN2-xTB:
   * C. Bannwarth, S. Ehlert and S. Grimme., J. Chem. Theory Comput., 2019,
     15, 1652-1671. DOI: 10.1021/acs.jctc.8b01176
   for GFN1-xTB:
   * S. Grimme, C. Bannwarth, P. Shushkov, J. Chem. Theory Comput., 2017,
     13, 1989-2009. DOI: 10.1021/acs.jctc.7b00118
   for GFN0-xTB:
   * P. Pracht, E. Caldeweyher, S. Ehlert, S. Grimme, ChemRxiv, 2019, preprint.
     DOI: 10.26434/chemrxiv.8326202.v1
   for GFN-FF:
   * S. Spicher and S. Grimme, Angew. Chem. Int. Ed., 2020, 59, 15665-15673.
     DOI: 10.1002/anie.202004239
   
   for ALPB and GBSA implicit solvation:
   * S. Ehlert, M. Stahn, S. Spicher, S. Grimme, J. Chem. Theory Comput.,
     2021, 17, 4250-4261. DOI: 10.1021/acs.jctc.1c00471
   
   for DFT-D4:
   * E. Caldeweyher, C. Bannwarth and S. Grimme, J. Chem. Phys., 2017,
     147, 034112. DOI: 10.1063/1.4993215
   * E. Caldeweyher, S. Ehlert, A. Hansen, H. Neugebauer, S. Spicher,
     C. Bannwarth and S. Grimme, J. Chem. Phys., 2019, 150, 154122.
     DOI: 10.1063/1.5090222
   * E. Caldeweyher, J.-M. Mewes, S. Ehlert and S. Grimme, Phys. Chem. Chem. Phys.
     2020, 22, 8499-8512. DOI: 10.1039/D0CP00502A
   
   for sTDA-xTB:
   * S. Grimme and C. Bannwarth, J. Chem. Phys., 2016, 145, 054103.
     DOI: 10.1063/1.4959605
   
   in the mass-spec context:
   * V. Asgeirsson, C. Bauer and S. Grimme, Chem. Sci., 2017, 8, 4879.
     DOI: 10.1039/c7sc00601b
   * J. Koopman and S. Grimme, ACS Omega 2019, 4, 12, 15120-15133.
     DOI: 10.1021/acsomega.9b02011
   
   for metadynamics refer to:
   * S. Grimme, J. Chem. Theory Comput., 2019, 155, 2847-2862
     DOI: 10.1021/acs.jctc.9b00143
   
   for SPH calculations refer to:
   * S. Spicher and S. Grimme, J. Chem. Theory Comput., 2021, 17, 1701-1714
     DOI: 10.1021/acs.jctc.0c01306
   
   with help from (in alphabetical order)
   P. Atkinson, C. Bannwarth, F. Bohle, G. Brandenburg, E. Caldeweyher
   M. Checinski, S. Dohm, S. Ehlert, S. Ehrlich, I. Gerasimov, C. Hölzer
   A. Katbashev, J. Koopman, C. Lavigne, S. Lehtola, F. März, M. Müller,
   F. Musil, H. Neugebauer, J. Pisarek, C. Plett, P. Pracht, F. Pultar,
   J. Seibert, P. Shushkov, S. Spicher, M. Stahn, M. Steiner, T. Strunk,
   J. Stückrath, T. Rose, and J. Unsleber
   
 * started run on 2023/01/24 at 14:56:04.018     

           -------------------------------------------------
          |                Calculation Setup                |
           -------------------------------------------------

          program call               : xtb init.xyz --opt -c 1 -u 0 -P 16 --alpb water
          hostname                   : gpg-woodward
          coordinate file            : init.xyz
          omp threads                :                    16

   ID    Z sym.   atoms
    1    7 N      1, 10, 11
    2    6 C      2-9, 12-17
    3    1 H      18-33

           -------------------------------------------------
          |                 G F N 2 - x T B                 |
           -------------------------------------------------

        Reference                      10.1021/acs.jctc.8b01176
      * Hamiltonian:
        H0-scaling (s, p, d)           1.850000    2.230000    2.230000
        zeta-weighting                 0.500000
      * Dispersion:
        s8                             2.700000
        a1                             0.520000
        a2                             5.000000
        s9                             5.000000
      * Repulsion:
        kExp                           1.500000    1.000000
        rExp                           1.000000
      * Coulomb:
        alpha                          2.000000
        third order                    shell-resolved
        anisotropic                    true
        a3                             3.000000
        a5                             4.000000
        cn-shift                       1.200000
        cn-exp                         4.000000
        max-rad                        5.000000

      * Solvation model:               ALPB
        Solvent                        water
        Parameter file                 internal GFN2-xTB/ALPB
        Dielectric constant                8.0200E+01
        Reference state                gsolv [1 M gas/solution]
        Free energy shift                  1.0808E-03 Eh       6.7819E-01 kcal/mol
        Temperature                        2.9815E+02 K
        Density                            1.0000E+00 kg/L
        Solvent mass                       1.8000E+01 g/mol
        Interaction kernel             P16
        Born radius scaling (c1)           1.4744E+00
        Born radii integrator          GBOBC
        Born offset                        0.0000E+00 a0       0.0000E+00 AA
        H-bond correction              true
        Ion screening                  false
        Surface tension                    1.0000E-05 Eh       1.5569E+01 dyn/cm
        Grid points                               230 per atom

          ...................................................
          :                      SETUP                      :
          :.................................................:
          :  # basis functions                  84          :
          :  # atomic orbitals                  84          :
          :  # shells                           50          :
          :  # electrons                        86          :
          :  max. iterations                   250          :
          :  Hamiltonian                  GFN2-xTB          :
          :  restarted?                      false          :
          :  GBSA solvation                   true          :
          :  PC potential                    false          :
          :  electronic temp.          300.0000000     K    :
          :  accuracy                    1.0000000          :
          :  -> integral cutoff          0.2500000E+02      :
          :  -> integral neglect         0.1000000E-07      :
          :  -> SCF convergence          0.1000000E-05 Eh   :
          :  -> wf. convergence          0.1000000E-03 e    :
          :  Broyden damping             0.4000000          :
          ...................................................

 iter      E             dE          RMSdq      gap      omega  full diag
   1    -47.1467478 -0.471467E+02  0.468E+00    1.74       0.0  T
   2    -47.2388488 -0.921011E-01  0.273E+00    1.52       1.0  T
   3    -47.2360421  0.280676E-02  0.118E+00    1.32       1.0  T
   4    -47.2432734 -0.723137E-02  0.409E-01    1.15       1.0  T
   5    -47.2473451 -0.407165E-02  0.794E-02    1.15       1.0  T
   6    -47.2473601 -0.150506E-04  0.480E-02    1.15       1.0  T
   7    -47.2473749 -0.147539E-04  0.195E-02    1.15       1.0  T
   8    -47.2473768 -0.189590E-05  0.790E-03    1.15       2.2  T
   9    -47.2473772 -0.460305E-06  0.442E-03    1.15       3.9  T
  10    -47.2473773 -0.954116E-07  0.143E-03    1.15      12.2  T
  11    -47.2473773 -0.133183E-07  0.573E-04    1.15      30.4  T
  12    -47.2473773 -0.119192E-08  0.197E-04    1.15      88.6  T

   *** convergence criteria satisfied after 12 iterations ***

         #    Occupation            Energy/Eh            Energy/eV
      -------------------------------------------------------------
         1        2.0000           -0.6931833             -18.8625
       ...           ...                  ...                  ...
        37        2.0000           -0.4291682             -11.6783
        38        2.0000           -0.4258626             -11.5883
        39        2.0000           -0.4160252             -11.3206
        40        2.0000           -0.4110041             -11.1840
        41        2.0000           -0.4093661             -11.1394
        42        2.0000           -0.3964574             -10.7882
        43        2.0000           -0.3504798              -9.5370 (HOMO)
        44                         -0.3081006              -8.3838 (LUMO)
        45                         -0.2360171              -6.4224
        46                         -0.2331933              -6.3455
        47                         -0.2272586              -6.1840
        48                         -0.2077030              -5.6519
       ...                                ...                  ...
        84                          0.6266035              17.0507
      -------------------------------------------------------------
                  HL-Gap            0.0423792 Eh            1.1532 eV
             Fermi-level           -0.3292902 Eh           -8.9604 eV

 SCC (total)                   0 d,  0 h,  0 min,  0.075 sec
 SCC setup                      ...        0 min,  0.001 sec (  0.897%)
 Dispersion                     ...        0 min,  0.001 sec (  1.324%)
 classical contributions        ...        0 min,  0.000 sec (  0.141%)
 integral evaluation            ...        0 min,  0.004 sec (  4.993%)
 iterations                     ...        0 min,  0.064 sec ( 84.971%)
 molecular gradient             ...        0 min,  0.005 sec (  6.391%)
 printout                       ...        0 min,  0.001 sec (  0.792%)

         :::::::::::::::::::::::::::::::::::::::::::::::::::::
         ::                     SUMMARY                     ::
         :::::::::::::::::::::::::::::::::::::::::::::::::::::
         :: total energy             -46.505846319274 Eh    ::
         :: total w/o Gsasa/hb       -46.491360232463 Eh    ::
         :: gradient norm              0.065379174494 Eh/a0 ::
         :: HOMO-LUMO gap              1.153196642034 eV    ::
         ::.................................................::
         :: SCC energy               -47.247377349707 Eh    ::
         :: -> isotropic ES            0.136600768690 Eh    ::
         :: -> anisotropic ES         -0.017093340085 Eh    ::
         :: -> anisotropic XC          0.044859203151 Eh    ::
         :: -> dispersion             -0.029150653830 Eh    ::
         :: -> Gsolv                  -0.125712621883 Eh    ::
         ::    -> Gelec               -0.111226535071 Eh    ::
         ::    -> Gsasa               -0.004650082612 Eh    ::
         ::    -> Ghb                 -0.010916763898 Eh    ::
         ::    -> Gshift               0.001080759698 Eh    ::
         :: repulsion energy           0.741731578463 Eh    ::
         :: add. restraining           0.000000000000 Eh    ::
         :: total charge               1.000000000000 e     ::
         :::::::::::::::::::::::::::::::::::::::::::::::::::::

      ----------------------------------------------------------- 
     |                   =====================                   |
     |                        A N C O P T                        |
     |                   =====================                   |
     |               Approximate Normal Coordinate               |
     |                Rational Function Optimizer                |
      ----------------------------------------------------------- 

          ...................................................
          :                      SETUP                      :
          :.................................................:
          :   optimization level            normal          :
          :   max. optcycles                   200          :
          :   ANC micro-cycles                  20          :
          :   degrees of freedom                93          :
          :.................................................:
          :   RF solver                   davidson          :
          :   write xtbopt.log                true          :
          :   linear?                        false          :
          :   energy convergence         0.5000000E-05 Eh   :
          :   grad. convergence          0.1000000E-02 Eh/α :
          :   maximium RF displ.         1.0000000          :
          :   Hlow (freq-cutoff)         0.1000000E-01      :
          :   Hmax (freq-cutoff)         5.0000000          :
          :   S6 in model hess.         20.0000000          :
          ...................................................

generating ANC from model Hessian ...
Using Lindh-Hessian (1995)
 Shifting diagonal of input Hessian by    9.7038349858769215E-003
 Lowest  eigenvalues of input Hessian
    0.000000    0.000000    0.000000    0.000000    0.000000    0.000000
    0.010000    0.010325    0.010811    0.011464    0.011579    0.013543
    0.014380    0.018158    0.020497    0.023558    0.023922    0.024727
 Highest eigenvalues
    1.840802    1.876697    1.930365    1.962362    1.989343    2.071135


........................................................................
.............................. CYCLE    1 ..............................
........................................................................
   1    -47.2473774 -0.472474E+02  0.702E-05    1.15       0.0  T
   2    -47.2473774 -0.926548E-11  0.439E-05    1.15     396.6  T
   3    -47.2473774  0.191847E-11  0.258E-05    1.15     673.6  T
     SCC iter.                  ...        0 min,  0.016 sec
     gradient                   ...        0 min,  0.005 sec
 * total energy  :   -46.5058463 Eh     change       -0.7092638E-09 Eh
   gradient norm :     0.0653790 Eh/α   predicted     0.0000000E+00 (-100.00%)
   displ. norm   :     0.1926125 α      lambda       -0.8149252E-02
   maximum displ.:     0.0743575 α      in ANC's #59, #23, #22, ...

........................................................................
.............................. CYCLE    2 ..............................
........................................................................
   1    -47.2838191 -0.472838E+02  0.190E-01    1.03       0.0  T
   2    -47.2839620 -0.142886E-03  0.107E-01    1.02       1.0  T
   3    -47.2839607  0.127003E-05  0.447E-02    1.02       1.0  T
   4    -47.2839669 -0.617657E-05  0.172E-02    1.02       1.0  T
   5    -47.2839717 -0.484915E-05  0.393E-03    1.02       4.4  T
   6    -47.2839718 -0.248844E-07  0.125E-03    1.02      13.9  T
   7    -47.2839718 -0.154793E-07  0.656E-04    1.02      26.5  T
   8    -47.2839718 -0.219566E-08  0.189E-04    1.02      92.1  T
     SCC iter.                  ...        0 min,  0.040 sec
     gradient                   ...        0 min,  0.004 sec
 * total energy  :   -46.5112171 Eh     change       -0.5370805E-02 Eh
   gradient norm :     0.0291993 Eh/α   predicted    -0.4226071E-02 ( -21.31%)
   displ. norm   :     0.1561268 α      lambda       -0.2073221E-02
   maximum displ.:     0.0693534 α      in ANC's #7, #23, #59, ...

........................................................................
.............................. CYCLE    3 ..............................
........................................................................
   1    -47.2990107 -0.472990E+02  0.171E-01    0.92       0.0  T
   2    -47.2991398 -0.129114E-03  0.709E-02    0.91       1.0  T
   3    -47.2991437 -0.397247E-05  0.331E-02    0.92       1.0  T
   4    -47.2991484 -0.463454E-05  0.154E-02    0.92       1.1  T
   5    -47.2991508 -0.246275E-05  0.439E-03    0.92       4.0  T
   6    -47.2991509 -0.357010E-07  0.873E-04    0.92      19.9  T
   7    -47.2991509 -0.851962E-08  0.489E-04    0.92      35.6  T
     SCC iter.                  ...        0 min,  0.035 sec
     gradient                   ...        0 min,  0.004 sec
 * total energy  :   -46.5124537 Eh     change       -0.1236605E-02 Eh
   gradient norm :     0.0126829 Eh/α   predicted    -0.1062287E-02 ( -14.10%)
   displ. norm   :     0.1080156 α      lambda       -0.4143876E-03
   maximum displ.:     0.0624943 α      in ANC's #7, #1, #3, ...

........................................................................
.............................. CYCLE    4 ..............................
........................................................................
   1    -47.2991955 -0.472992E+02  0.117E-01    0.88       0.0  T
   2    -47.2992479 -0.524137E-04  0.390E-02    0.87       1.0  T
   3    -47.2992501 -0.224620E-05  0.194E-02    0.88       1.0  T
   4    -47.2992544 -0.424513E-05  0.718E-03    0.88       2.4  T
   5    -47.2992546 -0.224679E-06  0.262E-03    0.88       6.6  T
   6    -47.2992546 -0.884528E-08  0.568E-04    0.88      30.6  T
   7    -47.2992546 -0.572767E-08  0.252E-04    0.88      69.2  T
     SCC iter.                  ...        0 min,  0.035 sec
     gradient                   ...        0 min,  0.004 sec
 * total energy  :   -46.5127538 Eh     change       -0.3000635E-03 Eh
   gradient norm :     0.0072540 Eh/α   predicted    -0.2096159E-03 ( -30.14%)
   displ. norm   :     0.1501898 α      lambda       -0.3099717E-03
   maximum displ.:     0.0890679 α      in ANC's #7, #1, #3, ...

........................................................................
.............................. CYCLE    5 ..............................
........................................................................
   1    -47.2965643 -0.472966E+02  0.173E-01    0.85       0.0  T
   2    -47.2966808 -0.116523E-03  0.562E-02    0.84       1.0  T
   3    -47.2966862 -0.543129E-05  0.282E-02    0.84       1.0  T
   4    -47.2966976 -0.114404E-04  0.888E-03    0.84       2.0  T
   5    -47.2966979 -0.296739E-06  0.340E-03    0.84       5.1  T
   6    -47.2966980 -0.986444E-08  0.840E-04    0.84      20.7  T
   7    -47.2966980 -0.148125E-07  0.315E-04    0.84      55.2  T
     SCC iter.                  ...        0 min,  0.034 sec
     gradient                   ...        0 min,  0.004 sec
 * total energy  :   -46.5129662 Eh     change       -0.2123725E-03 Eh
   gradient norm :     0.0069505 Eh/α   predicted    -0.1584839E-03 ( -25.37%)
   displ. norm   :     0.1528441 α      lambda       -0.1787174E-03
   maximum displ.:     0.0808868 α      in ANC's #7, #1, #3, ...

........................................................................
.............................. CYCLE    6 ..............................
........................................................................
   1    -47.2944606 -0.472945E+02  0.176E-01    0.84       0.0  T
   2    -47.2945894 -0.128728E-03  0.578E-02    0.82       1.0  T
   3    -47.2945958 -0.641532E-05  0.279E-02    0.83       1.0  T
   4    -47.2946082 -0.124425E-04  0.842E-03    0.82       2.1  T
   5    -47.2946086 -0.341058E-06  0.318E-03    0.82       5.5  T
   6    -47.2946086 -0.992484E-08  0.818E-04    0.82      21.3  T
   7    -47.2946086 -0.147258E-07  0.293E-04    0.82      59.4  T
     SCC iter.                  ...        0 min,  0.035 sec
     gradient                   ...        0 min,  0.004 sec
 * total energy  :   -46.5131008 Eh     change       -0.1346095E-03 Eh
   gradient norm :     0.0084056 Eh/α   predicted    -0.9144813E-04 ( -32.06%)
   displ. norm   :     0.2050741 α      lambda       -0.1917996E-03
   maximum displ.:     0.1180746 α      in ANC's #1, #7, #3, ...

........................................................................
.............................. CYCLE    7 ..............................
........................................................................
   1    -47.2929592 -0.472930E+02  0.215E-01    0.83       0.0  T
   2    -47.2931515 -0.192321E-03  0.729E-02    0.80       1.0  T
   3    -47.2931615 -0.998409E-05  0.312E-02    0.81       1.0  T
   4    -47.2931774 -0.158874E-04  0.107E-02    0.81       1.6  T
   5    -47.2931780 -0.627218E-06  0.368E-03    0.81       4.7  T
   6    -47.2931780 -0.179258E-07  0.936E-04    0.81      18.6  T
   7    -47.2931780 -0.181774E-07  0.365E-04    0.81      47.7  T
     SCC iter.                  ...        0 min,  0.034 sec
     gradient                   ...        0 min,  0.004 sec
 * total energy  :   -46.5132371 Eh     change       -0.1363409E-03 Eh
   gradient norm :     0.0088496 Eh/α   predicted    -0.9994248E-04 ( -26.70%)
   displ. norm   :     0.1830855 α      lambda       -0.1479935E-03
   maximum displ.:     0.1213747 α      in ANC's #1, #3, #5, ...

........................................................................
.............................. CYCLE    8 ..............................
........................................................................
   1    -47.2935580 -0.472936E+02  0.148E-01    0.81       0.0  T
   2    -47.2936415 -0.834156E-04  0.513E-02    0.80       1.0  T
   3    -47.2936463 -0.482187E-05  0.201E-02    0.80       1.0  T
   4    -47.2936523 -0.604274E-05  0.800E-03    0.80       2.2  T
   5    -47.2936526 -0.303740E-06  0.232E-03    0.80       7.5  T
   6    -47.2936526 -0.138956E-07  0.609E-04    0.80      28.6  T
   7    -47.2936527 -0.683239E-08  0.262E-04    0.80      66.5  T
     SCC iter.                  ...        0 min,  0.034 sec
     gradient                   ...        0 min,  0.004 sec
 * total energy  :   -46.5133476 Eh     change       -0.1104476E-03 Eh
   gradient norm :     0.0060433 Eh/α   predicted    -0.7647809E-04 ( -30.76%)
   displ. norm   :     0.2008756 α      lambda       -0.1296730E-03
   maximum displ.:     0.1431352 α      in ANC's #1, #5, #3, ...

........................................................................
.............................. CYCLE    9 ..............................
........................................................................
   1    -47.2950375 -0.472950E+02  0.129E-01    0.80       0.0  T
   2    -47.2950999 -0.623985E-04  0.465E-02    0.79       1.0  T
   3    -47.2951039 -0.391704E-05  0.170E-02    0.79       1.0  T
   4    -47.2951071 -0.328638E-05  0.802E-03    0.79       2.2  T
   5    -47.2951075 -0.362514E-06  0.187E-03    0.79       9.3  T
   6    -47.2951075 -0.962635E-08  0.518E-04    0.79      33.6  T
   7    -47.2951075 -0.403817E-08  0.248E-04    0.79      70.1  T
     SCC iter.                  ...        0 min,  0.035 sec
     gradient                   ...        0 min,  0.003 sec
 * total energy  :   -46.5134450 Eh     change       -0.9743255E-04 Eh
   gradient norm :     0.0035145 Eh/α   predicted    -0.6746283E-04 ( -30.76%)
   displ. norm   :     0.2106696 α      lambda       -0.9393506E-04
   maximum displ.:     0.1529684 α      in ANC's #1, #5, #3, ...

........................................................................
.............................. CYCLE   10 ..............................
........................................................................
   1    -47.2956772 -0.472957E+02  0.123E-01    0.78       0.0  T
   2    -47.2957352 -0.579751E-04  0.440E-02    0.77       1.0  T
   3    -47.2957390 -0.381514E-05  0.156E-02    0.77       1.1  T
   4    -47.2957410 -0.204895E-05  0.801E-03    0.77       2.2  T
   5    -47.2957414 -0.409076E-06  0.165E-03    0.77      10.6  T
   6    -47.2957414 -0.695948E-08  0.475E-04    0.77      36.7  T
   7    -47.2957414 -0.291680E-08  0.237E-04    0.77      73.6  T
     SCC iter.                  ...        0 min,  0.035 sec
     gradient                   ...        0 min,  0.004 sec
 * total energy  :   -46.5135188 Eh     change       -0.7378766E-04 Eh
   gradient norm :     0.0031244 Eh/α   predicted    -0.4905237E-04 ( -33.52%)
   displ. norm   :     0.2353750 α      lambda       -0.8894722E-04
   maximum displ.:     0.1713106 α      in ANC's #1, #5, #3, ...

........................................................................
.............................. CYCLE   11 ..............................
........................................................................
   1    -47.2958262 -0.472958E+02  0.120E-01    0.76       0.0  T
   2    -47.2958797 -0.534809E-04  0.441E-02    0.76       1.0  T
   3    -47.2958835 -0.386032E-05  0.151E-02    0.76       1.2  T
   4    -47.2958846 -0.103833E-05  0.825E-03    0.76       2.1  T
   5    -47.2958851 -0.512566E-06  0.132E-03    0.76      13.2  T
   6    -47.2958851 -0.752942E-08  0.459E-04    0.76      37.9  T
   7    -47.2958851 -0.243987E-08  0.226E-04    0.76      77.2  T
     SCC iter.                  ...        0 min,  0.034 sec
     gradient                   ...        0 min,  0.003 sec
 * total energy  :   -46.5135951 Eh     change       -0.7630961E-04 Eh
   gradient norm :     0.0032605 Eh/α   predicted    -0.4693859E-04 ( -38.49%)
   displ. norm   :     0.3926685 α      lambda       -0.1249609E-03
   maximum displ.:     0.2747234 α      in ANC's #1, #5, #3, ...

........................................................................
.............................. CYCLE   12 ..............................
........................................................................
   1    -47.2934540 -0.472935E+02  0.223E-01    0.76       0.0  T
   2    -47.2936589 -0.204847E-03  0.802E-02    0.75       1.0  T
   3    -47.2936750 -0.161515E-04  0.250E-02    0.75       1.0  T
   4    -47.2936762 -0.115203E-05  0.144E-02    0.75       1.2  T
   5    -47.2936781 -0.195265E-05  0.228E-03    0.75       7.6  T
   6    -47.2936781 -0.199444E-07  0.770E-04    0.75      22.6  T
   7    -47.2936781 -0.463436E-08  0.396E-04    0.75      44.0  T
     SCC iter.                  ...        0 min,  0.035 sec
     gradient                   ...        0 min,  0.003 sec
 * total energy  :   -46.5136746 Eh     change       -0.7952785E-04 Eh
   gradient norm :     0.0067976 Eh/α   predicted    -0.7211717E-04 (  -9.32%)
   displ. norm   :     0.3223588 α      lambda       -0.1440179E-03
   maximum displ.:     0.2307278 α      in ANC's #1, #5, #3, ...

........................................................................
.............................. CYCLE   13 ..............................
........................................................................
   1    -47.2937489 -0.472937E+02  0.111E-01    0.73       0.0  T
   2    -47.2937796 -0.306597E-04  0.510E-02    0.73       1.0  T
   3    -47.2937823 -0.266515E-05  0.161E-02    0.73       1.1  T
   4    -47.2937819  0.346541E-06  0.566E-03    0.73       3.1  T
   5    -47.2937826 -0.726038E-06  0.848E-04    0.73      20.5  T
   6    -47.2937826 -0.493908E-08  0.473E-04    0.73      36.8  T
     SCC iter.                  ...        0 min,  0.030 sec
     gradient                   ...        0 min,  0.003 sec
 * total energy  :   -46.5137537 Eh     change       -0.7905260E-04 Eh
   gradient norm :     0.0039694 Eh/α   predicted    -0.7950628E-04 (   0.57%)
   displ. norm   :     0.2788889 α      lambda       -0.6017516E-04
   maximum displ.:     0.1987084 α      in ANC's #1, #5, #3, ...

........................................................................
.............................. CYCLE   14 ..............................
........................................................................
   1    -47.2928652 -0.472929E+02  0.135E-01    0.74       0.0  T
   2    -47.2929328 -0.675522E-04  0.513E-02    0.73       1.0  T
   3    -47.2929384 -0.564452E-05  0.164E-02    0.73       1.1  T
   4    -47.2929380  0.451082E-06  0.787E-03    0.73       2.2  T
   5    -47.2929390 -0.996745E-06  0.961E-04    0.73      18.1  T
   6    -47.2929390 -0.496496E-08  0.450E-04    0.73      38.7  T
     SCC iter.                  ...        0 min,  0.030 sec
     gradient                   ...        0 min,  0.004 sec
 * total energy  :   -46.5137955 Eh     change       -0.4181596E-04 Eh
   gradient norm :     0.0031761 Eh/α   predicted    -0.3243491E-04 ( -22.43%)
   displ. norm   :     0.2346198 α      lambda       -0.6619106E-04
   maximum displ.:     0.1689327 α      in ANC's #1, #5, #2, ...

........................................................................
.............................. CYCLE   15 ..............................
........................................................................
   1    -47.2950009 -0.472950E+02  0.933E-02    0.73       0.0  T
   2    -47.2950261 -0.251282E-04  0.406E-02    0.73       1.0  T
   3    -47.2950282 -0.214432E-05  0.131E-02    0.73       1.3  T
   4    -47.2950279  0.335903E-06  0.532E-03    0.73       3.3  T
   5    -47.2950285 -0.611699E-06  0.674E-04    0.73      25.8  T
   6    -47.2950285 -0.185339E-08  0.377E-04    0.73      46.2  T
     SCC iter.                  ...        0 min,  0.033 sec
     gradient                   ...        0 min,  0.004 sec
 * total energy  :   -46.5138430 Eh     change       -0.4751334E-04 Eh
   gradient norm :     0.0030050 Eh/α   predicted    -0.3492283E-04 ( -26.50%)
   displ. norm   :     0.3710346 α      lambda       -0.7089393E-04
   maximum displ.:     0.2611046 α      in ANC's #1, #5, #2, ...

........................................................................
.............................. CYCLE   16 ..............................
........................................................................
   1    -47.2947848 -0.472948E+02  0.137E-01    0.74       0.0  T
   2    -47.2948326 -0.477728E-04  0.627E-02    0.73       1.0  T
   3    -47.2948367 -0.410560E-05  0.198E-02    0.73       1.0  T
   4    -47.2948360  0.702332E-06  0.833E-03    0.73       2.1  T
   5    -47.2948373 -0.133819E-05  0.103E-03    0.73      16.8  T
   6    -47.2948373 -0.632429E-08  0.569E-04    0.73      30.6  T
   7    -47.2948373 -0.213597E-08  0.189E-04    0.73      91.9  T
     SCC iter.                  ...        0 min,  0.035 sec
     gradient                   ...        0 min,  0.004 sec
 * total energy  :   -46.5138960 Eh     change       -0.5297888E-04 Eh
   gradient norm :     0.0039556 Eh/α   predicted    -0.4032991E-04 ( -23.88%)
   displ. norm   :     0.3134321 α      lambda       -0.8457495E-04
   maximum displ.:     0.2019194 α      in ANC's #1, #5, #2, ...

........................................................................
.............................. CYCLE   17 ..............................
........................................................................
   1    -47.2965239 -0.472965E+02  0.936E-02    0.73       0.0  T
   2    -47.2965331 -0.925464E-05  0.508E-02    0.73       1.0  T
   3    -47.2965335 -0.333262E-06  0.117E-02    0.73       1.5  T
   4    -47.2965337 -0.267137E-06  0.581E-03    0.73       3.0  T
   5    -47.2965343 -0.557502E-06  0.834E-04    0.73      20.9  T
   6    -47.2965343 -0.470245E-08  0.459E-04    0.73      38.0  T
     SCC iter.                  ...        0 min,  0.030 sec
     gradient                   ...        0 min,  0.004 sec
 * total energy  :   -46.5139502 Eh     change       -0.5426684E-04 Eh
   gradient norm :     0.0043108 Eh/α   predicted    -0.4644394E-04 ( -14.42%)
   displ. norm   :     0.3679912 α      lambda       -0.6537735E-04
   maximum displ.:     0.2432136 α      in ANC's #1, #5, #2, ...

........................................................................
.............................. CYCLE   18 ..............................
........................................................................
   1    -47.2943160 -0.472943E+02  0.132E-01    0.74       0.0  T
   2    -47.2943560 -0.400629E-04  0.624E-02    0.74       1.0  T
   3    -47.2943591 -0.310084E-05  0.199E-02    0.74       1.0  T
   4    -47.2943586  0.560255E-06  0.991E-03    0.74       1.8  T
   5    -47.2943602 -0.160316E-05  0.103E-03    0.74      16.9  T
   6    -47.2943602 -0.874461E-08  0.571E-04    0.74      30.5  T
   7    -47.2943602 -0.238633E-08  0.190E-04    0.74      91.7  T
     SCC iter.                  ...        0 min,  0.035 sec
     gradient                   ...        0 min,  0.004 sec
 * total energy  :   -46.5139913 Eh     change       -0.4107507E-04 Eh
   gradient norm :     0.0036905 Eh/α   predicted    -0.3712167E-04 (  -9.62%)
   displ. norm   :     0.2050070 α      lambda       -0.8444851E-04
   maximum displ.:     0.0976190 α      in ANC's #5, #4, #3, ...

........................................................................
.............................. CYCLE   19 ..............................
........................................................................
   1    -47.2959733 -0.472960E+02  0.515E-02    0.73       0.0  T
   2    -47.2959751 -0.175368E-05  0.297E-02    0.73       1.0  T
   3    -47.2959749  0.239963E-06  0.532E-03    0.73       3.3  T
   4    -47.2959753 -0.402513E-06  0.209E-03    0.73       8.3  T
   5    -47.2959753 -0.717818E-07  0.571E-04    0.73      30.5  T
   6    -47.2959753 -0.155858E-08  0.303E-04    0.73      57.4  T
     SCC iter.                  ...        0 min,  0.030 sec
     gradient                   ...        0 min,  0.004 sec
 * total energy  :   -46.5140295 Eh     change       -0.3819830E-04 Eh
   gradient norm :     0.0029489 Eh/α   predicted    -0.4399904E-04 (  15.19%)
   displ. norm   :     0.1621424 α      lambda       -0.2122786E-04
   maximum displ.:     0.1091180 α      in ANC's #5, #1, #2, ...

........................................................................
.............................. CYCLE   20 ..............................
........................................................................
   1    -47.2950498 -0.472950E+02  0.527E-02    0.73       0.0  T
   2    -47.2950541 -0.437427E-05  0.270E-02    0.73       1.0  T
   3    -47.2950543 -0.175127E-06  0.802E-03    0.73       2.2  T
   4    -47.2950544 -0.953969E-07  0.405E-03    0.73       4.3  T
   5    -47.2950547 -0.248374E-06  0.478E-04    0.73      36.5  T
   6    -47.2950547 -0.233373E-08  0.259E-04    0.73      67.3  T
     SCC iter.                  ...        0 min,  0.030 sec
     gradient                   ...        0 min,  0.004 sec
 * total energy  :   -46.5140410 Eh     change       -0.1148144E-04 Eh
   gradient norm :     0.0017349 Eh/α   predicted    -0.1089964E-04 (  -5.07%)
   displ. norm   :     0.0401809 α      lambda       -0.9268420E-05
   maximum displ.:     0.0218044 α      in ANC's #3, #2, #4, ...
 * RMSD in coord.:     0.6592106 α      energy gain  -0.8194685E-02 Eh

generating ANC from model Hessian ...
Using Lindh-Hessian (1995)
 Shifting diagonal of input Hessian by    9.6882130873670903E-003
 Lowest  eigenvalues of input Hessian
    0.000000    0.000000    0.000000    0.000000    0.000000    0.000000
    0.010000    0.010314    0.011021    0.011304    0.011773    0.013360
    0.014686    0.019490    0.020545    0.024768    0.024956    0.025555
 Highest eigenvalues
    1.903108    1.916707    1.992125    2.028199    2.073362    2.143303


........................................................................
.............................. CYCLE   21 ..............................
........................................................................
   1    -47.2959622 -0.472960E+02  0.119E-02    0.74       0.0  T
   2    -47.2959622 -0.569224E-07  0.702E-03    0.73       2.5  T
   3    -47.2959622  0.450462E-07  0.156E-03    0.74      11.2  T
   4    -47.2959623 -0.595507E-07  0.298E-04    0.74      58.4  T
   5    -47.2959623 -0.840089E-09  0.150E-04    0.74     115.9  T
     SCC iter.                  ...        0 min,  0.026 sec
     gradient                   ...        0 min,  0.004 sec
 * total energy  :   -46.5140486 Eh     change       -0.7601660E-05 Eh
   gradient norm :     0.0011915 Eh/α   predicted     0.0000000E+00 (-100.00%)
   displ. norm   :     0.0220014 α      lambda       -0.1373670E-05
   maximum displ.:     0.0153508 α      in ANC's #3, #6, #7, ...

........................................................................
.............................. CYCLE   22 ..............................
........................................................................
   1    -47.2954786 -0.472955E+02  0.704E-03    0.73       0.0  T
   2    -47.2954786 -0.270953E-07  0.417E-03    0.74       4.2  T
   3    -47.2954786  0.159998E-07  0.952E-04    0.74      18.3  T
   4    -47.2954786 -0.212806E-07  0.227E-04    0.74      76.7  T
     SCC iter.                  ...        0 min,  0.021 sec
     gradient                   ...        0 min,  0.004 sec
 * total energy  :   -46.5140535 Eh     change       -0.4903727E-05 Eh
   gradient norm :     0.0003527 Eh/α   predicted    -0.2594182E-05 ( -47.10%)
   displ. norm   :     0.0336518 α      lambda       -0.3472723E-05
   maximum displ.:     0.0246236 α      in ANC's #3, #6, #7, ...

   *** GEOMETRY OPTIMIZATION CONVERGED AFTER 22 ITERATIONS ***

------------------------------------------------------------------------
 total energy gain   :        -0.0082072 Eh       -5.1501 kcal/mol
 total RMSD          :         0.6585152 a0        0.3485 Å
 total power (kW/mol):        -0.9794534 (step)  -24.2483 (real)
------------------------------------------------------------------------

 ANCopt (total)                0 d,  0 h,  0 min,  0.889 sec
 optimizer setup                ...        0 min,  0.000 sec (  0.020%)
 model hessian                  ...        0 min,  0.022 sec (  2.503%)
 ANC generation                 ...        0 min,  0.007 sec (  0.830%)
 coordinate transformation      ...        0 min,  0.001 sec (  0.073%)
 single point calculation       ...        0 min,  0.847 sec ( 95.279%)
 optimization log               ...        0 min,  0.004 sec (  0.443%)
 hessian update                 ...        0 min,  0.001 sec (  0.106%)
 rational function              ...        0 min,  0.003 sec (  0.386%)

================
 final structure:
================
33
 xtb: 6.5.1 (fef0646)
N            2.72508413260300       -1.10217923086970       -3.55698190220736
C            2.53195191819139       -0.12222033826577       -2.46089792678662
C            3.15861067316233       -0.64913461054670       -1.16947164817683
C            4.65875860840452       -0.70892525641682       -1.27263630492101
C            5.40851169060427        0.46382702496134       -1.18255838943131
C            6.77962513550569        0.43577734574935       -1.29668939610518
C            5.31748438295387       -1.91713939744906       -1.48519722864803
C            6.69274881229566       -1.96092333768947       -1.59557065911859
C            7.44112725687292       -0.78289353637710       -1.50725040267743
N            8.81264010404270       -0.92426767968562       -1.61714128289819
N            9.48909248850300        0.15701518872564       -1.60155874631529
C           10.86334197567463        0.04058065707594       -1.67765907140110
C           11.56237343271159       -1.17405264861249       -1.64563181708880
C           12.93936458083171       -1.17527802412627       -1.70484874409965
C           13.63706914753146        0.02189203545648       -1.79781781825235
C           12.95208252238041        1.22799101974813       -1.82969518036473
C           11.57369018796718        1.24315386727450       -1.76780271130950
H            2.37762505804640       -0.73018052479681       -4.44816072207801
H            2.22577789568470       -1.97406507652512       -3.34482781251009
H            3.72453398847832       -1.31993361890877       -3.65424160512361
H            1.46572419097979        0.04484645249350       -2.31388295767627
H            3.00398825942370        0.82030942220205       -2.73683525430713
H            2.76211414113710       -1.63631384740447       -0.93433927808892
H            2.88526058838749        0.02294895142320       -0.35672937667740
H            4.91069091433950        1.40573944220700       -1.00625012158201
H            7.37200832967681        1.33416972542411       -1.21901509489812
H            4.75813451958557       -2.83917084369103       -1.53663006232707
H            7.21460837110026       -2.89193895502444       -1.74988922193243
H           11.00242299493675       -2.09330045317568       -1.56812045506255
H           13.47810769559147       -2.11062123965631       -1.67763421785106
H           14.71543780757568        0.01358180332366       -1.84262577159782
H           13.49822402423485        2.15625094038622       -1.90054548501634
H           11.02306417059520        2.17041474276097       -1.79084333347313

 Bond Distances (Angstroems)
 ---------------------------
N1-C2=1.4829         N1-H18=1.0263        N1-H19=1.0269        N1-H20=1.0275        C2-N1=1.4829         C2-C3=1.5291         
C2-H21=1.0892        C2-H22=1.0896        C3-C2=1.5291         C3-C4=1.5049         C3-H23=1.0895        C3-H24=1.0895        
C4-C3=1.5049         C4-C5=1.3948         C4-C7=1.3924         C5-C4=1.3948         C5-C6=1.3761         C5-H25=1.0799        
C6-C5=1.3761         C6-C9=1.4025         C6-H26=1.0789        C7-C4=1.3924         C7-C8=1.3804         C7-H27=1.0797        
C8-C7=1.3804         C8-C9=1.3984         C8-H28=1.0784        C9-C6=1.4025         C9-C8=1.3984         C9-N10=1.3832        
N10-C9=1.3832        N10-N11=1.2755       N11-N10=1.2755       N11-C12=1.3813       C12-N11=1.3813       C12-C13=1.4018       
C12-C17=1.3996       C13-C12=1.4018       C13-C14=1.3783       C13-H29=1.0792       C14-C13=1.3783       C14-C15=1.3888       
C14-H30=1.0797       C15-C14=1.3888       C15-C16=1.3874       C15-H31=1.0793       C16-C15=1.3874       C16-C17=1.3799       
C16-H32=1.0793       C17-C12=1.3996       C17-C16=1.3799       C17-H33=1.0787       H18-N1=1.0263        H19-N1=1.0269        
H20-N1=1.0275        H21-C2=1.0892        H22-C2=1.0896        H23-C3=1.0895        H24-C3=1.0895        H25-C5=1.0799        
H26-C6=1.0789        H27-C7=1.0797        H28-C8=1.0784        H29-C13=1.0792       H30-C14=1.0797       H31-C15=1.0793       
H32-C16=1.0793       H33-C17=1.0787       
 C  H  Rav=1.0824 sigma=0.0047  Rmin=1.0784  Rmax=1.0896    13
 C  C  Rav=1.4082 sigma=0.0455  Rmin=1.3761  Rmax=1.5291    14
 N  H  Rav=1.0269 sigma=0.0005  Rmin=1.0263  Rmax=1.0275     3
 N  C  Rav=1.4158 sigma=0.0475  Rmin=1.3813  Rmax=1.4829     3
 N  N  Rav=1.2755 sigma=0.0000  Rmin=1.2755  Rmax=1.2755     1

 selected bond angles (degree)
 --------------------
H18-N1-C2=110.99               H19-N1-C2=110.19               H19-N1-H18=108.82              H20-N1-C2=109.68               
H20-N1-H18=108.90              H20-N1-H19=108.21              C3-C2-N1=110.07                H21-C2-N1=109.18               
H21-C2-C3=109.88               H22-C2-N1=109.15               H22-C2-C3=109.54               H22-C2-H21=109.00              
C4-C3-C2=111.37                H23-C3-C2=110.20               H23-C3-C4=109.97               H24-C3-C2=108.34               
H24-C3-C4=109.01               H24-C3-H23=107.86              C5-C4-C3=119.87                C7-C4-C3=121.10                
C7-C4-C5=119.02                C6-C5-C4=120.87                H25-C5-C4=119.74               H25-C5-C6=119.38               
C9-C6-C5=120.01                H26-C6-C5=121.61               H26-C6-C9=118.38               C8-C7-C4=120.73                
H27-C7-C4=120.21               H27-C7-C8=119.03               C9-C8-C7=120.09                H28-C8-C7=121.40               
H28-C8-C9=118.51               C8-C9-C6=119.28                N10-C9-C6=124.64               N10-C9-C8=116.07               
N11-N10-C9=115.99              

 selected dihedral angles (degree)
 ---------------------------------
C3-C2-N1-H18=184.62           C3-C2-N1-H19= 64.02           C3-C2-N1-H20=305.00           H21-C2-N1-H18= 63.93          
H21-C2-N1-H19=303.33          H21-C2-N1-H20=184.30          H22-C2-N1-H18=304.87          H22-C2-N1-H19=184.27          
H22-C2-N1-H20= 65.25          C4-C3-C2-N1= 67.71            C4-C3-C2-H21=187.98           C4-C3-C2-H22=307.70           
H23-C3-C2-N1=305.38           H23-C3-C2-H21= 65.65          H23-C3-C2-H22=185.37          H24-C3-C2-N1=187.59           
H24-C3-C2-H21=307.86          H24-C3-C2-H22= 67.58          C5-C4-C3-C2= 75.93            C5-C4-C3-H23=198.39           
C5-C4-C3-H24=316.45           C7-C4-C3-C2=257.27            C7-C4-C3-H23= 19.73           C7-C4-C3-H24=137.78           
C6-C5-C4-C3=181.10            C6-C5-C4-C7=359.80            H25-C5-C4-C3=  2.03           H25-C5-C4-C7=180.72           
C9-C6-C5-C4=  0.04            C9-C6-C5-H25=179.12           H26-C6-C5-C4=180.62           H26-C6-C5-H25=359.70          
C8-C7-C4-C3=179.17            C8-C7-C4-C5=  0.50            H27-C7-C4-C3=357.35           H27-C7-C4-C5=178.67           
C9-C8-C7-C4=359.38            C9-C8-C7-H27=181.18           H28-C8-C7-C4=179.35           H28-C8-C7-H27=  1.16          
C8-C9-C6-C5=359.84            C8-C9-C6-H26=179.28           N10-C9-C6-C5=180.94           N10-C9-C6-H26=  0.37          
C6-C9-C8-C7=  0.45            C6-C9-C8-H28=180.47           N10-C9-C8-C7=179.44           N10-C9-C8-H28=359.47          
N11-N10-C9-C6=355.66          N11-N10-C9-C8=176.72          
           -------------------------------------------------
          |                Final Singlepoint                |
           -------------------------------------------------

          ...................................................
          :                      SETUP                      :
          :.................................................:
          :  # basis functions                  84          :
          :  # atomic orbitals                  84          :
          :  # shells                           50          :
          :  # electrons                        86          :
          :  max. iterations                   250          :
          :  Hamiltonian                  GFN2-xTB          :
          :  restarted?                      false          :
          :  GBSA solvation                   true          :
          :  PC potential                    false          :
          :  electronic temp.          300.0000000     K    :
          :  accuracy                    1.0000000          :
          :  -> integral cutoff          0.2500000E+02      :
          :  -> integral neglect         0.1000000E-07      :
          :  -> SCF convergence          0.1000000E-05 Eh   :
          :  -> wf. convergence          0.1000000E-03 e    :
          :  Broyden damping             0.4000000          :
          ...................................................

 iter      E             dE          RMSdq      gap      omega  full diag
   1    -47.2954786 -0.472955E+02  0.950E-05    0.74       0.0  T
   2    -47.2954786 -0.236113E-10  0.538E-05    0.74     323.7  T
   3    -47.2954786 -0.179057E-11  0.354E-05    0.74     491.7  T

   *** convergence criteria satisfied after 3 iterations ***

         #    Occupation            Energy/Eh            Energy/eV
      -------------------------------------------------------------
         1        2.0000           -0.6950253             -18.9126
       ...           ...                  ...                  ...
        37        2.0000           -0.4265224             -11.6063
        38        2.0000           -0.4255554             -11.5800
        39        2.0000           -0.4238468             -11.5335
        40        2.0000           -0.4151124             -11.2958
        41        2.0000           -0.4131697             -11.2429
        42        2.0000           -0.3915175             -10.6537
        43        2.0000           -0.3393416              -9.2340 (HOMO)
        44        0.0000           -0.3123269              -8.4988 (LUMO)
        45                         -0.2319817              -6.3125
        46                         -0.2300472              -6.2599
        47                         -0.2229623              -6.0671
        48                         -0.1972047              -5.3662
       ...                                ...                  ...
        84                          0.6594955              17.9458
      -------------------------------------------------------------
                  HL-Gap            0.0270147 Eh            0.7351 eV
             Fermi-level           -0.3258342 Eh           -8.8664 eV

 SCC (total)                   0 d,  0 h,  0 min,  0.023 sec
 SCC setup                      ...        0 min,  0.000 sec (  1.349%)
 Dispersion                     ...        0 min,  0.000 sec (  1.628%)
 classical contributions        ...        0 min,  0.000 sec (  0.196%)
 integral evaluation            ...        0 min,  0.001 sec (  5.559%)
 iterations                     ...        0 min,  0.016 sec ( 71.605%)
 molecular gradient             ...        0 min,  0.004 sec ( 16.172%)
 printout                       ...        0 min,  0.001 sec (  2.536%)

         :::::::::::::::::::::::::::::::::::::::::::::::::::::
         ::                     SUMMARY                     ::
         :::::::::::::::::::::::::::::::::::::::::::::::::::::
         :: total energy             -46.514053510363 Eh    ::
         :: total w/o Gsasa/hb       -46.499740745845 Eh    ::
         :: gradient norm              0.000353318768 Eh/a0 ::
         :: HOMO-LUMO gap              0.735106882791 eV    ::
         ::.................................................::
         :: SCC energy               -47.295478609827 Eh    ::
         :: -> isotropic ES            0.142346236278 Eh    ::
         :: -> anisotropic ES         -0.020989420535 Eh    ::
         :: -> anisotropic XC          0.044049808597 Eh    ::
         :: -> dispersion             -0.029315086661 Eh    ::
         :: -> Gsolv                  -0.127681195948 Eh    ::
         ::    -> Gelec               -0.113368431430 Eh    ::
         ::    -> Gsasa               -0.004457721354 Eh    ::
         ::    -> Ghb                 -0.010935802862 Eh    ::
         ::    -> Gshift               0.001080759698 Eh    ::
         :: repulsion energy           0.781672278469 Eh    ::
         :: add. restraining           0.000000000000 Eh    ::
         :: total charge               1.000000000000 e     ::
         :::::::::::::::::::::::::::::::::::::::::::::::::::::

           -------------------------------------------------
          |                Property Printout                |
           -------------------------------------------------

    * Orbital Energies and Occupations

         #    Occupation            Energy/Eh            Energy/eV
      -------------------------------------------------------------
         1        2.0000           -0.6950253             -18.9126
       ...           ...                  ...                  ...
        31        2.0000           -0.4807533             -13.0820
        32        2.0000           -0.4672414             -12.7143
        33        2.0000           -0.4636418             -12.6163
        34        2.0000           -0.4580893             -12.4652
        35        2.0000           -0.4396853             -11.9644
        36        2.0000           -0.4380349             -11.9195
        37        2.0000           -0.4265224             -11.6063
        38        2.0000           -0.4255554             -11.5800
        39        2.0000           -0.4238468             -11.5335
        40        2.0000           -0.4151124             -11.2958
        41        2.0000           -0.4131697             -11.2429
        42        2.0000           -0.3915175             -10.6537
        43        2.0000           -0.3393416              -9.2340 (HOMO)
        44        0.0000           -0.3123269              -8.4988 (LUMO)
        45                         -0.2319817              -6.3125
        46                         -0.2300472              -6.2599
        47                         -0.2229623              -6.0671
        48                         -0.1972047              -5.3662
        49                         -0.0989662              -2.6930
        50                         -0.0886560              -2.4125
        51                         -0.0473075              -1.2873
        52                          0.0573841               1.5615
        53                          0.0763652               2.0780
        54                          0.0795758               2.1654
       ...                                ...                  ...
        84                          0.6594955              17.9458
      -------------------------------------------------------------
                  HL-Gap            0.0270147 Eh            0.7351 eV
             Fermi-level           -0.3258342 Eh           -8.8664 eV

     #   Z          covCN         q      C6AA      α(0)
     1   7 N        3.485    -0.155    24.341     7.328
     2   6 C        3.733    -0.037    21.331     6.592
     3   6 C        3.809    -0.097    22.337     6.728
     4   6 C        2.970     0.020    27.568     8.612
     5   6 C        2.921    -0.043    29.080     8.843
     6   6 C        2.916    -0.037    28.925     8.819
     7   6 C        2.920    -0.051    29.276     8.873
     8   6 C        2.925    -0.039    28.978     8.828
     9   6 C        2.942     0.069    26.452     8.435
    10   7 N        1.940    -0.176    25.604     7.503
    11   7 N        1.946    -0.171    25.499     7.488
    12   6 C        2.937     0.073    26.378     8.423
    13   6 C        2.918    -0.038    28.949     8.823
    14   6 C        2.917    -0.033    28.818     8.803
    15   6 C        2.920    -0.028    28.696     8.785
    16   6 C        2.917    -0.033    28.827     8.804
    17   6 C        2.928    -0.039    28.961     8.826
    18   1 H        0.859     0.318     0.662     1.275
    19   1 H        0.859     0.312     0.679     1.291
    20   1 H        0.859     0.294     0.733     1.341
    21   1 H        0.925     0.121     1.603     1.980
    22   1 H        0.925     0.111     1.687     2.031
    23   1 H        0.925     0.088     1.899     2.155
    24   1 H        0.925     0.089     1.887     2.148
    25   1 H        0.926     0.059     2.212     2.326
    26   1 H        0.926     0.045     2.380     2.412
    27   1 H        0.926     0.071     2.073     2.252
    28   1 H        0.926     0.053     2.282     2.362
    29   1 H        0.926     0.057     2.239     2.340
    30   1 H        0.926     0.046     2.376     2.411
    31   1 H        0.926     0.048     2.351     2.398
    32   1 H        0.926     0.048     2.349     2.397
    33   1 H        0.926     0.059     2.213     2.326

 Mol. C6AA /au·bohr⁶  :      12014.310181
 Mol. C8AA /au·bohr⁸  :     290145.563499
 Mol. α(0) /au        :        173.957979


Wiberg/Mayer (AO) data.
largest (>0.10) Wiberg bond orders for each atom

 ---------------------------------------------------------------------------
     #   Z sym  total        # sym  WBO       # sym  WBO       # sym  WBO
 ---------------------------------------------------------------------------
     1   7 N    3.657 --     2 C    0.966    20 H    0.894    19 H    0.888
                            18 H    0.886
     2   6 C    3.922 --     3 C    0.996     1 N    0.966    22 H    0.965
                            21 H    0.963
     3   6 C    3.986 --     4 C    1.014     2 C    0.996    23 H    0.966
                            24 H    0.956
     4   6 C    3.965 --     7 C    1.399     5 C    1.380     3 C    1.014
     5   6 C    3.988 --     6 C    1.488     4 C    1.380    25 H    0.966
     6   6 C    3.982 --     5 C    1.488     9 C    1.323    26 H    0.967
     7   6 C    3.985 --     8 C    1.464     4 C    1.399    27 H    0.964
     8   6 C    3.971 --     7 C    1.464     9 C    1.339    28 H    0.968
     9   6 C    3.974 --     8 C    1.339     6 C    1.323    10 N    1.151
    10   7 N    3.023 --    11 N    1.644     9 C    1.151
    11   7 N    3.028 --    10 N    1.644    12 C    1.158
    12   6 C    3.979 --    17 C    1.335    13 C    1.328    11 N    1.158
    13   6 C    3.982 --    14 C    1.477    12 C    1.328    29 H    0.966
                            16 C    0.101
    14   6 C    3.991 --    13 C    1.477    15 C    1.416    30 H    0.969
    15   6 C    3.968 --    16 C    1.425    14 C    1.416    31 H    0.970
    16   6 C    3.991 --    17 C    1.467    15 C    1.425    32 H    0.969
                            13 C    0.101
    17   6 C    3.972 --    16 C    1.467    12 C    1.335    33 H    0.967
    18   1 H    0.899 --     1 N    0.886
    19   1 H    0.903 --     1 N    0.888
    20   1 H    0.914 --     1 N    0.894
    21   1 H    0.984 --     2 C    0.963
    22   1 H    0.988 --     2 C    0.965
    23   1 H    0.992 --     3 C    0.966
    24   1 H    0.990 --     3 C    0.956
    25   1 H    0.996 --     5 C    0.966
    26   1 H    0.998 --     6 C    0.967
    27   1 H    0.994 --     7 C    0.964
    28   1 H    0.997 --     8 C    0.968
    29   1 H    0.997 --    13 C    0.966
    30   1 H    0.998 --    14 C    0.969
    31   1 H    0.998 --    15 C    0.970
    32   1 H    0.997 --    16 C    0.969
    33   1 H    0.997 --    17 C    0.967
 ---------------------------------------------------------------------------

Topologies differ in total number of bonds
Writing topology from bond orders to xtbtopo.mol

molecular dipole:
                 x           y           z       tot (Debye)
 q only:        4.485      -1.954      -6.411
   full:        4.892      -1.983      -6.410      21.106
molecular quadrupole (traceless):
                xx          xy          yy          xz          yz          zz
 q only:        0.248     -12.442     -25.186     -46.897      19.825      24.938
  q+dip:       13.366     -12.900     -26.992     -48.565      20.172      13.627
   full:       10.752     -12.819     -30.572     -47.942      20.047      19.820

           -------------------------------------------------
          |                Geometry Summary                 |
           -------------------------------------------------

      molecular mass/u    :      226.2974642
   center of mass at/Å    :        7.9064976      -0.4180995      -1.7508171
  moments of inertia/u·Å² :        0.2802227E+03   0.3246034E+04   0.3364112E+04
rotational constants/cm⁻¹ :        0.6015799E-01   0.5193300E-02   0.5011020E-02

 * 31 selected distances

     #   Z          #   Z                                           value/Å
     1   7 N        2   6 C                                       1.4829093
     2   6 C        3   6 C                                       1.5290919 (max)
     4   6 C        5   6 C                                       1.3948448
     5   6 C        6   6 C                                       1.3761414
     4   6 C        7   6 C                                       1.3924380
     7   6 C        8   6 C                                       1.3803811
     6   6 C        9   6 C                                       1.4025263
     8   6 C        9   6 C                                       1.3984367
    10   7 N       11   7 N                                       1.2755405
    12   6 C       13   6 C                                       1.4017864
    13   6 C       14   6 C                                       1.3782645
    14   6 C       15   6 C                                       1.3887589
    15   6 C       16   6 C                                       1.3874069
    12   6 C       17   6 C                                       1.3996082
    16   6 C       17   6 C                                       1.3798646
     1   7 N       18   1 H                                       1.0263093 (min)
     1   7 N       19   1 H                                       1.0268891
     1   7 N       20   1 H                                       1.0275099
     2   6 C       21   1 H                                       1.0892045
     2   6 C       22   1 H                                       1.0896432
     3   6 C       23   1 H                                       1.0895044
     3   6 C       24   1 H                                       1.0894801
     5   6 C       25   1 H                                       1.0798654
     6   6 C       26   1 H                                       1.0789162
     7   6 C       27   1 H                                       1.0796573
     8   6 C       28   1 H                                       1.0783978
    13   6 C       29   1 H                                       1.0791521
    14   6 C       30   1 H                                       1.0797462
    15   6 C       31   1 H                                       1.0793313
    16   6 C       32   1 H                                       1.0793317
    17   6 C       33   1 H                                       1.0786718

 * 5 distinct bonds (by element types)

   Z      Z             #   av. dist./Å        max./Å        min./Å
   1 H    6 C          13     1.0823771     1.0896432     1.0783978
   6 C    6 C          13     1.4007346     1.5290919     1.3761414
   1 H    7 N           3     1.0269028     1.0275099     1.0263093
   6 C    7 N           1     1.4829093     1.4829093     1.4829093
   7 N    7 N           1     1.2755405     1.2755405     1.2755405


optimized geometry written to: xtbopt.xyz


           -------------------------------------------------
          | TOTAL ENERGY              -46.514053510363 Eh   |
          | GRADIENT NORM               0.000353318768 Eh/α |
          | HOMO-LUMO GAP               0.735106882791 eV   |
           -------------------------------------------------

------------------------------------------------------------------------
 * finished run on 2023/01/24 at 14:56:05.025     
------------------------------------------------------------------------
 total:
 * wall-time:     0 d,  0 h,  0 min,  1.007 sec
 *  cpu-time:     0 d,  0 h,  1 min, 47.443 sec
 * ratio c/w:   106.731 speedup
 SCF:
 * wall-time:     0 d,  0 h,  0 min,  0.075 sec
 *  cpu-time:     0 d,  0 h,  0 min, 10.498 sec
 * ratio c/w:   139.454 speedup
 ANC optimizer:
 * wall-time:     0 d,  0 h,  0 min,  0.913 sec
 *  cpu-time:     0 d,  0 h,  1 min, 34.594 sec
 * ratio c/w:   103.610 speedup

