 Entering Gaussian System
 *********************************************
 Gaussian 98:
 frequency output generated by the xtb code
 *********************************************
                         Standard orientation:
 --------------------------------------------------------------------
  Center     Atomic     Atomic              Coordinates (Angstroms)
  Number     Number      Type              X           Y           Z
 --------------------------------------------------------------------
    1          7             0        1.653282   -1.090680   -0.825814
    2          6             0        0.339030   -1.624953   -0.342218
    3          6             0       -0.060039   -2.861122   -1.142405
    4          6             0       -0.706964   -0.529907   -0.338877
    5          6             0       -1.812047   -0.544083   -1.179753
    6          6             0       -2.737672    0.480672   -1.150411
    7          6             0       -2.570933    1.540093   -0.282464
    8          6             0       -1.473050    1.573989    0.552062
    9          6             0       -0.549505    0.548434    0.519821
   10         17             0        2.701332    1.192789    1.686129
   11          1             0        1.999108   -0.339251   -0.204966
   12          1             0        1.550130   -0.700091   -1.771074
   13          1             0        2.369278   -1.828874   -0.861265
   14          1             0        0.472122   -1.932981    0.708122
   15          1             0       -0.151281   -2.622383   -2.201475
   16          1             0       -1.013690   -3.268016   -0.804141
   17          1             0        0.688137   -3.649476   -1.054106
   18          1             0       -1.952434   -1.361753   -1.865411
   19          1             0       -3.591934    0.453316   -1.807898
   20          1             0       -3.293359    2.340277   -0.259573
   21          1             0       -1.333653    2.403529    1.226621
   22          1             0        0.320647    0.590830    1.153028
 --------------------------------------------------------------------
     1 basis functions        1 primitive gaussians
     1 alpha electrons        1 beta electrons

 Harmonic frequencies (cm**-1), IR intensities (km*mol⁻¹),
 Raman scattering activities (A**4/amu), Raman depolarization ratios,
 reduced masses (AMU), force constants (mDyne/A) and normal coordinates:
                      1                      2                      3
                        a                      a                      a 
 Frequencies --  -127.2897               -24.6285                77.8527
 Red. masses --    21.3524                11.5657                21.7598
 Frc consts  --     0.0000                 0.0000                 0.0000
 IR Inten    --   112.3334                 0.6607                24.5045
 Raman Activ --     0.0000                 0.0000                 0.0000
 Depolar     --     0.0000                 0.0000                 0.0000
 Atom AN      X      Y      Z        X      Y      Z        X      Y      Z
   1   7     0.11   0.28   0.44     0.01  -0.01   0.12     0.02  -0.13   0.12
   2   6     0.06   0.11   0.12    -0.04  -0.05  -0.08    -0.01  -0.16  -0.02
   3   6     0.21   0.14  -0.02     0.03   0.06  -0.27    -0.01  -0.04  -0.20
   4   6    -0.00   0.05   0.06    -0.03  -0.03  -0.05     0.04  -0.10   0.05
   5   6     0.00  -0.02   0.06    -0.25  -0.19   0.24     0.03   0.03   0.07
   6   6    -0.02  -0.04   0.00    -0.22  -0.17   0.24     0.15   0.14   0.09
   7   6    -0.05   0.01  -0.05     0.02   0.02  -0.03     0.29   0.12   0.10
   8   6    -0.07   0.07  -0.03     0.22   0.17  -0.30     0.28  -0.04   0.11
   9   6    -0.05   0.08   0.02     0.19   0.15  -0.31     0.16  -0.15   0.09
  10  17    -0.15  -0.48  -0.44     0.04   0.03   0.27    -0.60   0.21  -0.25
  11   1     0.03   0.02   0.21    -0.01  -0.02   0.07    -0.07   0.03  -0.00
  12   1     0.05   0.17   0.16     0.03   0.03   0.04     0.04  -0.11  -0.00
  13   1     0.02   0.07   0.06     0.00  -0.00   0.03     0.04  -0.00   0.13
  14   1    -0.03   0.01   0.03    -0.04  -0.05  -0.03    -0.02  -0.08  -0.02
  15   1     0.08   0.06  -0.00    -0.00   0.07  -0.07    -0.00   0.03  -0.05
  16   1     0.06   0.02  -0.03     0.02  -0.02  -0.09    -0.00  -0.03  -0.08
  17   1     0.07   0.05  -0.01     0.03   0.03  -0.12    -0.00  -0.02  -0.09
  18   1     0.01  -0.02   0.03    -0.13  -0.10   0.13    -0.02   0.01   0.02
  19   1    -0.01  -0.03   0.00    -0.11  -0.09   0.13     0.04   0.07   0.03
  20   1    -0.02  -0.00  -0.03     0.01   0.01  -0.01     0.11   0.06   0.03
  21   1    -0.03   0.03  -0.02     0.11   0.09  -0.14     0.11  -0.02   0.03
  22   1    -0.02   0.03   0.01     0.09   0.08  -0.14     0.05  -0.07   0.02
                      4                      5                      6
                        a                      a                      a 
 Frequencies --   107.4647               128.2264               228.4583
 Red. masses --    17.3528                 9.7055                 6.6992
 Frc consts  --     0.0000                 0.0000                 0.0000
 IR Inten    --    21.4648                13.7468                 5.8907
 Raman Activ --     0.0000                 0.0000                 0.0000
 Depolar     --     0.0000                 0.0000                 0.0000
 Atom AN      X      Y      Z        X      Y      Z        X      Y      Z
   1   7     0.02   0.12  -0.45    -0.25   0.33  -0.16    -0.11   0.12   0.17
   2   6     0.16   0.12  -0.01    -0.02  -0.07   0.04    -0.10  -0.08  -0.03
   3   6     0.04  -0.06   0.33     0.10  -0.04  -0.05     0.03  -0.22   0.13
   4   6     0.12   0.08   0.01    -0.16  -0.21   0.22    -0.06  -0.06  -0.22
   5   6     0.06  -0.02   0.10    -0.12  -0.16   0.17    -0.03   0.11  -0.25
   6   6     0.02  -0.06   0.11     0.09   0.03  -0.10    -0.03   0.12   0.01
   7   6     0.04   0.00   0.03     0.24   0.16  -0.28     0.01  -0.06   0.23
   8   6     0.12   0.11  -0.08     0.07  -0.01  -0.04     0.16  -0.09   0.02
   9   6     0.16   0.15  -0.08    -0.13  -0.20   0.21     0.12  -0.10  -0.21
  10  17    -0.46  -0.29   0.06     0.11   0.04   0.06     0.00   0.14   0.02
  11   1     0.06  -0.01  -0.10    -0.01   0.00   0.04     0.10  -0.20   0.27
  12   1    -0.08   0.08  -0.09    -0.18   0.23   0.03    -0.09   0.39   0.20
  13   1    -0.01   0.02  -0.23    -0.05   0.11  -0.23    -0.10  -0.02  -0.30
  14   1     0.12   0.10   0.00     0.06  -0.04  -0.00    -0.07   0.00   0.00
  15   1    -0.03  -0.09   0.08    -0.02   0.02  -0.00     0.08  -0.14   0.01
  16   1     0.03   0.01   0.16     0.06  -0.07   0.00    -0.02  -0.02   0.00
  17   1     0.02  -0.01   0.11     0.07   0.02  -0.07    -0.01  -0.07   0.15
  18   1     0.01  -0.02   0.04    -0.06  -0.07   0.08    -0.01   0.06  -0.11
  19   1    -0.01  -0.04   0.05     0.05   0.03  -0.05    -0.02   0.07   0.02
  20   1     0.00  -0.01   0.01     0.13   0.11  -0.16    -0.02  -0.04   0.14
  21   1     0.04   0.05  -0.04     0.04   0.01  -0.03     0.08  -0.04   0.02
  22   1     0.06   0.06  -0.05    -0.06  -0.09   0.09     0.06  -0.05  -0.09
                      7                      8                      9
                        a                      a                      a 
 Frequencies --   231.2932               305.3606               306.0674
 Red. masses --     6.9175                 3.9033                 6.9252
 Frc consts  --     0.0000                 0.0000                 0.0000
 IR Inten    --     3.9841                 4.5702                 7.0458
 Raman Activ --     0.0000                 0.0000                 0.0000
 Depolar     --     0.0000                 0.0000                 0.0000
 Atom AN      X      Y      Z        X      Y      Z        X      Y      Z
   1   7     0.08  -0.23  -0.02    -0.11   0.18   0.11    -0.30   0.32   0.02
   2   6     0.03  -0.05   0.04    -0.02  -0.05   0.05    -0.07  -0.05   0.09
   3   6    -0.31   0.20  -0.20    -0.26   0.04   0.04    -0.23   0.08  -0.04
   4   6     0.15   0.06   0.20     0.04  -0.03  -0.01     0.02  -0.05   0.13
   5   6     0.22  -0.04   0.12     0.12  -0.01  -0.09     0.21  -0.04  -0.08
   6   6     0.12  -0.15  -0.04     0.11  -0.03  -0.11     0.11  -0.15  -0.04
   7   6    -0.04  -0.10  -0.07    -0.01  -0.16   0.07     0.01  -0.23   0.07
   8   6    -0.10   0.04  -0.01     0.05  -0.06  -0.01     0.14   0.01  -0.11
   9   6     0.03   0.13   0.14     0.14   0.04  -0.11     0.16   0.04  -0.02
  10  17    -0.07   0.10  -0.04     0.02  -0.00   0.02     0.03  -0.04   0.01
  11   1     0.21  -0.28   0.16    -0.10   0.08   0.03    -0.21   0.21  -0.07
  12   1    -0.06   0.25   0.13    -0.03   0.03   0.02    -0.11  -0.06  -0.05
  13   1    -0.10  -0.16  -0.34     0.03   0.11   0.06     0.04   0.20   0.13
  14   1     0.01  -0.08  -0.01     0.01  -0.03   0.01     0.00  -0.04   0.01
  15   1    -0.06   0.12  -0.05    -0.55   0.12   0.08     0.21   0.01  -0.04
  16   1    -0.12   0.11  -0.08     0.14  -0.20   0.35    -0.21   0.21  -0.21
  17   1    -0.15  -0.01  -0.09     0.12   0.14  -0.39    -0.24  -0.12   0.18
  18   1     0.09  -0.02   0.04     0.02  -0.00  -0.02     0.11   0.02  -0.06
  19   1     0.06  -0.08  -0.04     0.04   0.00  -0.05     0.04  -0.04  -0.02
  20   1    -0.03  -0.05  -0.05    -0.04  -0.08   0.06    -0.03  -0.10   0.05
  21   1    -0.07   0.03  -0.02    -0.00  -0.02   0.00     0.04   0.04  -0.07
  22   1     0.01   0.08   0.04     0.05   0.03  -0.05     0.05   0.02  -0.01
                     10                     11                     12
                        a                      a                      a 
 Frequencies --   341.5118               361.2372               441.5535
 Red. masses --     8.9629                 8.6523                 9.0120
 Frc consts  --     0.0000                 0.0000                 0.0000
 IR Inten    --     6.3953                 1.8956                 6.8905
 Raman Activ --     0.0000                 0.0000                 0.0000
 Depolar     --     0.0000                 0.0000                 0.0000
 Atom AN      X      Y      Z        X      Y      Z        X      Y      Z
   1   7    -0.31  -0.18  -0.07     0.01   0.05   0.01     0.04   0.16   0.06
   2   6    -0.16  -0.16   0.17     0.02   0.02  -0.02     0.00  -0.21  -0.37
   3   6     0.39  -0.16  -0.14    -0.05   0.02   0.02    -0.11  -0.50  -0.11
   4   6    -0.03   0.01   0.23     0.01   0.00  -0.04     0.22   0.12   0.03
   5   6     0.13   0.12   0.04    -0.23  -0.22   0.28     0.14   0.11   0.18
   6   6     0.11   0.11  -0.10     0.20   0.18  -0.27     0.00  -0.01   0.08
   7   6    -0.19  -0.03   0.13     0.03  -0.00  -0.01    -0.09   0.14  -0.10
   8   6    -0.07   0.15  -0.02    -0.20  -0.23   0.30    -0.17   0.08   0.02
   9   6     0.08   0.26  -0.06     0.22   0.17  -0.29    -0.02   0.16   0.10
  10  17    -0.00  -0.03  -0.03    -0.00  -0.00   0.00     0.02   0.01   0.01
  11   1    -0.03  -0.03  -0.08    -0.01   0.02   0.00    -0.15   0.04   0.11
  12   1    -0.17  -0.08  -0.02     0.01   0.01  -0.00     0.09   0.10   0.03
  13   1    -0.08  -0.05  -0.06     0.01   0.02   0.02     0.11   0.13   0.07
  14   1    -0.04  -0.07   0.04     0.00   0.01  -0.00    -0.01  -0.11  -0.11
  15   1     0.12   0.02  -0.03     0.07  -0.02  -0.01    -0.06  -0.29  -0.06
  16   1     0.16  -0.22  -0.12    -0.06   0.08  -0.04    -0.02  -0.09   0.05
  17   1     0.23   0.06  -0.07    -0.08  -0.04   0.08    -0.03  -0.13   0.06
  18   1     0.07   0.03   0.00    -0.15  -0.14   0.19     0.05   0.01   0.07
  19   1     0.08   0.04  -0.09     0.12   0.12  -0.17     0.00  -0.07   0.03
  20   1    -0.11  -0.06   0.08     0.02   0.01  -0.01    -0.03   0.04  -0.06
  21   1    -0.03   0.06  -0.03    -0.14  -0.14   0.19    -0.08   0.02   0.02
  22   1     0.05   0.14  -0.06     0.13   0.12  -0.18    -0.04   0.09   0.07
                     13                     14                     15
                        a                      a                      a 
 Frequencies --   476.3786               553.2606               588.9080
 Red. masses --     9.9156                 9.2498                11.1077
 Frc consts  --     0.0000                 0.0000                 0.0000
 IR Inten    --     6.0347                 8.2239                 0.5285
 Raman Activ --     0.0000                 0.0000                 0.0000
 Depolar     --     0.0000                 0.0000                 0.0000
 Atom AN      X      Y      Z        X      Y      Z        X      Y      Z
   1   7     0.31   0.06  -0.05    -0.10  -0.00   0.01     0.01  -0.00  -0.01
   2   6     0.27  -0.14   0.02     0.20  -0.27   0.33    -0.04   0.04  -0.08
   3   6    -0.07  -0.04   0.00     0.00   0.04   0.01    -0.03  -0.04  -0.04
   4   6    -0.16  -0.40   0.28     0.28  -0.11  -0.24    -0.12  -0.05  -0.09
   5   6    -0.07   0.07   0.07     0.13   0.07  -0.05     0.04  -0.40  -0.19
   6   6     0.06   0.25  -0.07     0.01   0.02   0.27     0.42  -0.11   0.18
   7   6    -0.31   0.08   0.20    -0.07   0.34  -0.11     0.10   0.02   0.16
   8   6    -0.00   0.09  -0.22    -0.19  -0.07   0.03    -0.02   0.44   0.24
   9   6    -0.14  -0.08  -0.13    -0.11  -0.03  -0.28    -0.37   0.12  -0.16
  10  17    -0.00   0.00   0.01     0.00  -0.00  -0.00     0.00   0.00   0.00
  11   1     0.05   0.02   0.01    -0.05   0.05  -0.05    -0.00  -0.01   0.01
  12   1     0.09   0.02  -0.01    -0.22  -0.02   0.02     0.04   0.01  -0.00
  13   1     0.10   0.04   0.00     0.08   0.10  -0.10    -0.01  -0.01   0.02
  14   1     0.15  -0.06  -0.01     0.04  -0.05   0.10    -0.01   0.01  -0.02
  15   1    -0.04   0.02   0.01     0.02   0.18   0.04    -0.01  -0.05  -0.02
  16   1    -0.06   0.10   0.03    -0.04   0.05  -0.07     0.00  -0.02   0.01
  17   1    -0.11  -0.10  -0.04    -0.07  -0.07  -0.11     0.00   0.00   0.01
  18   1    -0.02   0.10  -0.08    -0.09   0.02   0.01    -0.03  -0.08  -0.08
  19   1     0.10   0.11  -0.13    -0.05  -0.10   0.15     0.11   0.04   0.06
  20   1    -0.10   0.01   0.09    -0.03   0.08  -0.03    -0.06  -0.07  -0.07
  21   1     0.12   0.06  -0.14    -0.04  -0.12   0.12     0.04   0.11   0.07
  22   1    -0.00   0.05  -0.09    -0.09  -0.02   0.00    -0.08  -0.03  -0.07
                     16                     17                     18
                        a                      a                      a 
 Frequencies --   658.6938               745.9465               765.0813
 Red. masses --     9.3122                 6.7135                 7.2107
 Frc consts  --     0.0000                 0.0000                 0.0000
 IR Inten    --     9.3761                15.7381                21.7038
 Raman Activ --     0.0000                 0.0000                 0.0000
 Depolar     --     0.0000                 0.0000                 0.0000
 Atom AN      X      Y      Z        X      Y      Z        X      Y      Z
   1   7     0.06   0.02  -0.01     0.22   0.04  -0.05     0.12  -0.01   0.00
   2   6    -0.02   0.03  -0.03     0.07  -0.14   0.14     0.16  -0.21   0.20
   3   6    -0.00  -0.01  -0.00    -0.02  -0.14  -0.05    -0.01  -0.15  -0.03
   4   6    -0.28  -0.20   0.32    -0.21  -0.02   0.17     0.08   0.22  -0.21
   5   6     0.12   0.12  -0.24    -0.07   0.09  -0.24    -0.24  -0.07  -0.01
   6   6    -0.21  -0.19   0.24    -0.16   0.03  -0.22    -0.26  -0.04  -0.12
   7   6     0.18   0.11  -0.19     0.22  -0.09  -0.10     0.08  -0.22   0.09
   8   6    -0.17  -0.14   0.28     0.08   0.22   0.11     0.01   0.17   0.20
   9   6     0.15   0.17  -0.20     0.07   0.19   0.01    -0.05   0.08   0.17
  10  17    -0.00  -0.00   0.00    -0.00  -0.00  -0.00     0.00  -0.00   0.00
  11   1     0.03  -0.01   0.01     0.04   0.03  -0.03    -0.02   0.05  -0.04
  12   1     0.07  -0.00  -0.01    -0.00   0.01  -0.01    -0.17  -0.01   0.02
  13   1    -0.02  -0.03   0.03     0.09   0.05  -0.04     0.16   0.13  -0.10
  14   1     0.04  -0.02  -0.02     0.08  -0.05   0.03    -0.00  -0.02   0.07
  15   1    -0.02  -0.03  -0.00     0.01   0.05   0.00    -0.00   0.10   0.02
  16   1     0.01  -0.00   0.02    -0.03  -0.01  -0.05    -0.03  -0.01  -0.05
  17   1     0.01   0.00   0.00    -0.05  -0.09  -0.07    -0.06  -0.11  -0.13
  18   1     0.15   0.13  -0.21    -0.16  -0.15   0.17     0.09   0.09  -0.17
  19   1     0.00   0.03  -0.02    -0.26  -0.09   0.21     0.05   0.21  -0.20
  20   1     0.15   0.12  -0.19    -0.13  -0.21   0.24     0.19   0.10  -0.20
  21   1     0.00   0.02  -0.00    -0.20  -0.05   0.22     0.06   0.20  -0.14
  22   1     0.15   0.14  -0.20    -0.08  -0.10   0.15     0.09   0.08  -0.09
                     19                     20                     21
                        a                      a                      a 
 Frequencies --   875.3492               892.0617               905.3146
 Red. masses --     3.3779                 8.5574                 3.5342
 Frc consts  --     0.0000                 0.0000                 0.0000
 IR Inten    --     3.8775                 3.8241                 4.7609
 Raman Activ --     0.0000                 0.0000                 0.0000
 Depolar     --     0.0000                 0.0000                 0.0000
 Atom AN      X      Y      Z        X      Y      Z        X      Y      Z
   1   7    -0.03  -0.01   0.04     0.39   0.24  -0.11    -0.05  -0.03  -0.01
   2   6     0.05   0.01  -0.02    -0.41   0.04   0.26     0.04  -0.01  -0.04
   3   6     0.02   0.01  -0.02    -0.24  -0.22  -0.02     0.03   0.04   0.01
   4   6     0.00  -0.00   0.01    -0.02   0.07  -0.03    -0.01  -0.04   0.04
   5   6    -0.16  -0.14   0.24     0.04  -0.04   0.00     0.13   0.15  -0.14
   6   6    -0.09  -0.07   0.08     0.09  -0.04   0.14    -0.16  -0.12   0.15
   7   6     0.07   0.05  -0.09    -0.08   0.07   0.02    -0.09  -0.13   0.15
   8   6     0.10   0.10  -0.12     0.01  -0.11  -0.12     0.05   0.07  -0.04
   9   6     0.08   0.09  -0.14     0.05  -0.03  -0.00     0.08   0.10  -0.16
  10  17    -0.00   0.00  -0.00    -0.00  -0.00  -0.00    -0.00   0.00  -0.00
  11   1     0.04   0.01  -0.03     0.22   0.07  -0.11    -0.04  -0.02   0.03
  12   1    -0.04  -0.02   0.01     0.07  -0.00  -0.05     0.04   0.02   0.00
  13   1    -0.03  -0.02  -0.01     0.03  -0.00  -0.03    -0.02  -0.01   0.02
  14   1    -0.00  -0.03  -0.01    -0.07   0.10   0.09     0.03  -0.02  -0.02
  15   1    -0.03  -0.04  -0.01     0.10   0.10   0.01    -0.00  -0.01  -0.00
  16   1     0.01   0.04   0.04    -0.04  -0.33  -0.27     0.01   0.04   0.03
  17   1    -0.00  -0.01  -0.00     0.09   0.09  -0.02    -0.01  -0.01   0.02
  18   1     0.32   0.29  -0.40     0.01  -0.01   0.00    -0.22  -0.21   0.31
  19   1     0.13   0.12  -0.18     0.11   0.03  -0.08     0.25   0.24  -0.35
  20   1    -0.10  -0.10   0.15     0.00   0.04  -0.03     0.17   0.15  -0.22
  21   1    -0.23  -0.21   0.31    -0.01  -0.08   0.03    -0.05  -0.03   0.06
  22   1    -0.18  -0.19   0.24    -0.01  -0.04   0.03    -0.24  -0.24   0.32
                     22                     23                     24
                        a                      a                      a 
 Frequencies --   914.9741               929.2618               939.2148
 Red. masses --     3.2693                 3.9292                 3.5298
 Frc consts  --     0.0000                 0.0000                 0.0000
 IR Inten    --    31.2537                 4.3679                 6.7961
 Raman Activ --     0.0000                 0.0000                 0.0000
 Depolar     --     0.0000                 0.0000                 0.0000
 Atom AN      X      Y      Z        X      Y      Z        X      Y      Z
   1   7    -0.01  -0.20  -0.25    -0.00  -0.04  -0.00     0.03   0.02   0.01
   2   6    -0.09  -0.10  -0.02     0.01  -0.01  -0.02    -0.02   0.02   0.01
   3   6    -0.04   0.13   0.20     0.01   0.03   0.01    -0.02  -0.01  -0.02
   4   6     0.02  -0.02   0.00     0.02   0.03  -0.05     0.03   0.02  -0.02
   5   6    -0.03  -0.02   0.04     0.04   0.03  -0.11    -0.02  -0.00   0.09
   6   6    -0.01   0.00  -0.03    -0.14  -0.14   0.22    -0.02  -0.01  -0.01
   7   6     0.03  -0.01  -0.01     0.13   0.16  -0.20     0.12   0.08  -0.14
   8   6    -0.01   0.01   0.03     0.03   0.03  -0.06    -0.18  -0.17   0.26
   9   6     0.01   0.02  -0.04    -0.11  -0.12   0.21     0.07   0.09  -0.17
  10  17     0.01   0.01  -0.01     0.00  -0.00   0.00    -0.00  -0.00  -0.00
  11   1    -0.48  -0.14   0.30    -0.06  -0.00   0.02     0.05   0.02  -0.03
  12   1     0.31   0.26   0.04    -0.03   0.01   0.01    -0.04  -0.02  -0.00
  13   1     0.24   0.18   0.08     0.06   0.05  -0.02    -0.01  -0.01  -0.02
  14   1     0.12   0.09   0.01    -0.02   0.00  -0.00    -0.02  -0.01   0.00
  15   1     0.14   0.23   0.08     0.00   0.00   0.00    -0.00  -0.03  -0.01
  16   1    -0.01  -0.15  -0.17     0.00   0.01   0.01     0.00  -0.02  -0.00
  17   1     0.10   0.14   0.00     0.00   0.01   0.01     0.01   0.01   0.02
  18   1     0.06   0.06  -0.07    -0.13  -0.11   0.14     0.02   0.01   0.01
  19   1    -0.01  -0.00   0.01     0.27   0.26  -0.35     0.05   0.03  -0.07
  20   1    -0.01  -0.02   0.02    -0.28  -0.25   0.36    -0.19  -0.19   0.27
  21   1     0.01   0.01  -0.00    -0.04  -0.03   0.05     0.36   0.31  -0.46
  22   1    -0.05  -0.01   0.06     0.19   0.20  -0.26    -0.21  -0.22   0.28
                     25                     26                     27
                        a                      a                      a 
 Frequencies --   947.7699               982.3147              1068.1235
 Red. masses --     3.7276                10.2152                 5.6388
 Frc consts  --     0.0000                 0.0000                 0.0000
 IR Inten    --    20.6759                 5.6489                22.3792
 Raman Activ --     0.0000                 0.0000                 0.0000
 Depolar     --     0.0000                 0.0000                 0.0000
 Atom AN      X      Y      Z        X      Y      Z        X      Y      Z
   1   7    -0.25   0.19  -0.05    -0.04  -0.06   0.00     0.09  -0.13   0.04
   2   6     0.13   0.03   0.06     0.10   0.01  -0.01    -0.14   0.16  -0.18
   3   6     0.05  -0.27   0.02     0.09  -0.08  -0.00     0.20  -0.18   0.07
   4   6     0.07   0.01  -0.08    -0.17   0.17   0.02    -0.23   0.06   0.04
   5   6     0.01   0.05   0.06    -0.14  -0.35  -0.34     0.07   0.20   0.17
   6   6    -0.04  -0.01  -0.01     0.17   0.04   0.14     0.18  -0.01   0.11
   7   6     0.06  -0.04  -0.03    -0.25   0.26   0.01     0.08  -0.14  -0.04
   8   6     0.00   0.03   0.04    -0.08  -0.16  -0.12    -0.00  -0.09  -0.07
   9   6    -0.05  -0.01   0.01     0.40   0.12   0.30    -0.09   0.00  -0.09
  10  17    -0.00   0.01   0.00     0.00   0.00  -0.00     0.00  -0.00  -0.00
  11   1     0.12  -0.10   0.07    -0.07  -0.02   0.03    -0.09   0.04  -0.02
  12   1     0.39   0.03  -0.07     0.00   0.02   0.01    -0.19   0.00   0.05
  13   1    -0.38  -0.27   0.23     0.02   0.02   0.00     0.18   0.13  -0.11
  14   1     0.21   0.19   0.05     0.03   0.04   0.01    -0.25   0.31   0.06
  15   1     0.01   0.26   0.08    -0.03   0.07   0.02    -0.05   0.24   0.09
  16   1    -0.07   0.01  -0.12    -0.02   0.10   0.03    -0.05   0.19   0.00
  17   1    -0.12  -0.23  -0.26    -0.08  -0.13  -0.11    -0.16  -0.27  -0.26
  18   1     0.00   0.03   0.00    -0.08  -0.07  -0.12    -0.00   0.06   0.06
  19   1     0.02   0.01  -0.04     0.02   0.07   0.06     0.08  -0.09   0.01
  20   1    -0.02  -0.04   0.03    -0.07   0.07  -0.00    -0.01  -0.07  -0.05
  21   1     0.00   0.03  -0.01    -0.06   0.02  -0.10    -0.02  -0.03  -0.02
  22   1     0.01   0.03  -0.03     0.04   0.00   0.20    -0.03  -0.04  -0.02
                     28                     29                     30
                        a                      a                      a 
 Frequencies --  1074.4335              1099.6849              1126.2090
 Red. masses --     8.3057                 6.3437                 5.4762
 Frc consts  --     0.0000                 0.0000                 0.0000
 IR Inten    --    32.1397                 0.8910                 9.6557
 Raman Activ --     0.0000                 0.0000                 0.0000
 Depolar     --     0.0000                 0.0000                 0.0000
 Atom AN      X      Y      Z        X      Y      Z        X      Y      Z
   1   7     0.14   0.16  -0.18     0.01  -0.02   0.03    -0.03   0.04   0.13
   2   6    -0.48  -0.42   0.07    -0.02   0.04  -0.08     0.08  -0.10  -0.29
   3   6     0.29   0.20   0.07     0.01  -0.02   0.05    -0.09   0.06   0.21
   4   6     0.06  -0.02  -0.10    -0.03  -0.02   0.00     0.03  -0.22  -0.09
   5   6    -0.01   0.03   0.03     0.10  -0.09   0.00    -0.07   0.14   0.04
   6   6     0.02  -0.02   0.01    -0.20  -0.13  -0.24     0.07   0.03   0.07
   7   6    -0.03  -0.01  -0.03    -0.30   0.30  -0.01    -0.07  -0.07  -0.10
   8   6    -0.01   0.07   0.06     0.16   0.21   0.26    -0.02   0.17   0.11
   9   6     0.06  -0.00   0.05     0.13  -0.10   0.02     0.23  -0.06   0.12
  10  17    -0.00  -0.00  -0.00    -0.00   0.00   0.00    -0.00   0.00   0.00
  11   1     0.07  -0.02   0.00    -0.00   0.01  -0.01     0.11   0.04  -0.07
  12   1     0.22   0.04  -0.06    -0.04  -0.00   0.01    -0.10  -0.07   0.00
  13   1    -0.05  -0.05   0.05     0.03   0.02  -0.02    -0.04  -0.03  -0.04
  14   1    -0.13  -0.21  -0.01    -0.05   0.07   0.00     0.00  -0.01  -0.07
  15   1    -0.10   0.01   0.03     0.01   0.08   0.03     0.10   0.17   0.08
  16   1     0.03   0.33   0.24    -0.02   0.01  -0.02    -0.02  -0.14  -0.15
  17   1    -0.10  -0.11   0.01    -0.03  -0.04  -0.07     0.10   0.12   0.02
  18   1    -0.04   0.05  -0.03     0.20  -0.12   0.08    -0.28   0.16  -0.09
  19   1     0.03  -0.04  -0.02     0.05  -0.35  -0.20     0.05  -0.08  -0.01
  20   1    -0.05  -0.04  -0.07    -0.11   0.07  -0.03    -0.20  -0.18  -0.27
  21   1    -0.04   0.05  -0.01     0.32  -0.08   0.19    -0.27   0.19  -0.08
  22   1     0.04  -0.03  -0.00     0.13  -0.26  -0.10     0.12  -0.18  -0.02
                     31                     32                     33
                        a                      a                      a 
 Frequencies --  1155.9671              1181.8602              1211.3162
 Red. masses --     6.2497                 1.3020                 2.1097
 Frc consts  --     0.0000                 0.0000                 0.0000
 IR Inten    --     7.1909                 0.4432                 2.7133
 Raman Activ --     0.0000                 0.0000                 0.0000
 Depolar     --     0.0000                 0.0000                 0.0000
 Atom AN      X      Y      Z        X      Y      Z        X      Y      Z
   1   7     0.03   0.07   0.12    -0.00  -0.01  -0.01    -0.02   0.01   0.00
   2   6    -0.10  -0.19  -0.42     0.00   0.03   0.04     0.05  -0.07  -0.04
   3   6     0.01   0.08   0.31    -0.00  -0.01  -0.03    -0.01   0.03   0.07
   4   6     0.14  -0.11   0.06    -0.04  -0.06  -0.06    -0.09   0.15   0.02
   5   6     0.08  -0.18  -0.07     0.05  -0.05   0.01     0.09  -0.01   0.06
   6   6    -0.12   0.00  -0.09     0.01  -0.02  -0.01     0.02   0.06   0.06
   7   6     0.04   0.06   0.07     0.03   0.04   0.05    -0.03   0.05   0.01
   8   6    -0.03  -0.01  -0.03    -0.02   0.03   0.01    -0.08  -0.02  -0.07
   9   6    -0.08   0.10   0.01    -0.03   0.03  -0.00    -0.03  -0.11  -0.08
  10  17    -0.00  -0.00   0.00    -0.00   0.00   0.00    -0.00   0.00   0.00
  11   1     0.14   0.06  -0.09    -0.01  -0.01   0.01     0.03  -0.00  -0.01
  12   1    -0.11  -0.09  -0.01     0.01   0.01   0.00     0.02   0.00  -0.00
  13   1    -0.06  -0.04  -0.06     0.01   0.01   0.01     0.00   0.01   0.01
  14   1    -0.10  -0.04  -0.10    -0.01   0.02   0.02     0.02  -0.14  -0.05
  15   1     0.10   0.30   0.13    -0.01  -0.03  -0.01     0.04   0.05   0.02
  16   1    -0.04  -0.03  -0.11     0.00   0.00   0.01    -0.00  -0.01  -0.00
  17   1     0.02   0.02  -0.09     0.00   0.00   0.01    -0.01  -0.01  -0.05
  18   1     0.13  -0.11   0.02    -0.11   0.05  -0.05     0.46  -0.22   0.20
  19   1    -0.09   0.16   0.04     0.14  -0.40  -0.17    -0.12   0.35   0.16
  20   1     0.18   0.17   0.26     0.35   0.30   0.47    -0.01   0.01  -0.00
  21   1     0.05  -0.03   0.02    -0.44   0.23  -0.17    -0.28   0.12  -0.12
  22   1    -0.13   0.28   0.13     0.06  -0.16  -0.08     0.17  -0.47  -0.23
                     34                     35                     36
                        a                      a                      a 
 Frequencies --  1221.5800              1281.7741              1287.3011
 Red. masses --     6.2764                 4.0959                 3.4307
 Frc consts  --     0.0000                 0.0000                 0.0000
 IR Inten    --     5.6780                24.0207                 2.2513
 Raman Activ --     0.0000                 0.0000                 0.0000
 Depolar     --     0.0000                 0.0000                 0.0000
 Atom AN      X      Y      Z        X      Y      Z        X      Y      Z
   1   7     0.01  -0.03  -0.04     0.01  -0.11   0.17    -0.00  -0.01   0.12
   2   6    -0.12   0.17   0.09    -0.37   0.12  -0.05    -0.08  -0.23  -0.05
   3   6     0.01  -0.03  -0.17     0.09  -0.06  -0.05    -0.02   0.10  -0.06
   4   6     0.25  -0.44  -0.04     0.19   0.00   0.08    -0.17   0.02  -0.15
   5   6     0.13  -0.13   0.01     0.06  -0.05   0.01    -0.13   0.10  -0.03
   6   6    -0.16   0.07  -0.08    -0.02  -0.06  -0.06     0.04   0.05   0.07
   7   6    -0.08   0.07  -0.01    -0.04  -0.02  -0.04     0.08   0.06   0.11
   8   6     0.02   0.14   0.11    -0.06   0.04  -0.01     0.06  -0.04   0.02
   9   6     0.14  -0.08   0.03    -0.02   0.01   0.00     0.04  -0.09  -0.04
  10  17     0.00  -0.00  -0.00    -0.00  -0.00   0.00    -0.00  -0.00   0.00
  11   1    -0.06  -0.01   0.02     0.03   0.08  -0.10     0.07   0.03  -0.05
  12   1    -0.00   0.04   0.01    -0.07   0.01   0.06    -0.04  -0.05   0.01
  13   1     0.03   0.02   0.01     0.10   0.08  -0.09     0.02   0.02  -0.06
  14   1    -0.22   0.44   0.16     0.68   0.09  -0.09     0.45   0.29   0.03
  15   1    -0.06  -0.11  -0.06    -0.06   0.03   0.01     0.02  -0.05  -0.03
  16   1     0.01   0.05   0.06    -0.02   0.10   0.02     0.03   0.01   0.07
  17   1    -0.03  -0.03   0.01    -0.02  -0.04   0.00     0.00   0.04   0.05
  18   1     0.08  -0.06   0.02    -0.21   0.10  -0.09     0.38  -0.18   0.16
  19   1    -0.14   0.27   0.09    -0.07   0.18   0.06     0.10  -0.24  -0.09
  20   1    -0.05  -0.00  -0.04     0.06   0.06   0.08    -0.09  -0.08  -0.12
  21   1    -0.24   0.16  -0.06     0.08  -0.03   0.03    -0.17   0.09  -0.07
  22   1    -0.01   0.11   0.08     0.08  -0.19  -0.10    -0.11   0.30   0.13
                     37                     38                     39
                        a                      a                      a 
 Frequencies --  1312.4820              1346.9711              1362.3195
 Red. masses --     5.9143                11.0602                 2.7264
 Frc consts  --     0.0000                 0.0000                 0.0000
 IR Inten    --    10.3741                 2.7055               168.8757
 Raman Activ --     0.0000                 0.0000                 0.0000
 Depolar     --     0.0000                 0.0000                 0.0000
 Atom AN      X      Y      Z        X      Y      Z        X      Y      Z
   1   7    -0.05   0.06   0.03     0.03  -0.02   0.00     0.31   0.16  -0.00
   2   6     0.14  -0.46  -0.09    -0.03   0.11   0.04    -0.03  -0.04  -0.00
   3   6    -0.07   0.13  -0.09     0.01  -0.01   0.03     0.02   0.05   0.00
   4   6    -0.16   0.08  -0.02    -0.21  -0.17  -0.30    -0.01   0.02  -0.00
   5   6     0.12  -0.03   0.06     0.32  -0.17   0.12    -0.01   0.02   0.01
   6   6     0.04   0.04   0.05    -0.14   0.35   0.15     0.03  -0.04  -0.01
   7   6    -0.08  -0.12  -0.15    -0.18  -0.16  -0.24    -0.01  -0.00  -0.01
   8   6    -0.00  -0.05  -0.03     0.34  -0.18   0.13    -0.03   0.03  -0.00
   9   6    -0.07   0.23   0.10    -0.13   0.32   0.13     0.02  -0.02  -0.00
  10  17    -0.00   0.00   0.00     0.00  -0.00  -0.00     0.01   0.00  -0.00
  11   1     0.11  -0.02  -0.01    -0.05   0.02   0.01    -0.53   0.02   0.33
  12   1     0.06  -0.04  -0.02    -0.03   0.00   0.01    -0.30  -0.29  -0.09
  13   1    -0.01   0.01  -0.00    -0.01  -0.02  -0.01    -0.35  -0.35  -0.16
  14   1    -0.06   0.54   0.18     0.13  -0.22  -0.08     0.09   0.07   0.01
  15   1     0.02  -0.06  -0.04    -0.00  -0.00   0.01    -0.04  -0.04  -0.01
  16   1     0.04  -0.01   0.07    -0.01  -0.01  -0.03     0.01  -0.05  -0.04
  17   1     0.07   0.12   0.14    -0.02  -0.03  -0.03    -0.04  -0.04   0.00
  18   1    -0.10   0.06  -0.04     0.05  -0.02   0.01     0.00   0.01  -0.00
  19   1    -0.02   0.09   0.05     0.01  -0.02  -0.01    -0.00   0.03   0.01
  20   1     0.09   0.06   0.11    -0.03  -0.03  -0.04     0.02   0.02   0.02
  21   1     0.19  -0.11   0.07    -0.03   0.01  -0.01     0.01  -0.00   0.01
  22   1     0.08  -0.21  -0.09    -0.02   0.04   0.01     0.02  -0.04  -0.02
                     40                     41                     42
                        a                      a                      a 
 Frequencies --  1403.2707              1422.8372              1439.2334
 Red. masses --     1.6666                 3.3221                 5.3280
 Frc consts  --     0.0000                 0.0000                 0.0000
 IR Inten    --    68.1072                 7.0287                41.1072
 Raman Activ --     0.0000                 0.0000                 0.0000
 Depolar     --     0.0000                 0.0000                 0.0000
 Atom AN      X      Y      Z        X      Y      Z        X      Y      Z
   1   7    -0.07   0.15  -0.11    -0.04  -0.01  -0.00    -0.10   0.04   0.14
   2   6    -0.05   0.04  -0.02    -0.01  -0.03  -0.01     0.00  -0.04  -0.02
   3   6     0.01  -0.03  -0.01     0.13   0.34   0.21     0.05   0.05   0.03
   4   6     0.03   0.02   0.03    -0.03  -0.04  -0.06     0.13   0.16   0.22
   5   6     0.03  -0.04  -0.00    -0.02   0.05   0.02     0.09  -0.18  -0.06
   6   6    -0.03   0.01  -0.02     0.06  -0.05   0.01    -0.19   0.12  -0.05
   7   6     0.00   0.03   0.02    -0.03  -0.04  -0.05     0.11   0.13   0.18
   8   6     0.04  -0.03   0.01    -0.05   0.06   0.00     0.15  -0.20  -0.02
   9   6    -0.02  -0.00  -0.02     0.05  -0.01   0.03    -0.17   0.05  -0.09
  10  17    -0.00   0.01  -0.00    -0.00   0.00  -0.00     0.00  -0.00   0.00
  11   1     0.29  -0.50   0.46     0.09  -0.03  -0.01    -0.06   0.05  -0.00
  12   1    -0.22  -0.42  -0.17     0.01   0.02   0.01     0.36  -0.25  -0.13
  13   1     0.22   0.23   0.19     0.06   0.06   0.04     0.04   0.07  -0.47
  14   1     0.06  -0.00  -0.02     0.03   0.03   0.00    -0.08   0.06   0.03
  15   1    -0.01   0.03   0.01    -0.18  -0.46  -0.07    -0.09  -0.06  -0.00
  16   1    -0.02   0.04  -0.00     0.05  -0.36  -0.37     0.00  -0.06  -0.09
  17   1     0.02   0.01  -0.00    -0.30  -0.29  -0.24    -0.06  -0.05   0.00
  18   1    -0.03   0.01  -0.02     0.01   0.01   0.01    -0.12   0.02  -0.07
  19   1    -0.01   0.01  -0.01    -0.00   0.04   0.03    -0.01  -0.10  -0.07
  20   1    -0.02  -0.01  -0.02     0.05   0.04   0.06    -0.14  -0.11  -0.17
  21   1    -0.03   0.01  -0.01     0.05  -0.01   0.03    -0.14   0.03  -0.08
  22   1    -0.01  -0.01  -0.00     0.01   0.01   0.02    -0.02  -0.07  -0.07
                     43                     44                     45
                        a                      a                      a 
 Frequencies --  1444.2125              1479.0263              1497.3187
 Red. masses --     5.1507                 8.8233                 1.5245
 Frc consts  --     0.0000                 0.0000                 0.0000
 IR Inten    --    36.9949                 1.8041                11.9389
 Raman Activ --     0.0000                 0.0000                 0.0000
 Depolar     --     0.0000                 0.0000                 0.0000
 Atom AN      X      Y      Z        X      Y      Z        X      Y      Z
   1   7     0.11  -0.04  -0.13    -0.02   0.01   0.01    -0.01  -0.00  -0.00
   2   6    -0.03  -0.10  -0.08    -0.07   0.10   0.00    -0.01   0.04  -0.03
   3   6     0.02   0.06   0.03    -0.02   0.00   0.00    -0.01   0.10  -0.18
   4   6     0.15   0.13   0.21     0.28  -0.30   0.01     0.00   0.00   0.01
   5   6     0.05  -0.17  -0.08    -0.25  -0.00  -0.19     0.01  -0.00   0.01
   6   6    -0.17   0.14  -0.03    -0.04   0.31   0.18    -0.00  -0.01  -0.01
   7   6     0.13   0.11   0.17     0.20  -0.17   0.03    -0.01   0.00  -0.00
   8   6     0.11  -0.19  -0.05    -0.29   0.04  -0.19     0.01   0.00   0.01
   9   6    -0.17   0.09  -0.06     0.00   0.27   0.19    -0.00  -0.01  -0.01
  10  17     0.00   0.00   0.00    -0.00   0.00   0.00    -0.00  -0.00   0.00
  11   1     0.02   0.02  -0.05    -0.01  -0.02   0.03     0.02  -0.01   0.00
  12   1    -0.36   0.30   0.16     0.03  -0.05  -0.03    -0.01  -0.00   0.00
  13   1    -0.09  -0.12   0.46     0.01   0.02  -0.05     0.02   0.02   0.02
  14   1     0.01   0.12   0.02    -0.03   0.01   0.00    -0.00  -0.04  -0.02
  15   1    -0.01  -0.06  -0.01     0.09  -0.01  -0.01     0.11   0.34   0.05
  16   1     0.01  -0.04  -0.04     0.02  -0.01   0.06     0.32  -0.47   0.32
  17   1    -0.03  -0.03  -0.04    -0.02  -0.03  -0.07    -0.39  -0.31   0.37
  18   1    -0.09   0.01  -0.07     0.21  -0.14   0.05    -0.02   0.02  -0.02
  19   1     0.01  -0.12  -0.08     0.10  -0.22  -0.08    -0.00   0.01   0.00
  20   1    -0.12  -0.11  -0.17     0.04  -0.07  -0.02    -0.00   0.00   0.00
  21   1    -0.11   0.01  -0.07     0.18  -0.12   0.05    -0.00   0.00   0.00
  22   1    -0.00  -0.10  -0.08     0.12  -0.22  -0.07    -0.00   0.01   0.00
                     46                     47                     48
                        a                      a                      a 
 Frequencies --  1507.0870              1602.6312              1610.7905
 Red. masses --     1.6906                11.5234                11.5184
 Frc consts  --     0.0000                 0.0000                 0.0000
 IR Inten    --     4.7697                 0.3287                 1.1606
 Raman Activ --     0.0000                 0.0000                 0.0000
 Depolar     --     0.0000                 0.0000                 0.0000
 Atom AN      X      Y      Z        X      Y      Z        X      Y      Z
   1   7    -0.00  -0.01  -0.01    -0.00   0.01   0.00     0.01  -0.00  -0.00
   2   6     0.05  -0.01  -0.00    -0.02  -0.02  -0.03     0.01  -0.02   0.01
   3   6     0.19  -0.07  -0.06     0.01  -0.00   0.00    -0.00   0.00  -0.00
   4   6    -0.00  -0.04  -0.03     0.25   0.22   0.34    -0.20   0.17  -0.03
   5   6    -0.04   0.01  -0.02    -0.21  -0.04  -0.19     0.38  -0.26   0.10
   6   6     0.00   0.03   0.03     0.06   0.28   0.23    -0.23   0.36   0.08
   7   6     0.03  -0.02   0.01    -0.28  -0.28  -0.40     0.17  -0.13   0.03
   8   6    -0.05   0.01  -0.03     0.20   0.08   0.20    -0.39   0.26  -0.10
   9   6     0.01   0.03   0.03    -0.02  -0.27  -0.20     0.23  -0.37  -0.09
  10  17    -0.00  -0.00  -0.00    -0.00  -0.00  -0.00     0.00  -0.00  -0.00
  11   1     0.01   0.00  -0.01     0.00   0.00  -0.00     0.00   0.00  -0.00
  12   1    -0.02   0.04   0.02    -0.00   0.00   0.00    -0.00   0.01   0.00
  13   1    -0.00  -0.00   0.05    -0.01  -0.00   0.00     0.00  -0.00   0.00
  14   1    -0.01  -0.01  -0.00    -0.03   0.04   0.01     0.02  -0.01  -0.01
  15   1    -0.67   0.22   0.11    -0.02   0.00   0.00     0.01  -0.00  -0.00
  16   1    -0.13   0.02  -0.38    -0.00   0.01  -0.01     0.00  -0.00   0.00
  17   1     0.00   0.05   0.50    -0.00  -0.01  -0.00     0.00   0.00  -0.00
  18   1     0.10  -0.05   0.04     0.06  -0.06  -0.00    -0.09   0.03  -0.05
  19   1     0.01  -0.03  -0.01     0.06  -0.05   0.01     0.00  -0.08  -0.05
  20   1     0.01  -0.00   0.00     0.07   0.05   0.09     0.03  -0.05  -0.01
  21   1     0.03  -0.02   0.01    -0.02   0.06   0.03     0.09  -0.02   0.05
  22   1     0.01  -0.02  -0.00    -0.05   0.06   0.00    -0.01   0.08   0.06
                     49                     50                     51
                        a                      a                      a 
 Frequencies --  2893.8605              2948.9228              3011.8581
 Red. masses --     1.7573                 1.9571                 1.9173
 Frc consts  --     0.0000                 0.0000                 0.0000
 IR Inten    --     3.5589              1178.8058                31.6248
 Raman Activ --     0.0000                 0.0000                 0.0000
 Depolar     --     0.0000                 0.0000                 0.0000
 Atom AN      X      Y      Z        X      Y      Z        X      Y      Z
   1   7     0.00   0.00  -0.00     0.08   0.20   0.17    -0.00   0.00   0.00
   2   6    -0.03   0.07  -0.25     0.01   0.00  -0.00     0.01  -0.01   0.01
   3   6    -0.00  -0.01   0.01    -0.01  -0.00  -0.00     0.21  -0.17   0.10
   4   6    -0.01   0.00  -0.01     0.00  -0.00   0.00    -0.00   0.00   0.00
   5   6     0.00   0.00   0.00     0.00   0.00   0.00    -0.00  -0.00  -0.00
   6   6     0.00  -0.00   0.00    -0.00   0.00  -0.00     0.00  -0.00   0.00
   7   6     0.00  -0.00   0.00    -0.00   0.00  -0.00     0.00  -0.00  -0.00
   8   6    -0.00   0.00  -0.00     0.00   0.00   0.00    -0.00  -0.00  -0.00
   9   6     0.00  -0.00   0.00    -0.01   0.00  -0.01     0.00   0.00   0.00
  10  17    -0.00  -0.00   0.00    -0.00  -0.01  -0.01    -0.00   0.00  -0.00
  11   1     0.00   0.00   0.00    -0.31  -0.71  -0.57     0.00  -0.00   0.00
  12   1    -0.00   0.01  -0.02     0.00   0.02  -0.01     0.00   0.00  -0.00
  13   1     0.00   0.00  -0.00     0.03  -0.01   0.01    -0.00  -0.00   0.00
  14   1     0.12  -0.27   0.92     0.00  -0.00   0.00    -0.00   0.01  -0.03
  15   1    -0.00   0.01  -0.05     0.00  -0.00   0.02    -0.00   0.07  -0.36
  16   1     0.01   0.00  -0.00     0.01   0.00  -0.01    -0.13  -0.09   0.08
  17   1    -0.01   0.01   0.00    -0.01   0.01  -0.00    -0.60   0.62  -0.07
  18   1     0.00   0.00   0.00     0.00   0.00  -0.00     0.00   0.01   0.01
  19   1    -0.00   0.00  -0.00     0.00   0.00   0.00    -0.00  -0.00  -0.00
  20   1    -0.00   0.00  -0.00     0.00  -0.00   0.00    -0.00   0.00  -0.00
  21   1     0.00   0.00   0.00    -0.00  -0.01  -0.00     0.00   0.00   0.00
  22   1    -0.00   0.00  -0.00     0.02  -0.00   0.02    -0.00  -0.00  -0.00
                     52                     53                     54
                        a                      a                      a 
 Frequencies --  3024.4411              3032.6418              3096.6203
 Red. masses --     1.9486                 1.2983                 1.7624
 Frc consts  --     0.0000                 0.0000                 0.0000
 IR Inten    --    10.3278                 8.5766                 1.5273
 Raman Activ --     0.0000                 0.0000                 0.0000
 Depolar     --     0.0000                 0.0000                 0.0000
 Atom AN      X      Y      Z        X      Y      Z        X      Y      Z
   1   7     0.00  -0.00  -0.00     0.00   0.00   0.00     0.00   0.00   0.00
   2   6    -0.00  -0.00   0.02     0.00   0.00   0.01     0.00  -0.00   0.00
   3   6    -0.18  -0.09   0.21     0.07   0.09   0.12    -0.00   0.00  -0.00
   4   6     0.00  -0.00   0.00     0.00  -0.00   0.00     0.00  -0.00  -0.00
   5   6    -0.00  -0.00  -0.00    -0.00  -0.01  -0.00    -0.00  -0.03  -0.02
   6   6    -0.00   0.00  -0.00     0.00  -0.00   0.00     0.15   0.00   0.12
   7   6    -0.00   0.00   0.00     0.00  -0.00  -0.00    -0.11   0.12   0.00
   8   6     0.00   0.00   0.00     0.00  -0.00   0.00    -0.01  -0.04  -0.04
   9   6    -0.00  -0.00  -0.00    -0.00   0.00  -0.00     0.03   0.00   0.02
  10  17     0.00   0.00  -0.00    -0.00  -0.00  -0.00    -0.00  -0.00   0.00
  11   1    -0.00  -0.00   0.00    -0.01  -0.02  -0.02    -0.00  -0.00  -0.00
  12   1     0.00  -0.00   0.00     0.00   0.00  -0.00    -0.00   0.00  -0.00
  13   1    -0.00   0.00   0.00     0.00  -0.00   0.00     0.00  -0.00  -0.00
  14   1    -0.00   0.01  -0.03    -0.00   0.01  -0.02    -0.00   0.00  -0.00
  15   1    -0.08   0.13  -0.55    -0.06   0.17  -0.67     0.00  -0.00   0.00
  16   1     0.67   0.27  -0.23    -0.49  -0.20   0.20     0.00   0.00  -0.00
  17   1     0.04  -0.08   0.04     0.30  -0.29   0.06     0.00  -0.00   0.00
  18   1     0.00   0.01   0.00     0.00   0.02   0.01     0.02   0.11   0.09
  19   1     0.00   0.00   0.00    -0.00  -0.00  -0.00    -0.55  -0.02  -0.42
  20   1     0.00  -0.00   0.00    -0.00   0.00  -0.00     0.40  -0.45  -0.01
  21   1    -0.00  -0.00  -0.00    -0.00  -0.00   0.00     0.03   0.17   0.14
  22   1     0.00  -0.00   0.00     0.01  -0.00   0.00    -0.10  -0.00  -0.07
                     55                     56                     57
                        a                      a                      a 
 Frequencies --  3101.4256              3107.5053              3115.5362
 Red. masses --     1.8300                 1.8613                 1.9109
 Frc consts  --     0.0000                 0.0000                 0.0000
 IR Inten    --   152.5952                20.9470                37.0676
 Raman Activ --     0.0000                 0.0000                 0.0000
 Depolar     --     0.0000                 0.0000                 0.0000
 Atom AN      X      Y      Z        X      Y      Z        X      Y      Z
   1   7    -0.00  -0.00  -0.00    -0.00  -0.00  -0.00     0.00  -0.00  -0.00
   2   6     0.00   0.00  -0.00     0.00  -0.00  -0.00     0.00   0.00   0.00
   3   6    -0.00  -0.00  -0.00     0.00  -0.00   0.00     0.00  -0.00   0.00
   4   6    -0.00   0.00  -0.00    -0.00   0.01   0.00     0.00  -0.00  -0.00
   5   6    -0.00  -0.01  -0.01     0.01   0.04   0.04     0.00   0.02   0.02
   6   6     0.09   0.00   0.07    -0.10  -0.00  -0.08    -0.04  -0.00  -0.04
   7   6     0.03  -0.03   0.00    -0.10   0.11   0.00    -0.10   0.11   0.00
   8   6     0.02   0.09   0.07    -0.01  -0.08  -0.06     0.03   0.17   0.14
   9   6    -0.17  -0.01  -0.13    -0.13  -0.01  -0.10     0.05   0.00   0.04
  10  17     0.00   0.00  -0.00     0.00   0.00  -0.00    -0.00  -0.00   0.00
  11   1     0.01   0.02   0.02     0.01   0.01   0.01    -0.00   0.00   0.00
  12   1     0.00  -0.00   0.00     0.00  -0.00   0.00     0.00  -0.00   0.00
  13   1     0.00   0.00   0.00    -0.00   0.00   0.00    -0.00   0.00  -0.00
  14   1     0.00  -0.00   0.00     0.00  -0.00   0.00     0.00   0.00   0.00
  15   1     0.00  -0.00   0.01    -0.00   0.00  -0.00    -0.00   0.00  -0.01
  16   1     0.00   0.00  -0.00    -0.00  -0.00   0.00    -0.00  -0.00   0.00
  17   1    -0.00   0.00  -0.00    -0.00   0.00  -0.00    -0.00   0.00  -0.00
  18   1     0.01   0.06   0.05    -0.03  -0.17  -0.14    -0.02  -0.09  -0.08
  19   1    -0.31  -0.01  -0.24     0.34   0.01   0.26     0.15   0.01   0.12
  20   1    -0.11   0.12   0.00     0.36  -0.39  -0.01     0.33  -0.37  -0.01
  21   1    -0.05  -0.32  -0.26     0.04   0.26   0.21    -0.10  -0.59  -0.48
  22   1     0.60   0.03   0.45     0.43   0.02   0.32    -0.17  -0.01  -0.12
                     58                     59                     60
                        a                      a                      a 
 Frequencies --  3125.6813              3236.0591              3251.2415
 Red. masses --     1.8496                 1.8356                 1.6928
 Frc consts  --     0.0000                 0.0000                 0.0000
 IR Inten    --    33.3097                29.4546                26.4938
 Raman Activ --     0.0000                 0.0000                 0.0000
 Depolar     --     0.0000                 0.0000                 0.0000
 Atom AN      X      Y      Z        X      Y      Z        X      Y      Z
   1   7    -0.00  -0.00  -0.00    -0.17   0.18  -0.03     0.01  -0.08   0.22
   2   6    -0.00  -0.00  -0.00    -0.01   0.00   0.00    -0.00  -0.00   0.01
   3   6    -0.00   0.00  -0.00     0.00  -0.00   0.00    -0.00   0.00  -0.00
   4   6     0.00  -0.01  -0.00    -0.00  -0.00   0.00    -0.00   0.00  -0.00
   5   6    -0.03  -0.20  -0.17     0.00  -0.00   0.00     0.00  -0.00  -0.00
   6   6    -0.07  -0.00  -0.05    -0.00   0.00  -0.00    -0.00  -0.00  -0.00
   7   6    -0.02   0.03   0.00    -0.00   0.00  -0.00    -0.00   0.00   0.00
   8   6     0.00   0.00   0.00     0.00   0.00   0.00     0.00   0.00   0.00
   9   6    -0.01   0.00  -0.01     0.00  -0.00   0.00    -0.00  -0.00  -0.00
  10  17    -0.00  -0.00  -0.00    -0.00  -0.00  -0.00    -0.00  -0.00  -0.00
  11   1     0.00   0.00   0.00    -0.00   0.04   0.02     0.01   0.02   0.04
  12   1     0.00  -0.00   0.00    -0.00  -0.03   0.11    -0.11   0.37  -0.88
  13   1    -0.00   0.00  -0.00     0.66  -0.70  -0.02     0.09  -0.10   0.02
  14   1     0.00  -0.00   0.00     0.00  -0.00   0.00    -0.00   0.00  -0.01
  15   1     0.00  -0.01   0.02    -0.00   0.00  -0.00    -0.00  -0.00   0.00
  16   1     0.01   0.00  -0.00     0.00   0.00  -0.00     0.00   0.00  -0.00
  17   1     0.00  -0.00   0.00    -0.00   0.00  -0.00     0.00  -0.00   0.00
  18   1     0.12   0.70   0.58     0.00   0.00   0.00     0.00   0.00   0.00
  19   1     0.21   0.01   0.17     0.00   0.00   0.00     0.00  -0.00   0.00
  20   1     0.07  -0.08  -0.00     0.00  -0.00   0.00     0.00  -0.00  -0.00
  21   1    -0.00  -0.01  -0.01    -0.00  -0.00  -0.00    -0.00  -0.00  -0.00
  22   1     0.05   0.00   0.03    -0.00   0.00  -0.00     0.00   0.00   0.00
