 Entering Gaussian System
 *********************************************
 Gaussian 98:
 frequency output generated by the xtb code
 *********************************************
                         Standard orientation:
 --------------------------------------------------------------------
  Center     Atomic     Atomic              Coordinates (Angstroms)
  Number     Number      Type              X           Y           Z
 --------------------------------------------------------------------
    1          7             0       -1.520323   -0.507542   -0.122054
    2          6             0       -0.639956    0.615134    0.323731
    3          6             0        0.747762    0.600186   -0.318944
    4          6             0        1.619278   -0.565438    0.132055
    5          1             0       -1.637087   -0.494403   -1.139364
    6          1             0       -2.448901   -0.438817    0.304899
    7          1             0       -1.125017   -1.414874    0.141296
    8          1             0       -0.541992    0.583265    1.415201
    9          1             0       -1.146672    1.562216    0.097861
   10          1             0        1.263798    1.544073   -0.098167
   11          1             0        0.637698    0.581184   -1.409643
   12          1             0        1.182632   -1.524257   -0.147441
   13          1             0        1.747131   -0.566997    1.215575
   14          1             0        2.614806   -0.522694   -0.314778
 --------------------------------------------------------------------
     1 basis functions        1 primitive gaussians
     1 alpha electrons        1 beta electrons

 Harmonic frequencies (cm**-1), IR intensities (km*mol⁻¹),
 Raman scattering activities (A**4/amu), Raman depolarization ratios,
 reduced masses (AMU), force constants (mDyne/A) and normal coordinates:
                      1                      2                      3
                        a                      a                      a 
 Frequencies --  -133.6140               126.4498               246.3102
 Red. masses --     1.4436                 6.9476                 3.7096
 Frc consts  --     0.0000                 0.0000                 0.0000
 IR Inten    --     0.2366                12.7683                 9.1663
 Raman Activ --     0.0000                 0.0000                 0.0000
 Depolar     --     0.0000                 0.0000                 0.0000
 Atom AN      X      Y      Z        X      Y      Z        X      Y      Z
   1   7     0.02  -0.04   0.05    -0.35   0.18  -0.16    -0.32   0.04   0.13
   2   6    -0.02   0.00   0.04     0.07  -0.25   0.17     0.01  -0.06  -0.14
   3   6    -0.00   0.06   0.07    -0.05  -0.19  -0.10     0.08  -0.08  -0.01
   4   6     0.01  -0.02  -0.15     0.36   0.20   0.11     0.26   0.05  -0.01
   5   1     0.46  -0.33  -0.04    -0.01   0.10  -0.05    -0.18  -0.00   0.04
   6   1    -0.17   0.29  -0.42    -0.11   0.17  -0.11    -0.04   0.09   0.11
   7   1    -0.28   0.00   0.49    -0.26  -0.02  -0.05    -0.13  -0.01   0.02
   8   1    -0.03   0.02   0.01     0.07  -0.20   0.04    -0.01   0.02  -0.04
   9   1    -0.00  -0.01  -0.02     0.06  -0.02   0.18     0.03  -0.01  -0.07
  10   1     0.00   0.01   0.06    -0.06  -0.00  -0.15    -0.03  -0.00   0.04
  11   1    -0.00   0.07   0.02    -0.08  -0.17  -0.02     0.07  -0.01  -0.01
  12   1     0.01   0.01  -0.11     0.10  -0.01   0.25     0.34   0.01  -0.41
  13   1    -0.00  -0.07  -0.04     0.25   0.24   0.01    -0.29  -0.24   0.04
  14   1     0.00   0.03  -0.04     0.04   0.03  -0.11     0.22   0.31   0.34
                      4                      5                      6
                        a                      a                      a 
 Frequencies --   327.1743               432.4091               787.3159
 Red. masses --     5.9662                 7.2817                 2.4718
 Frc consts  --     0.0000                 0.0000                 0.0000
 IR Inten    --     4.5790                 8.2282                39.4865
 Raman Activ --     0.0000                 0.0000                 0.0000
 Depolar     --     0.0000                 0.0000                 0.0000
 Atom AN      X      Y      Z        X      Y      Z        X      Y      Z
   1   7     0.29   0.08  -0.07     0.17   0.14  -0.07     0.03  -0.15   0.00
   2   6     0.15  -0.03   0.29    -0.28   0.30   0.14     0.12  -0.09   0.15
   3   6    -0.19  -0.07  -0.32    -0.27  -0.34   0.18     0.11   0.13   0.14
   4   6    -0.27   0.05   0.11     0.27  -0.11  -0.10    -0.04   0.09  -0.02
   5   1     0.20   0.08  -0.03     0.14   0.07  -0.03     0.03   0.26   0.00
   6   1     0.03  -0.02  -0.12    -0.00  -0.15  -0.09     0.01   0.15  -0.02
   7   1     0.06   0.01  -0.03     0.19   0.10  -0.04    -0.31  -0.24  -0.21
   8   1     0.16  -0.14   0.07    -0.20   0.21   0.05    -0.17   0.31   0.06
   9   1     0.00   0.01   0.25    -0.02   0.08  -0.13    -0.00  -0.13  -0.34
  10   1    -0.01   0.00  -0.28    -0.03  -0.09  -0.11     0.00   0.13  -0.31
  11   1    -0.17  -0.18  -0.08    -0.17  -0.20   0.06    -0.16  -0.27   0.06
  12   1     0.05   0.00  -0.13     0.23  -0.09  -0.07    -0.19   0.14  -0.13
  13   1    -0.35  -0.03   0.07     0.15  -0.08  -0.04    -0.00  -0.15  -0.01
  14   1     0.03   0.10   0.29     0.04   0.17  -0.09    -0.02  -0.09  -0.03
                      7                      8                      9
                        a                      a                      a 
 Frequencies --   816.0534               855.6097               944.7158
 Red. masses --     3.7561                 5.9519                 4.1341
 Frc consts  --     0.0000                 0.0000                 0.0000
 IR Inten    --    16.7173                21.6451                18.9230
 Raman Activ --     0.0000                 0.0000                 0.0000
 Depolar     --     0.0000                 0.0000                 0.0000
 Atom AN      X      Y      Z        X      Y      Z        X      Y      Z
   1   7     0.20   0.09   0.14     0.30   0.16  -0.11     0.05   0.18   0.25
   2   6     0.11  -0.19  -0.03     0.16  -0.16  -0.22    -0.14  -0.19  -0.27
   3   6    -0.22  -0.22  -0.08    -0.24  -0.13   0.27    -0.05  -0.01  -0.02
   4   6    -0.13   0.05  -0.08    -0.19   0.12   0.04     0.00   0.04   0.17
   5   1     0.14   0.30   0.03    -0.25  -0.22   0.00     0.26   0.29   0.04
   6   1     0.03   0.14  -0.04     0.23   0.36   0.24    -0.10  -0.13  -0.14
   7   1    -0.18  -0.13  -0.17    -0.05   0.03   0.13     0.06   0.02  -0.08
   8   1     0.02   0.22   0.00    -0.02  -0.16  -0.06     0.28  -0.03  -0.10
   9   1     0.03  -0.10  -0.24     0.09  -0.01  -0.00    -0.11  -0.06   0.08
  10   1    -0.06  -0.15   0.37    -0.11   0.01  -0.03    -0.23   0.11   0.03
  11   1     0.05   0.32  -0.03    -0.06  -0.15   0.07     0.31  -0.17  -0.03
  12   1     0.16  -0.12   0.15     0.01   0.03  -0.08    -0.11   0.12  -0.17
  13   1    -0.09   0.26  -0.01     0.12  -0.11  -0.01     0.20  -0.30   0.02
  14   1    -0.01   0.14   0.04    -0.13   0.21  -0.15    -0.09   0.04  -0.16
                     10                     11                     12
                        a                      a                      a 
 Frequencies --   966.1820               980.8009              1082.0144
 Red. masses --     5.2620                 7.7414                 6.5777
 Frc consts  --     0.0000                 0.0000                 0.0000
 IR Inten    --     9.0055                39.2153                 6.8366
 Raman Activ --     0.0000                 0.0000                 0.0000
 Depolar     --     0.0000                 0.0000                 0.0000
 Atom AN      X      Y      Z        X      Y      Z        X      Y      Z
   1   7    -0.08   0.29   0.04    -0.30  -0.22  -0.05    -0.06  -0.15  -0.10
   2   6     0.06  -0.42   0.03     0.43   0.21   0.04     0.34   0.25   0.00
   3   6     0.08  -0.13   0.07     0.06  -0.19   0.13    -0.45  -0.06   0.00
   4   6    -0.02   0.22  -0.13    -0.33   0.21   0.02     0.28  -0.02   0.06
   5   1     0.07  -0.09  -0.00     0.06  -0.02  -0.03    -0.04  -0.06  -0.02
   6   1    -0.07  -0.22  -0.04    -0.14  -0.26  -0.12    -0.00  -0.02  -0.00
   7   1     0.32   0.25   0.13     0.08   0.01  -0.03    -0.03  -0.04  -0.01
   8   1    -0.24   0.04   0.03     0.14   0.08   0.01     0.20   0.09  -0.01
   9   1     0.32  -0.01  -0.24     0.21   0.09  -0.05     0.12   0.07  -0.02
  10   1    -0.13   0.05   0.01     0.10  -0.09   0.03    -0.40   0.11   0.16
  11   1    -0.07  -0.01   0.03     0.09  -0.07   0.03    -0.05   0.13  -0.00
  12   1    -0.19   0.13  -0.03     0.08   0.00  -0.06    -0.22   0.13  -0.04
  13   1    -0.16   0.08  -0.01     0.11  -0.01  -0.02    -0.05  -0.14   0.03
  14   1     0.05  -0.18   0.08    -0.18   0.33  -0.17     0.11  -0.31   0.08
                     13                     14                     15
                        a                      a                      a 
 Frequencies --  1131.1935              1162.1784              1235.1936
 Red. masses --     7.5884                 6.7824                 3.0292
 Frc consts  --     0.0000                 0.0000                 0.0000
 IR Inten    --     5.9683                 3.5120                14.2101
 Raman Activ --     0.0000                 0.0000                 0.0000
 Depolar     --     0.0000                 0.0000                 0.0000
 Atom AN      X      Y      Z        X      Y      Z        X      Y      Z
   1   7     0.12  -0.10  -0.00    -0.02  -0.04   0.19    -0.06   0.09  -0.19
   2   6    -0.25   0.22   0.04     0.09   0.06  -0.43     0.02  -0.07   0.16
   3   6     0.19  -0.48   0.07    -0.07   0.07   0.45     0.05   0.03   0.19
   4   6    -0.00   0.39  -0.19     0.02  -0.05  -0.25    -0.06  -0.07  -0.22
   5   1    -0.05   0.04   0.01     0.15   0.16   0.03    -0.08  -0.14  -0.04
   6   1     0.05   0.11   0.03    -0.07  -0.07  -0.09     0.03  -0.00   0.06
   7   1    -0.13  -0.10  -0.02    -0.02  -0.06  -0.09     0.08   0.11   0.10
   8   1     0.01  -0.09   0.00     0.13  -0.22  -0.13     0.42   0.34   0.02
   9   1    -0.05   0.10   0.16     0.03   0.08   0.13    -0.34  -0.22  -0.05
  10   1     0.05  -0.15   0.13     0.05   0.04  -0.16    -0.19   0.13  -0.02
  11   1     0.26  -0.13   0.00    -0.25  -0.13   0.14     0.28  -0.27   0.03
  12   1    -0.26   0.22  -0.06     0.04  -0.09   0.15     0.08  -0.11   0.12
  13   1    -0.18   0.08  -0.03    -0.20   0.25  -0.03    -0.11   0.21  -0.04
  14   1     0.05  -0.17   0.04     0.10  -0.07   0.15     0.05   0.01   0.09
                     16                     17                     18
                        a                      a                      a 
 Frequencies --  1255.7700              1317.6809              1347.5728
 Red. masses --     2.2765                 3.6081                 4.4794
 Frc consts  --     0.0000                 0.0000                 0.0000
 IR Inten    --    11.2371                25.3041                 3.9698
 Raman Activ --     0.0000                 0.0000                 0.0000
 Depolar     --     0.0000                 0.0000                 0.0000
 Atom AN      X      Y      Z        X      Y      Z        X      Y      Z
   1   7    -0.06   0.09  -0.05    -0.02  -0.19  -0.09     0.02  -0.06  -0.06
   2   6     0.03  -0.12  -0.08    -0.32  -0.14   0.07    -0.23   0.02  -0.02
   3   6    -0.11  -0.08   0.06    -0.15   0.18   0.03     0.44  -0.21  -0.00
   4   6     0.11   0.18   0.10     0.02   0.00  -0.02    -0.08  -0.04   0.08
   5   1     0.00  -0.05  -0.02     0.04   0.16  -0.02    -0.03   0.07  -0.01
   6   1    -0.01  -0.03   0.01     0.08   0.21   0.09     0.03   0.05   0.02
   7   1     0.08   0.08   0.03     0.10   0.04   0.10    -0.00   0.01   0.06
   8   1     0.33   0.16  -0.05     0.38   0.17  -0.02     0.30   0.11  -0.04
   9   1    -0.31  -0.20  -0.04     0.56   0.28  -0.06     0.07   0.08   0.04
  10   1     0.50  -0.31  -0.00     0.23  -0.09  -0.05    -0.37   0.22  -0.00
  11   1    -0.36   0.19   0.04     0.13  -0.07  -0.01    -0.51   0.27   0.05
  12   1    -0.14   0.14  -0.08     0.04  -0.03   0.03    -0.01   0.02  -0.08
  13   1     0.02  -0.15   0.03     0.02  -0.03  -0.00     0.03   0.07   0.01
  14   1     0.01  -0.10  -0.02     0.03  -0.05   0.04    -0.06   0.12  -0.06
                     19                     20                     21
                        a                      a                      a 
 Frequencies --  1367.1397              1420.3519              1423.4607
 Red. masses --     2.9207                 1.6423                 1.7562
 Frc consts  --     0.0000                 0.0000                 0.0000
 IR Inten    --   195.3466                77.1802                79.1448
 Raman Activ --     0.0000                 0.0000                 0.0000
 Depolar     --     0.0000                 0.0000                 0.0000
 Atom AN      X      Y      Z        X      Y      Z        X      Y      Z
   1   7    -0.24  -0.25  -0.06     0.12  -0.12   0.13     0.11  -0.06  -0.16
   2   6     0.14   0.04  -0.04     0.03  -0.01   0.01     0.07  -0.01  -0.04
   3   6     0.02  -0.06  -0.01    -0.00   0.01  -0.01    -0.05   0.03  -0.00
   4   6    -0.00   0.01   0.00    -0.02   0.02  -0.00     0.06  -0.08   0.03
   5   1     0.32   0.35  -0.03    -0.54   0.11   0.08    -0.24   0.51   0.02
   6   1     0.12   0.46   0.22    -0.24   0.31  -0.60     0.00  -0.31   0.01
   7   1     0.43   0.21   0.12     0.31   0.10  -0.04    -0.21   0.09   0.64
   8   1    -0.21  -0.04   0.02     0.01   0.02   0.01    -0.07  -0.01  -0.00
   9   1    -0.21  -0.09   0.07    -0.04  -0.03  -0.01    -0.04  -0.02   0.03
  10   1    -0.06   0.02  -0.00    -0.00  -0.01   0.04     0.04  -0.03   0.02
  11   1     0.01   0.02  -0.00    -0.02  -0.04   0.00     0.02  -0.03  -0.00
  12   1     0.00   0.01  -0.02     0.04  -0.02  -0.00    -0.09   0.06  -0.06
  13   1    -0.01   0.02   0.00     0.02  -0.01  -0.00    -0.06   0.11   0.01
  14   1    -0.01  -0.02  -0.01     0.00  -0.04   0.01    -0.02   0.09  -0.05
                     22                     23                     24
                        a                      a                      a 
 Frequencies --  1441.9954              1475.3192              1489.1868
 Red. masses --     2.9727                 1.8734                 1.8637
 Frc consts  --     0.0000                 0.0000                 0.0000
 IR Inten    --    12.3241                18.0755                 8.6015
 Raman Activ --     0.0000                 0.0000                 0.0000
 Depolar     --     0.0000                 0.0000                 0.0000
 Atom AN      X      Y      Z        X      Y      Z        X      Y      Z
   1   7    -0.02   0.01   0.04     0.01  -0.01  -0.01     0.02   0.00  -0.00
   2   6    -0.01  -0.04  -0.00     0.08  -0.18  -0.18    -0.00  -0.03   0.00
   3   6    -0.06   0.04   0.01     0.01   0.01  -0.01    -0.07  -0.20   0.17
   4   6     0.27  -0.29   0.12    -0.01   0.06  -0.01     0.00   0.04  -0.04
   5   1     0.02  -0.12  -0.00    -0.02  -0.04  -0.00    -0.06   0.02   0.01
   6   1    -0.02   0.09  -0.04    -0.00  -0.03  -0.01    -0.01  -0.01  -0.04
   7   1     0.08  -0.01  -0.16    -0.04  -0.03  -0.02    -0.00   0.01   0.03
   8   1    -0.00   0.08   0.01    -0.26   0.61   0.03    -0.02   0.05   0.01
   9   1     0.04   0.03   0.06     0.03   0.16   0.65    -0.01  -0.00   0.05
  10   1     0.06  -0.02  -0.06    -0.00  -0.02   0.07     0.01   0.13  -0.63
  11   1     0.09   0.01  -0.01    -0.06  -0.05   0.01     0.32   0.58  -0.03
  12   1    -0.36   0.20  -0.16     0.05  -0.04   0.07    -0.02  -0.04   0.16
  13   1    -0.38   0.35   0.06    -0.02  -0.09   0.00    -0.05  -0.15   0.00
  14   1    -0.14   0.39  -0.32    -0.01  -0.05  -0.02     0.00   0.04   0.01
                     25                     26                     27
                        a                      a                      a 
 Frequencies --  1500.8470              1505.8514              2934.5125
 Red. masses --     1.6151                 1.5258                 1.9389
 Frc consts  --     0.0000                 0.0000                 0.0000
 IR Inten    --     4.9241                15.3143                 5.4212
 Raman Activ --     0.0000                 0.0000                 0.0000
 Depolar     --     0.0000                 0.0000                 0.0000
 Atom AN      X      Y      Z        X      Y      Z        X      Y      Z
   1   7     0.00   0.01   0.01     0.00   0.01  -0.01    -0.00  -0.00  -0.00
   2   6     0.02  -0.02  -0.02    -0.01   0.01   0.01     0.00  -0.00  -0.02
   3   6    -0.08  -0.04   0.07     0.03   0.02   0.03     0.11   0.18   0.20
   4   6    -0.13  -0.07   0.14     0.06   0.16   0.13    -0.01  -0.01  -0.02
   5   1     0.00  -0.03  -0.00    -0.00   0.01  -0.00    -0.00  -0.00  -0.00
   6   1    -0.00  -0.01  -0.00     0.00  -0.02   0.01    -0.00  -0.00  -0.00
   7   1    -0.02  -0.02  -0.03    -0.03  -0.00   0.03    -0.00   0.00  -0.00
   8   1    -0.02   0.07   0.00     0.03  -0.05  -0.00     0.01  -0.01   0.09
   9   1    -0.00   0.01   0.07    -0.00  -0.01  -0.05    -0.02   0.03  -0.01
  10   1     0.04   0.00  -0.14    -0.03   0.03  -0.01    -0.36  -0.65  -0.15
  11   1     0.11   0.10  -0.00     0.00  -0.01   0.01    -0.04   0.01  -0.56
  12   1     0.20   0.09  -0.61     0.43  -0.16  -0.07     0.03   0.07   0.02
  13   1     0.31   0.51  -0.03    -0.47  -0.07   0.07     0.01  -0.00   0.06
  14   1     0.03  -0.32   0.07    -0.22  -0.39  -0.54     0.01  -0.00  -0.01
                     28                     29                     30
                        a                      a                      a 
 Frequencies --  2953.4161              2962.7904              2982.1829
 Red. masses --     1.8420                 1.6387                 1.5659
 Frc consts  --     0.0000                 0.0000                 0.0000
 IR Inten    --     1.8869                11.1530                 3.8997
 Raman Activ --     0.0000                 0.0000                 0.0000
 Depolar     --     0.0000                 0.0000                 0.0000
 Atom AN      X      Y      Z        X      Y      Z        X      Y      Z
   1   7    -0.00  -0.00  -0.00    -0.00  -0.00  -0.00     0.00   0.00  -0.00
   2   6     0.10  -0.17   0.17    -0.06   0.11  -0.07    -0.03   0.10   0.19
   3   6     0.03   0.06  -0.08     0.04   0.11  -0.15     0.00   0.00   0.04
   4   6    -0.01  -0.00   0.00    -0.02  -0.01   0.02     0.01  -0.01  -0.02
   5   1     0.00   0.00   0.01     0.00   0.00   0.00     0.00  -0.00   0.02
   6   1     0.00  -0.00  -0.00     0.00  -0.00  -0.00    -0.00   0.00   0.00
   7   1     0.01  -0.01   0.00    -0.00   0.01  -0.00    -0.00   0.01  -0.00
   8   1    -0.03  -0.00  -0.46     0.01   0.01   0.15    -0.09   0.05  -0.82
   9   1    -0.32   0.60  -0.14     0.21  -0.40   0.10     0.22  -0.41   0.14
  10   1    -0.14  -0.25  -0.08    -0.24  -0.42  -0.13    -0.00  -0.01   0.01
  11   1     0.04   0.02   0.37     0.07   0.04   0.66    -0.01  -0.01  -0.14
  12   1     0.01   0.01   0.00     0.02   0.05   0.02     0.01   0.03   0.01
  13   1    -0.00  -0.00  -0.01    -0.01  -0.00  -0.09     0.01   0.00   0.05
  14   1     0.01   0.00  -0.01     0.05   0.00  -0.02    -0.04  -0.00   0.01
                     31                     32                     33
                        a                      a                      a 
 Frequencies --  3008.2669              3011.2342              3023.3855
 Red. masses --     1.9416                 1.9367                 1.2915
 Frc consts  --     0.0000                 0.0000                 0.0000
 IR Inten    --    25.1523                20.4480                15.0096
 Raman Activ --     0.0000                 0.0000                 0.0000
 Depolar     --     0.0000                 0.0000                 0.0000
 Atom AN      X      Y      Z        X      Y      Z        X      Y      Z
   1   7    -0.00   0.00  -0.00     0.00   0.00  -0.00    -0.00   0.00  -0.00
   2   6    -0.00   0.01  -0.00     0.00   0.00   0.02    -0.00   0.01  -0.00
   3   6     0.02   0.03   0.00     0.00   0.00   0.04     0.00   0.01  -0.01
   4   6     0.23   0.18   0.01    -0.07   0.08   0.27    -0.09   0.11  -0.08
   5   1    -0.00   0.00   0.00    -0.00   0.00   0.00     0.00   0.00   0.00
   6   1     0.00  -0.00  -0.00    -0.00   0.00   0.00    -0.00   0.00   0.00
   7   1    -0.00  -0.01   0.00     0.00  -0.00   0.00     0.00  -0.01   0.00
   8   1     0.00   0.00   0.00    -0.00   0.00  -0.06    -0.00   0.00   0.00
   9   1     0.01  -0.02   0.00     0.00  -0.00   0.00     0.01  -0.02   0.01
  10   1    -0.05  -0.08  -0.02    -0.01  -0.01   0.00    -0.02  -0.03  -0.01
  11   1     0.00   0.00   0.01    -0.01  -0.01  -0.10     0.00   0.00   0.05
  12   1    -0.28  -0.63  -0.20    -0.17  -0.33  -0.06    -0.22  -0.44  -0.15
  13   1     0.02   0.03  -0.10    -0.09  -0.00  -0.68     0.07   0.02   0.66
  14   1    -0.55  -0.01   0.27     0.50   0.04  -0.20     0.46   0.04  -0.22
                     34                     35                     36
                        a                      a                      a 
 Frequencies --  3285.8366              3290.4766              3304.3380
 Red. masses --     2.0420                 2.0515                 1.2680
 Frc consts  --     0.0000                 0.0000                 0.0000
 IR Inten    --    98.1748                82.4818                26.3204
 Raman Activ --     0.0000                 0.0000                 0.0000
 Depolar     --     0.0000                 0.0000                 0.0000
 Atom AN      X      Y      Z        X      Y      Z        X      Y      Z
   1   7    -0.21   0.19  -0.04     0.08   0.04  -0.27     0.10   0.09   0.04
   2   6    -0.00   0.01  -0.00    -0.00   0.00  -0.01     0.00   0.01   0.00
   3   6     0.00  -0.00   0.00    -0.00  -0.00   0.00    -0.00   0.00  -0.00
   4   6    -0.00  -0.00  -0.00    -0.00  -0.00  -0.00    -0.00  -0.00  -0.00
   5   1    -0.00   0.01   0.16     0.09  -0.02   0.76    -0.05   0.03  -0.57
   6   1     0.47  -0.03  -0.24    -0.49   0.05   0.21    -0.55   0.06   0.27
   7   1     0.31  -0.69   0.21     0.09  -0.18   0.03     0.22  -0.45   0.14
   8   1     0.00  -0.00   0.00     0.00  -0.00   0.02    -0.00   0.00  -0.01
   9   1     0.01  -0.01   0.00     0.00  -0.00   0.00     0.00  -0.01   0.00
  10   1    -0.00   0.00   0.00     0.00   0.00   0.00    -0.00  -0.00  -0.00
  11   1    -0.00   0.00  -0.00    -0.00  -0.00  -0.00     0.00   0.00   0.00
  12   1     0.00   0.01   0.00     0.00   0.00   0.00     0.00   0.00   0.00
  13   1    -0.00  -0.00  -0.00    -0.00  -0.00  -0.00    -0.00  -0.00  -0.00
  14   1    -0.00  -0.00   0.00    -0.00   0.00   0.00    -0.00   0.00   0.00
