22
 energy: -30.704410551869 gnorm: 0.000911566786 xtb: 6.5.1 (fef0646)
N            2.76728550528591       -0.61598312649168       -0.91176854573374
C            1.90599267436045        0.21501480416287       -0.06172374902913
C            0.52985701726756        0.46841878855739       -0.68750652779910
C            2.62101342938152        1.51071617599042        0.24410394113842
C            2.99590888645285        1.81137608552632        1.54589473835065
C            3.65498781664936        2.99293574999459        1.83430263878810
C            3.94980492796567        3.88879804696447        0.82167890016299
C            3.58265561785801        3.59635708815636       -0.48024044584145
C            2.92319648251659        2.41499022213835       -0.76634359003573
Cl           5.28373732435912       -1.09410423984209        0.50739402059243
H            4.10709773645180       -0.87676700314179       -0.15830203196760
H            2.98796480609621       -0.13670645301081       -1.77864026565479
H            2.31917534096265       -1.49983687572016       -1.12796199685888
H            1.76991286384478       -0.33955962108725        0.87333380884222
H            0.62704312831330        0.95408343417871       -1.65584221691290
H           -0.05876517499295        1.11243363856822       -0.04009822532009
H           -0.00489034383985       -0.46970723243817       -0.82129384458464
H            2.77615946485397        1.11161241272283        2.33839016777424
H            3.94415819032307        3.21225575950433        2.85134250852812
H            4.46642535140560        4.81041300885378        1.04472414861116
H            3.81180904923778        4.28951602795648       -1.27643554903688
H            2.64401990525547        2.20272330843013       -1.78904788402032
