 Entering Gaussian System
 *********************************************
 Gaussian 98:
 frequency output generated by the xtb code
 *********************************************
                         Standard orientation:
 --------------------------------------------------------------------
  Center     Atomic     Atomic              Coordinates (Angstroms)
  Number     Number      Type              X           Y           Z
 --------------------------------------------------------------------
    1          7             0       -7.200826   -0.264509    1.774846
    2          6             0       -7.461894    0.818201    0.786365
    3          6             0       -6.831740    0.513845   -0.569917
    4          6             0       -5.378391    0.209157   -0.469442
    5          6             0       -4.846987   -1.033465   -0.329611
    6          6             0       -3.430437   -1.043453   -0.239386
    7          6             0       -2.866980    0.199694   -0.309360
    8          6             0       -1.455118    0.483517   -0.250636
    9          6             0       -0.890212    1.728864   -0.319680
   10          6             0        0.522008    1.721667   -0.248355
   11          6             0        1.063932    0.469454   -0.122755
   12          6             0        2.469441    0.170397   -0.038519
   13          6             0        3.010515   -1.080526    0.102411
   14          6             0        4.423515   -1.090163    0.150486
   15          6             0        4.990121    0.151874    0.046982
   16          6             0        6.404723    0.430957    0.059867
   17          6             0        6.971549    1.670784   -0.046657
   18          6             0        8.392219    1.654486   -0.007572
   19          6             0        8.909713    0.410924    0.128468
   20         16             0        7.657247   -0.772980    0.212575
   21         16             0        3.742957    1.356080   -0.106295
   22         16             0       -0.208114   -0.718909   -0.084488
   23         16             0       -4.116615    1.400591   -0.485038
   24         17             0       -7.521828   -3.339871    0.147912
   25          1             0       -7.449912   -1.189729    1.377668
   26          1             0       -7.728922   -0.136265    2.653307
   27          1             0       -6.197845   -0.305154    2.014132
   28          1             0       -7.065847    1.763659    1.176362
   29          1             0       -8.543193    0.969726    0.678298
   30          1             0       -6.975768    1.353054   -1.261178
   31          1             0       -7.340466   -0.341283   -1.030194
   32          1             0       -5.455402   -1.924392   -0.278228
   33          1             0       -2.845391   -1.943446   -0.127267
   34          1             0       -1.477238    2.628437   -0.424069
   35          1             0        1.125953    2.614814   -0.292289
   36          1             0        2.405440   -1.971862    0.166675
   37          1             0        5.010351   -1.989926    0.255536
   38          1             0        6.386844    2.571927   -0.151787
   39          1             0        8.995864    2.547853   -0.080206
   40          1             0        9.956352    0.173528    0.178855
 --------------------------------------------------------------------
     1 basis functions        1 primitive gaussians
     1 alpha electrons        1 beta electrons

 Harmonic frequencies (cm**-1), IR intensities (km*mol⁻¹),
 Raman scattering activities (A**4/amu), Raman depolarization ratios,
 reduced masses (AMU), force constants (mDyne/A) and normal coordinates:
                      1                      2                      3
                        a                      a                      a 
 Frequencies --  -144.6747               -51.1127               -27.0030
 Red. masses --    18.7216                18.1609                18.6852
 Frc consts  --     0.0000                 0.0000                 0.0000
 IR Inten    --   122.4586                 0.1200                 0.2798
 Raman Activ --     0.0000                 0.0000                 0.0000
 Depolar     --     0.0000                 0.0000                 0.0000
 Atom AN      X      Y      Z        X      Y      Z        X      Y      Z
   1   7     0.10   0.55   0.26    -0.04   0.03  -0.01     0.04  -0.07   0.02
   2   6     0.06   0.28  -0.01    -0.03  -0.00  -0.04     0.03  -0.01   0.08
   3   6    -0.02  -0.03   0.03     0.01  -0.03  -0.02    -0.01   0.06   0.05
   4   6    -0.01  -0.02   0.02     0.00  -0.01   0.04    -0.01   0.04  -0.01
   5   6    -0.01  -0.02   0.01    -0.00   0.01   0.27    -0.01   0.02  -0.20
   6   6    -0.01  -0.02  -0.00    -0.00   0.02   0.27    -0.00   0.01  -0.21
   7   6    -0.01  -0.02   0.00     0.00  -0.00   0.03    -0.01   0.02  -0.03
   8   6    -0.01  -0.01   0.01     0.01  -0.00  -0.03    -0.00   0.01  -0.05
   9   6    -0.01  -0.01   0.01     0.01  -0.01  -0.16     0.01  -0.01  -0.29
  10   6    -0.01  -0.00   0.01     0.01  -0.01  -0.15     0.01  -0.01  -0.29
  11   6    -0.01  -0.00   0.00     0.01  -0.00  -0.04    -0.00   0.01  -0.04
  12   6    -0.00   0.00  -0.00     0.01  -0.00  -0.04    -0.01   0.01   0.04
  13   6    -0.00   0.00  -0.01     0.01  -0.01  -0.16    -0.02   0.03   0.28
  14   6    -0.00   0.00  -0.01     0.01  -0.01  -0.16    -0.02   0.02   0.28
  15   6    -0.00   0.00  -0.00     0.00   0.00  -0.01    -0.01  -0.00   0.05
  16   6    -0.00   0.00   0.01     0.00   0.01   0.06    -0.01  -0.01   0.03
  17   6    -0.00   0.00   0.01    -0.01   0.04   0.37    -0.01   0.00   0.17
  18   6    -0.00   0.00   0.01    -0.01   0.04   0.35    -0.01  -0.00   0.15
  19   6    -0.00   0.00  -0.00     0.00   0.00   0.01    -0.01  -0.02  -0.03
  20  16    -0.00   0.00  -0.01     0.02  -0.04  -0.44    -0.01  -0.05  -0.26
  21  16    -0.01   0.00   0.01     0.00   0.02   0.18     0.00  -0.03  -0.30
  22  16    -0.00  -0.01  -0.01     0.00   0.01   0.13    -0.03   0.05   0.35
  23  16    -0.02  -0.02   0.03     0.02  -0.04  -0.34    -0.02   0.07   0.27
  24  17    -0.01  -0.52  -0.27    -0.03   0.02   0.07     0.08  -0.09  -0.08
  25   1    -0.08   0.16   0.17    -0.02   0.01   0.01     0.02  -0.01  -0.01
  26   1     0.11   0.25   0.10    -0.00   0.02   0.00     0.00  -0.04   0.01
  27   1     0.05   0.10  -0.02    -0.01   0.00  -0.01     0.01  -0.02   0.01
  28   1     0.03   0.10  -0.07    -0.01   0.00  -0.01     0.01  -0.01   0.04
  29   1     0.01   0.08   0.01    -0.01  -0.00  -0.02     0.01   0.00   0.03
  30   1    -0.01  -0.05  -0.04     0.01  -0.01  -0.01    -0.01   0.03   0.03
  31   1    -0.01  -0.04   0.06     0.01  -0.01  -0.00    -0.01   0.03   0.00
  32   1    -0.00  -0.01   0.00    -0.00   0.00   0.11    -0.00   0.00  -0.09
  33   1    -0.00  -0.00  -0.00    -0.00   0.01   0.12    -0.00  -0.00  -0.10
  34   1    -0.00  -0.00   0.00     0.00  -0.01  -0.07     0.01  -0.01  -0.14
  35   1    -0.00  -0.00   0.00     0.00  -0.01  -0.07     0.01  -0.01  -0.14
  36   1    -0.00  -0.00  -0.00     0.00  -0.01  -0.08    -0.01   0.01   0.13
  37   1    -0.00   0.00  -0.00     0.00  -0.01  -0.07    -0.01   0.01   0.13
  38   1    -0.00   0.00   0.01    -0.00   0.02   0.17    -0.00   0.01   0.09
  39   1    -0.00   0.00   0.00    -0.00   0.02   0.16    -0.00   0.00   0.07
  40   1    -0.00   0.00  -0.00     0.00  -0.00  -0.03    -0.00  -0.01  -0.03
                      4                      5                      6
                        a                      a                      a 
 Frequencies --    22.2231                33.6576                37.4574
 Red. masses --    20.2507                16.5329                23.2220
 Frc consts  --     0.0000                 0.0000                 0.0000
 IR Inten    --     0.8410                 0.7831                 1.1057
 Raman Activ --     0.0000                 0.0000                 0.0000
 Depolar     --     0.0000                 0.0000                 0.0000
 Atom AN      X      Y      Z        X      Y      Z        X      Y      Z
   1   7    -0.02   0.22  -0.02     0.07   0.05   0.12     0.15  -0.02   0.16
   2   6     0.03   0.10  -0.14     0.08   0.08   0.14     0.05  -0.05   0.13
   3   6     0.02  -0.09  -0.10    -0.00   0.06   0.10    -0.04  -0.07   0.09
   4   6     0.01  -0.10  -0.08    -0.01   0.01   0.01    -0.02  -0.03  -0.01
   5   6     0.01  -0.11  -0.20    -0.03  -0.02  -0.16     0.02  -0.01  -0.09
   6   6     0.01  -0.12  -0.17    -0.03  -0.07  -0.21     0.03   0.03  -0.16
   7   6     0.01  -0.11  -0.03    -0.00  -0.07  -0.08    -0.02   0.05  -0.14
   8   6     0.01  -0.11   0.04     0.00  -0.09  -0.11    -0.02   0.07  -0.14
   9   6    -0.01  -0.09   0.21     0.01  -0.11  -0.26    -0.04   0.09   0.03
  10   6    -0.02  -0.07   0.22     0.01  -0.11  -0.27    -0.03   0.09   0.04
  11   6     0.01  -0.08   0.07     0.00  -0.10  -0.13    -0.03   0.08  -0.12
  12   6     0.01  -0.05   0.06     0.01  -0.08  -0.12    -0.03   0.06  -0.09
  13   6     0.04  -0.03   0.13     0.04  -0.09  -0.31    -0.07   0.05  -0.03
  14   6     0.04   0.01   0.12     0.04  -0.05  -0.27    -0.07   0.02   0.03
  15   6     0.01   0.01   0.03     0.00  -0.01  -0.03    -0.04   0.00   0.02
  16   6     0.01   0.05   0.02    -0.01   0.04   0.04    -0.03  -0.04   0.08
  17   6    -0.04   0.08   0.16    -0.05   0.05   0.02     0.01  -0.05   0.20
  18   6    -0.03   0.12   0.12    -0.05   0.10   0.07     0.01  -0.09   0.24
  19   6     0.01   0.12  -0.08    -0.01   0.13   0.15    -0.03  -0.12   0.16
  20  16     0.08   0.11  -0.33     0.05   0.15   0.26    -0.12  -0.14   0.05
  21  16    -0.03  -0.04  -0.05    -0.05  -0.04   0.23    -0.00   0.05  -0.12
  22  16     0.04  -0.18  -0.19    -0.01  -0.14   0.04    -0.02   0.10  -0.52
  23  16     0.02  -0.15   0.15     0.03  -0.03   0.21    -0.10   0.03  -0.06
  24  17    -0.17   0.35   0.17    -0.08   0.20   0.10     0.33  -0.05   0.30
  25   1    -0.01   0.05   0.02     0.00   0.02   0.03     0.06  -0.01   0.05
  26   1    -0.01   0.09  -0.01     0.03   0.02   0.04     0.04  -0.01   0.04
  27   1    -0.01   0.06   0.01     0.02   0.00   0.03     0.04   0.02   0.04
  28   1     0.02   0.04  -0.07     0.04   0.02   0.04     0.01  -0.01   0.02
  29   1     0.01   0.04  -0.05     0.02   0.04   0.06     0.01  -0.02   0.06
  30   1     0.01  -0.05  -0.06    -0.00   0.02   0.03    -0.03  -0.03   0.02
  31   1     0.00  -0.04   0.01    -0.02   0.02   0.04    -0.01  -0.03   0.04
  32   1     0.00  -0.03  -0.07    -0.02  -0.00  -0.06     0.01  -0.01  -0.02
  33   1     0.00  -0.04  -0.07    -0.01  -0.03  -0.10     0.02   0.01  -0.06
  34   1    -0.01  -0.02   0.09     0.01  -0.03  -0.10    -0.01   0.03   0.04
  35   1    -0.01  -0.02   0.10     0.01  -0.03  -0.11    -0.01   0.03   0.05
  36   1     0.02  -0.01   0.06     0.02  -0.03  -0.14    -0.03   0.02  -0.01
  37   1     0.02   0.01   0.05     0.02  -0.01  -0.12    -0.03   0.00   0.02
  38   1    -0.02   0.02   0.09    -0.02   0.01  -0.01     0.01  -0.01   0.07
  39   1    -0.02   0.04   0.06    -0.02   0.03   0.01     0.01  -0.03   0.09
  40   1     0.01   0.04  -0.05    -0.00   0.05   0.06    -0.01  -0.05   0.05
                      7                      8                      9
                        a                      a                      a 
 Frequencies --    43.0871                49.4834                66.2365
 Red. masses --    19.9655                26.6492                20.3935
 Frc consts  --     0.0000                 0.0000                 0.0000
 IR Inten    --     5.6002                14.3826                11.4782
 Raman Activ --     0.0000                 0.0000                 0.0000
 Depolar     --     0.0000                 0.0000                 0.0000
 Atom AN      X      Y      Z        X      Y      Z        X      Y      Z
   1   7     0.01   0.10  -0.05    -0.12  -0.07   0.06     0.20  -0.13   0.06
   2   6    -0.05  -0.06  -0.21     0.02  -0.06   0.03     0.19   0.00   0.18
   3   6    -0.01  -0.23  -0.15     0.02  -0.16   0.05     0.00   0.09   0.07
   4   6     0.01  -0.13  -0.09     0.03  -0.11   0.06     0.01   0.04  -0.11
   5   6     0.09  -0.11  -0.21     0.09  -0.09   0.01    -0.01   0.03  -0.12
   6   6     0.08  -0.02  -0.15     0.10  -0.04  -0.01    -0.01   0.01  -0.18
   7   6     0.00   0.02   0.01     0.04  -0.01   0.00     0.01  -0.00  -0.20
   8   6    -0.01   0.08   0.06     0.04   0.04  -0.03     0.01  -0.00  -0.14
   9   6    -0.03   0.08  -0.03     0.00   0.06  -0.05     0.00   0.00  -0.07
  10   6    -0.03   0.11  -0.02     0.01   0.10  -0.08    -0.00   0.01   0.05
  11   6    -0.02   0.12   0.08     0.05   0.12  -0.08    -0.01   0.01   0.11
  12   6    -0.02   0.11   0.06     0.05   0.13  -0.08    -0.01   0.02   0.19
  13   6    -0.05   0.07  -0.13     0.02   0.12  -0.04    -0.01   0.02   0.15
  14   6    -0.05   0.03  -0.17     0.02   0.09  -0.01    -0.01   0.01   0.13
  15   6    -0.02   0.02  -0.01     0.05   0.07  -0.03    -0.01   0.02   0.16
  16   6    -0.00  -0.04  -0.03     0.06   0.02   0.01    -0.01   0.01   0.05
  17   6     0.05  -0.06  -0.05     0.13  -0.01   0.03    -0.01   0.00  -0.03
  18   6     0.05  -0.13  -0.09     0.13  -0.09   0.08    -0.00  -0.01  -0.17
  19   6    -0.00  -0.16  -0.10     0.06  -0.11   0.09    -0.00  -0.02  -0.22
  20  16    -0.10  -0.16  -0.10    -0.00  -0.08   0.09    -0.01  -0.01  -0.14
  21  16     0.02   0.14   0.37     0.13   0.16  -0.15    -0.02   0.05   0.45
  22  16    -0.00   0.19   0.30     0.13   0.13  -0.09    -0.00   0.01  -0.03
  23  16    -0.12  -0.06   0.19    -0.02  -0.10   0.11     0.04   0.02  -0.35
  24  17     0.20   0.04   0.14    -0.72  -0.05   0.00    -0.26  -0.12   0.11
  25   1     0.04   0.00   0.01    -0.09  -0.01   0.03    -0.03  -0.01   0.02
  26   1    -0.02   0.04  -0.03    -0.01   0.02   0.03     0.11  -0.02   0.05
  27   1    -0.00   0.07   0.01    -0.03  -0.07  -0.01     0.07  -0.10  -0.05
  28   1    -0.03   0.01  -0.10     0.03  -0.03   0.00     0.10  -0.02   0.07
  29   1    -0.02  -0.04  -0.07     0.01   0.01   0.00     0.06   0.04   0.09
  30   1    -0.02  -0.10  -0.08    -0.00  -0.06  -0.00    -0.01   0.05   0.05
  31   1     0.02  -0.10  -0.01     0.01  -0.06   0.04    -0.02   0.04   0.02
  32   1     0.04  -0.04  -0.08     0.04  -0.03  -0.00    -0.01   0.01  -0.02
  33   1     0.04   0.00  -0.06     0.04  -0.00  -0.01    -0.01   0.00  -0.05
  34   1    -0.01   0.02  -0.03    -0.01   0.01  -0.01     0.00  -0.00  -0.03
  35   1    -0.01   0.03  -0.03    -0.01   0.03  -0.03    -0.00   0.00   0.03
  36   1    -0.02   0.02  -0.07     0.00   0.04  -0.01    -0.00   0.00   0.03
  37   1    -0.02  -0.00  -0.09    -0.00   0.02   0.01    -0.00   0.00   0.02
  38   1     0.03  -0.01  -0.01     0.05   0.00   0.01    -0.00   0.00   0.01
  39   1     0.03  -0.05  -0.03     0.05  -0.03   0.03    -0.00  -0.01  -0.07
  40   1    -0.00  -0.06  -0.04     0.01  -0.05   0.04     0.00  -0.01  -0.09
                     10                     11                     12
                        a                      a                      a 
 Frequencies --    75.9112                91.6908                97.2972
 Red. masses --    24.2818                16.2526                16.4052
 Frc consts  --     0.0000                 0.0000                 0.0000
 IR Inten    --    21.8414                 3.9201                16.2360
 Raman Activ --     0.0000                 0.0000                 0.0000
 Depolar     --     0.0000                 0.0000                 0.0000
 Atom AN      X      Y      Z        X      Y      Z        X      Y      Z
   1   7    -0.16  -0.03  -0.17     0.11  -0.00   0.15     0.37  -0.08  -0.09
   2   6    -0.15  -0.04  -0.16     0.06  -0.11   0.03     0.25  -0.00   0.02
   3   6     0.00   0.10  -0.12    -0.01  -0.31   0.05     0.04   0.07  -0.09
   4   6     0.01   0.14  -0.04     0.03  -0.12   0.01     0.03   0.01  -0.19
   5   6     0.02   0.14  -0.13     0.17  -0.06   0.04     0.00   0.00  -0.15
   6   6     0.02   0.14  -0.10     0.17   0.10   0.02    -0.00  -0.01  -0.03
   7   6     0.02   0.15  -0.00     0.03   0.17  -0.02    -0.00  -0.00   0.06
   8   6     0.03   0.10   0.01     0.02   0.20  -0.02    -0.02   0.01   0.17
   9   6     0.10   0.07   0.05     0.10   0.16  -0.03    -0.03   0.02   0.20
  10   6     0.10  -0.01   0.04     0.10   0.06  -0.01    -0.03   0.02   0.17
  11   6     0.04  -0.04  -0.01     0.01   0.02   0.01    -0.03   0.02   0.11
  12   6     0.03  -0.09  -0.02    -0.01  -0.09   0.01    -0.03   0.00  -0.03
  13   6     0.03  -0.10  -0.08    -0.07  -0.11   0.04    -0.03  -0.00  -0.11
  14   6     0.03  -0.10  -0.07    -0.06  -0.17   0.04    -0.03  -0.01  -0.20
  15   6     0.03  -0.10  -0.01    -0.02  -0.20   0.01    -0.04  -0.01  -0.21
  16   6     0.02  -0.05   0.01    -0.04  -0.12   0.01    -0.04  -0.00  -0.12
  17   6    -0.05  -0.01   0.05    -0.19  -0.05  -0.02    -0.04   0.00  -0.01
  18   6    -0.05   0.08   0.06    -0.19   0.13  -0.03    -0.04   0.01   0.17
  19   6     0.03   0.11   0.01    -0.04   0.20  -0.01    -0.06   0.01   0.21
  20  16     0.16   0.04  -0.06     0.19   0.06   0.04    -0.10  -0.00   0.02
  21  16     0.05  -0.15   0.07     0.05  -0.25  -0.03    -0.05  -0.01  -0.29
  22  16    -0.05   0.05  -0.09    -0.11   0.19   0.03    -0.03   0.03   0.34
  23  16     0.01   0.26   0.17    -0.17   0.04  -0.09     0.05   0.01  -0.15
  24  17    -0.18  -0.48   0.38    -0.08   0.19  -0.15    -0.11  -0.06   0.12
  25   1    -0.03  -0.02  -0.03     0.01  -0.00   0.06    -0.00  -0.01   0.00
  26   1    -0.05  -0.01  -0.05     0.04   0.03   0.05     0.19   0.01   0.03
  27   1    -0.04   0.00  -0.04     0.03  -0.00   0.02     0.12  -0.09  -0.13
  28   1    -0.08  -0.00  -0.02     0.03  -0.02  -0.03     0.11  -0.01   0.01
  29   1    -0.05  -0.04  -0.08     0.02  -0.03   0.02     0.07   0.02   0.06
  30   1     0.01   0.04  -0.02    -0.05  -0.13  -0.03     0.00   0.04  -0.00
  31   1     0.02   0.04  -0.07     0.02  -0.14   0.08    -0.01   0.03  -0.03
  32   1     0.01   0.04  -0.05     0.07  -0.03   0.02    -0.00   0.00  -0.05
  33   1     0.01   0.04  -0.05     0.08   0.05   0.01    -0.00  -0.00   0.01
  34   1     0.04   0.03   0.02     0.05   0.06  -0.01    -0.01   0.00   0.06
  35   1     0.04  -0.01   0.02     0.05   0.00  -0.01    -0.01   0.01   0.04
  36   1     0.01  -0.03  -0.03    -0.03  -0.03   0.02    -0.01   0.00  -0.02
  37   1     0.01  -0.03  -0.03    -0.03  -0.06   0.02    -0.01  -0.00  -0.07
  38   1    -0.03  -0.01   0.02    -0.09  -0.04  -0.01    -0.01   0.00  -0.01
  39   1    -0.03   0.03   0.03    -0.09   0.06  -0.02    -0.01   0.00   0.08
  40   1     0.01   0.05   0.00    -0.00   0.09  -0.01    -0.02   0.00   0.10
                     13                     14                     15
                        a                      a                      a 
 Frequencies --   130.2003               140.2175               150.3872
 Red. masses --    16.1329                15.3376                16.9203
 Frc consts  --     0.0000                 0.0000                 0.0000
 IR Inten    --    14.7761                 8.2849                 7.4173
 Raman Activ --     0.0000                 0.0000                 0.0000
 Depolar     --     0.0000                 0.0000                 0.0000
 Atom AN      X      Y      Z        X      Y      Z        X      Y      Z
   1   7    -0.28   0.02   0.20    -0.25   0.00  -0.03     0.31  -0.00  -0.06
   2   6    -0.15  -0.00   0.13     0.06   0.15   0.06    -0.11  -0.08  -0.02
   3   6    -0.16  -0.05   0.13     0.06   0.16   0.05    -0.18   0.03  -0.09
   4   6    -0.13   0.00  -0.01     0.03  -0.02   0.03    -0.18   0.02  -0.08
   5   6    -0.08   0.02  -0.11    -0.04  -0.05  -0.02    -0.21   0.01  -0.01
   6   6    -0.07   0.04  -0.21    -0.03  -0.13  -0.06    -0.21  -0.01   0.08
   7   6    -0.07   0.04  -0.19     0.03  -0.16  -0.05    -0.15  -0.04   0.10
   8   6    -0.05   0.01  -0.05     0.01  -0.08  -0.02    -0.12  -0.05   0.07
   9   6     0.01  -0.01   0.04    -0.14  -0.00   0.00    -0.14  -0.04   0.03
  10   6     0.01  -0.04   0.17    -0.14   0.17   0.04    -0.13   0.02  -0.07
  11   6     0.01  -0.04   0.19    -0.01   0.23   0.04    -0.02   0.06  -0.10
  12   6     0.04  -0.02   0.11    -0.02   0.19   0.03     0.02   0.09  -0.08
  13   6     0.11  -0.00   0.03    -0.19   0.11  -0.01    -0.01   0.08  -0.04
  14   6     0.12   0.02  -0.11    -0.19  -0.10  -0.05    -0.01  -0.01   0.06
  15   6     0.11   0.02  -0.16    -0.03  -0.18  -0.05     0.10  -0.06   0.10
  16   6     0.13   0.01  -0.14    -0.03  -0.20  -0.04     0.14  -0.09   0.10
  17   6     0.16   0.00  -0.06    -0.19  -0.12  -0.02     0.08  -0.07   0.06
  18   6     0.16  -0.00   0.10    -0.19   0.07   0.02     0.09   0.02  -0.04
  19   6     0.14  -0.00   0.15    -0.03   0.14   0.04     0.18   0.06  -0.09
  20  16     0.20   0.01  -0.02     0.21  -0.06  -0.01     0.42  -0.03   0.05
  21  16     0.08  -0.02  -0.08     0.23   0.01   0.00     0.23   0.01   0.01
  22  16    -0.09  -0.01   0.22     0.22   0.13   0.04    -0.04   0.02  -0.03
  23  16    -0.20   0.02  -0.31     0.16  -0.17  -0.04    -0.24  -0.02   0.05
  24  17     0.06   0.02  -0.01     0.07  -0.05   0.03    -0.03   0.06  -0.00
  25   1    -0.00  -0.00   0.03    -0.04   0.01  -0.05     0.03  -0.01   0.03
  26   1    -0.15  -0.02   0.01    -0.12  -0.03  -0.04     0.18   0.02   0.04
  27   1    -0.10   0.05   0.14    -0.08  -0.02   0.07     0.11   0.00  -0.14
  28   1    -0.03  -0.00   0.03     0.06   0.01   0.05    -0.08   0.00  -0.03
  29   1    -0.04   0.02   0.03     0.03   0.11   0.00    -0.04  -0.09   0.03
  30   1    -0.07  -0.03   0.03     0.05   0.07   0.03    -0.05   0.02  -0.01
  31   1    -0.04  -0.03   0.06    -0.01   0.08  -0.01    -0.05   0.02  -0.04
  32   1    -0.02   0.00  -0.02    -0.02  -0.01  -0.00    -0.07   0.01  -0.01
  33   1    -0.02   0.01  -0.07    -0.02  -0.05  -0.02    -0.07  -0.01   0.04
  34   1     0.02   0.00  -0.00    -0.07  -0.02  -0.00    -0.05  -0.02   0.02
  35   1     0.00  -0.01   0.06    -0.07   0.07   0.01    -0.05   0.02  -0.03
  36   1     0.04  -0.01   0.03    -0.09   0.06  -0.00    -0.01   0.03  -0.02
  37   1     0.04   0.01  -0.05    -0.09  -0.05  -0.02    -0.02  -0.02   0.03
  38   1     0.05   0.00  -0.03    -0.09  -0.06  -0.01     0.01  -0.03   0.03
  39   1     0.05  -0.00   0.05    -0.09   0.04   0.01     0.01   0.02  -0.03
  40   1     0.04  -0.00   0.08     0.00   0.08   0.02     0.06   0.03  -0.05
                     16                     17                     18
                        a                      a                      a 
 Frequencies --   174.0871               189.7652               229.8430
 Red. masses --    11.1707                14.2513                 7.4083
 Frc consts  --     0.0000                 0.0000                 0.0000
 IR Inten    --     8.2134                 2.7792                 2.4721
 Raman Activ --     0.0000                 0.0000                 0.0000
 Depolar     --     0.0000                 0.0000                 0.0000
 Atom AN      X      Y      Z        X      Y      Z        X      Y      Z
   1   7    -0.28  -0.07  -0.06    -0.08  -0.06  -0.21     0.15   0.05   0.12
   2   6     0.29   0.20   0.09     0.23   0.17  -0.01     0.14   0.01   0.03
   3   6    -0.01  -0.01   0.00    -0.01  -0.01  -0.07     0.02   0.03  -0.04
   4   6    -0.02  -0.08  -0.16    -0.04  -0.09  -0.03     0.01  -0.02  -0.19
   5   6     0.02  -0.05  -0.11    -0.01  -0.06   0.10     0.00  -0.01  -0.13
   6   6     0.01   0.03   0.03    -0.01   0.02   0.15    -0.02   0.01   0.12
   7   6    -0.04   0.06   0.12    -0.06   0.04   0.07    -0.02   0.02   0.21
   8   6    -0.04   0.07   0.18    -0.05   0.05  -0.08    -0.03   0.02   0.18
   9   6     0.00   0.05   0.16    -0.00   0.03  -0.15    -0.02   0.01   0.06
  10   6     0.02  -0.02  -0.03    -0.00  -0.02  -0.08    -0.01  -0.02  -0.15
  11   6    -0.01  -0.04  -0.15    -0.03  -0.03   0.04    -0.01  -0.02  -0.15
  12   6     0.00  -0.05  -0.21    -0.02  -0.01   0.18    -0.01  -0.00  -0.04
  13   6     0.04  -0.04  -0.18     0.02   0.00   0.20    -0.01   0.01   0.07
  14   6     0.03   0.01   0.04     0.03   0.01   0.01    -0.01   0.02   0.09
  15   6     0.02   0.03   0.18     0.03  -0.00  -0.15     0.00   0.00  -0.01
  16   6     0.02   0.04   0.23     0.05  -0.02  -0.25     0.01  -0.01  -0.12
  17   6     0.05   0.02   0.17     0.07  -0.02  -0.20     0.01  -0.01  -0.13
  18   6     0.06  -0.02  -0.10     0.07   0.00   0.11     0.01   0.01   0.05
  19   6     0.05  -0.03  -0.23     0.06   0.02   0.26     0.01   0.02   0.16
  20  16     0.04   0.01   0.08     0.09  -0.01  -0.13     0.03  -0.00  -0.11
  21  16    -0.01  -0.03  -0.09    -0.03  -0.01   0.19    -0.02   0.02   0.16
  22  16    -0.12   0.04   0.08    -0.14   0.02  -0.22    -0.04  -0.01  -0.10
  23  16    -0.15  -0.03  -0.08    -0.21  -0.03   0.21    -0.01  -0.01  -0.06
  24  17     0.11  -0.05   0.03     0.10   0.00   0.03    -0.14  -0.09  -0.03
  25   1    -0.13   0.02  -0.07    -0.18   0.03  -0.06     0.41  -0.03  -0.11
  26   1    -0.11  -0.01  -0.04     0.08   0.04  -0.01    -0.29  -0.19  -0.14
  27   1    -0.09  -0.13   0.04    -0.00  -0.18  -0.15    -0.04   0.29   0.39
  28   1     0.25  -0.02   0.04     0.20  -0.01   0.01     0.03   0.01  -0.00
  29   1     0.11   0.24   0.06     0.08   0.19   0.04     0.04  -0.01   0.01
  30   1    -0.01  -0.02  -0.01     0.01  -0.02  -0.04    -0.01   0.02   0.01
  31   1    -0.05  -0.00   0.05    -0.04  -0.00   0.02    -0.02   0.02  -0.01
  32   1     0.02  -0.02  -0.04     0.01  -0.02   0.03     0.00  -0.01  -0.06
  33   1     0.01   0.02   0.02     0.01   0.02   0.05    -0.01   0.01   0.07
  34   1     0.01   0.02   0.07     0.01   0.01  -0.05    -0.01   0.00   0.04
  35   1     0.01  -0.01  -0.03     0.01  -0.01  -0.02    -0.00  -0.01  -0.07
  36   1     0.02  -0.02  -0.08     0.01  -0.00   0.08    -0.00   0.00   0.02
  37   1     0.01   0.01   0.04     0.01   0.00  -0.02    -0.00   0.00   0.03
  38   1     0.02   0.01   0.07     0.03  -0.01  -0.09     0.00  -0.01  -0.06
  39   1     0.02  -0.01  -0.06     0.02   0.00   0.07     0.00   0.01   0.03
  40   1     0.01  -0.02  -0.12     0.01   0.01   0.14     0.00   0.01   0.08
                     19                     20                     21
                        a                      a                      a 
 Frequencies --   247.8649               274.1923               278.8261
 Red. masses --    14.0739                18.1916                18.0813
 Frc consts  --     0.0000                 0.0000                 0.0000
 IR Inten    --     2.9910                 1.2466                 4.6803
 Raman Activ --     0.0000                 0.0000                 0.0000
 Depolar     --     0.0000                 0.0000                 0.0000
 Atom AN      X      Y      Z        X      Y      Z        X      Y      Z
   1   7    -0.18  -0.05   0.15     0.06  -0.02  -0.04     0.06   0.04  -0.10
   2   6    -0.09  -0.11   0.04     0.10   0.06   0.01    -0.15   0.09   0.04
   3   6    -0.13  -0.16   0.02    -0.17  -0.09  -0.07    -0.04   0.27   0.05
   4   6    -0.04   0.13  -0.14    -0.13   0.02  -0.15    -0.12  -0.18   0.12
   5   6    -0.05   0.12  -0.18    -0.11   0.06   0.02    -0.03  -0.16   0.02
   6   6    -0.07   0.06  -0.00    -0.11   0.09   0.13     0.01  -0.05  -0.09
   7   6     0.01   0.02   0.16    -0.04   0.05   0.02    -0.01  -0.02  -0.03
   8   6     0.05  -0.09   0.24     0.05  -0.10  -0.11     0.02   0.11   0.05
   9   6     0.03  -0.09   0.13     0.08  -0.11  -0.14     0.11   0.09   0.10
  10   6     0.04  -0.03  -0.16     0.08  -0.01   0.07     0.14   0.06  -0.02
  11   6     0.09  -0.00  -0.21     0.14   0.03   0.20     0.14   0.04  -0.11
  12   6     0.08   0.04  -0.12     0.14   0.05   0.18     0.12  -0.09  -0.11
  13   6     0.02   0.03   0.04     0.08   0.01   0.04     0.11  -0.10  -0.02
  14   6     0.00  -0.01   0.15     0.07  -0.08  -0.16     0.11  -0.08   0.11
  15   6    -0.01  -0.02   0.04     0.03  -0.06  -0.09     0.05  -0.05   0.08
  16   6    -0.04  -0.01  -0.11    -0.04   0.04   0.05    -0.02   0.09  -0.04
  17   6    -0.08  -0.00  -0.16    -0.10   0.07   0.13    -0.02   0.09  -0.09
  18   6    -0.09   0.01   0.03    -0.11   0.01  -0.02    -0.02   0.01   0.01
  19   6    -0.10   0.02   0.16    -0.14  -0.02  -0.15    -0.10  -0.02   0.09
  20  16    -0.14  -0.02  -0.12    -0.27   0.02   0.11    -0.26   0.06  -0.09
  21  16     0.13   0.06   0.16     0.29  -0.00  -0.10     0.17  -0.15   0.08
  22  16     0.27  -0.11   0.00     0.33  -0.07  -0.06     0.13   0.23   0.05
  23  16     0.08   0.15  -0.14    -0.24   0.10   0.11    -0.28  -0.30  -0.06
  24  17     0.08   0.06   0.01    -0.02  -0.04  -0.00    -0.00   0.01   0.00
  25   1    -0.24   0.01   0.13     0.11  -0.01  -0.07     0.02   0.01  -0.03
  26   1     0.10   0.12   0.11    -0.08  -0.08  -0.06     0.06  -0.02   0.00
  27   1    -0.01  -0.15  -0.12    -0.01   0.05   0.09     0.03   0.03  -0.08
  28   1    -0.01  -0.03  -0.00     0.10  -0.01  -0.02    -0.10   0.04   0.04
  29   1    -0.02  -0.02   0.01     0.03   0.08   0.06    -0.05  -0.02   0.01
  30   1    -0.12  -0.08  -0.02    -0.10  -0.06  -0.05     0.11   0.16   0.08
  31   1     0.01  -0.10   0.06    -0.05  -0.06   0.05    -0.08   0.17  -0.09
  32   1    -0.02   0.04  -0.07    -0.02   0.01   0.00     0.01  -0.06   0.01
  33   1    -0.04   0.01   0.01    -0.04   0.02   0.06     0.01  -0.01  -0.04
  34   1    -0.00  -0.03   0.07     0.02  -0.04  -0.07     0.05   0.04   0.05
  35   1     0.00  -0.00  -0.08     0.00   0.01   0.04     0.04   0.02  -0.02
  36   1    -0.01   0.02   0.01     0.01   0.01   0.03     0.03  -0.03  -0.02
  37   1    -0.00  -0.00   0.06     0.02  -0.02  -0.07     0.04  -0.02   0.05
  38   1    -0.03  -0.01  -0.07    -0.03   0.02   0.06     0.00   0.03  -0.04
  39   1    -0.02   0.00   0.03    -0.02  -0.00  -0.02     0.01  -0.01   0.01
  40   1    -0.03   0.01   0.09    -0.04  -0.01  -0.08    -0.03  -0.02   0.05
                     22                     23                     24
                        a                      a                      a 
 Frequencies --   311.5072               332.4681               353.8505
 Red. masses --    14.7725                17.9284                26.2472
 Frc consts  --     0.0000                 0.0000                 0.0000
 IR Inten    --     4.9836                 1.7897                 1.9719
 Raman Activ --     0.0000                 0.0000                 0.0000
 Depolar     --     0.0000                 0.0000                 0.0000
 Atom AN      X      Y      Z        X      Y      Z        X      Y      Z
   1   7     0.10  -0.00  -0.19     0.02  -0.03  -0.02    -0.04  -0.01   0.11
   2   6     0.08   0.12  -0.03     0.07  -0.00  -0.02     0.06  -0.09  -0.04
   3   6    -0.02  -0.11   0.02    -0.08  -0.17  -0.04     0.13   0.01  -0.04
   4   6    -0.01   0.01   0.19    -0.02   0.14  -0.05     0.10   0.02  -0.04
   5   6     0.02   0.04   0.23    -0.14   0.10   0.07     0.02  -0.01  -0.01
   6   6     0.03   0.07  -0.11    -0.14  -0.08   0.03    -0.00  -0.06   0.04
   7   6    -0.01   0.07  -0.27    -0.01  -0.14  -0.10    -0.05  -0.04  -0.00
   8   6     0.02  -0.09  -0.16    -0.03  -0.02  -0.14    -0.13   0.06  -0.05
   9   6     0.01  -0.08   0.08    -0.13   0.04  -0.04    -0.09   0.03  -0.04
  10   6    -0.01  -0.08   0.15    -0.12   0.17   0.09    -0.09  -0.10   0.04
  11   6     0.01  -0.09  -0.08    -0.01   0.18   0.01    -0.07  -0.09   0.03
  12   6     0.04   0.07  -0.26    -0.06  -0.14  -0.09     0.06   0.12  -0.02
  13   6    -0.00   0.07  -0.18    -0.02  -0.15  -0.10     0.03   0.10  -0.03
  14   6    -0.03   0.06   0.20     0.01  -0.10   0.11     0.03  -0.09   0.02
  15   6    -0.01   0.04   0.21     0.03  -0.08   0.14     0.12  -0.13   0.05
  16   6    -0.01  -0.06   0.03     0.02   0.16   0.03     0.02   0.09   0.01
  17   6    -0.07  -0.06  -0.15     0.15   0.10  -0.09     0.01   0.11  -0.03
  18   6    -0.08   0.00  -0.02     0.17  -0.01  -0.01     0.00   0.02  -0.01
  19   6    -0.05   0.04   0.19     0.07  -0.03   0.11    -0.09  -0.02   0.02
  20  16     0.03  -0.09  -0.15    -0.10   0.18  -0.11    -0.25   0.10  -0.04
  21  16     0.11   0.19   0.01    -0.08  -0.39   0.01     0.60  -0.04   0.01
  22  16    -0.00  -0.21   0.20     0.12   0.28   0.05    -0.51  -0.05  -0.02
  23  16    -0.14   0.15   0.06     0.22   0.03   0.10     0.16   0.02   0.03
  24  17    -0.02  -0.04   0.00    -0.00  -0.01   0.00     0.00   0.01  -0.00
  25   1     0.10   0.00  -0.12     0.03  -0.01  -0.03    -0.04  -0.01   0.07
  26   1    -0.03  -0.09  -0.07    -0.03  -0.03  -0.02    -0.01   0.06   0.02
  27   1     0.02   0.05   0.00    -0.01   0.01   0.04    -0.01  -0.02   0.04
  28   1     0.07   0.02  -0.02     0.07  -0.01  -0.03     0.00  -0.02  -0.01
  29   1     0.02   0.07   0.02     0.02   0.04   0.03     0.02  -0.04  -0.04
  30   1    -0.01  -0.09  -0.07    -0.11  -0.11  -0.07     0.04   0.02   0.02
  31   1     0.01  -0.08   0.07     0.02  -0.12   0.08     0.04   0.02  -0.04
  32   1     0.02   0.01   0.10    -0.07   0.05   0.03    -0.01   0.01  -0.01
  33   1     0.03   0.03  -0.06    -0.07  -0.04   0.01     0.00  -0.01   0.02
  34   1     0.00  -0.02   0.03    -0.05  -0.00  -0.02    -0.01   0.02  -0.02
  35   1     0.00  -0.02   0.07    -0.06   0.07   0.05    -0.01  -0.04   0.02
  36   1    -0.01   0.03  -0.09     0.01  -0.06  -0.05    -0.01   0.04  -0.02
  37   1    -0.01   0.02   0.10    -0.00  -0.03   0.05    -0.02  -0.05   0.01
  38   1    -0.03  -0.03  -0.07     0.08   0.05  -0.04     0.01   0.03  -0.01
  39   1    -0.03   0.01   0.00     0.07  -0.01  -0.00     0.02  -0.01  -0.00
  40   1    -0.01   0.03   0.10     0.01  -0.04   0.06    -0.03  -0.02   0.01
                     25                     26                     27
                        a                      a                      a 
 Frequencies --   358.6235               386.1374               400.5317
 Red. masses --    12.0991                17.8849                13.2610
 Frc consts  --     0.0000                 0.0000                 0.0000
 IR Inten    --     7.4912                 3.2750                 8.3830
 Raman Activ --     0.0000                 0.0000                 0.0000
 Depolar     --     0.0000                 0.0000                 0.0000
 Atom AN      X      Y      Z        X      Y      Z        X      Y      Z
   1   7     0.09   0.00  -0.24     0.03  -0.01  -0.10    -0.04  -0.02   0.18
   2   6    -0.03   0.16   0.01    -0.06   0.08   0.05     0.14  -0.16  -0.07
   3   6    -0.02  -0.14   0.13    -0.18  -0.11   0.05     0.03   0.05  -0.18
   4   6     0.01   0.06   0.32    -0.09   0.11  -0.01    -0.00   0.00  -0.20
   5   6     0.01   0.03   0.09    -0.17   0.07  -0.02    -0.08   0.02   0.18
   6   6     0.02  -0.02  -0.23    -0.15  -0.14   0.01    -0.07  -0.01   0.04
   7   6    -0.01  -0.01  -0.05     0.03  -0.19   0.03    -0.01  -0.04  -0.28
   8   6    -0.04  -0.02   0.20    -0.02   0.17  -0.01    -0.00  -0.00  -0.23
   9   6    -0.09  -0.00   0.21     0.15   0.13  -0.01     0.01   0.02   0.15
  10   6    -0.07  -0.01  -0.20     0.17  -0.04   0.01     0.02   0.01   0.07
  11   6    -0.03   0.01  -0.21     0.07  -0.08   0.02     0.04  -0.02  -0.28
  12   6    -0.02   0.02   0.04     0.10  -0.05   0.01     0.04  -0.05  -0.24
  13   6    -0.04   0.03   0.22     0.19  -0.01   0.01     0.05  -0.01   0.13
  14   6    -0.02  -0.06  -0.09     0.17   0.09  -0.01     0.05   0.03   0.09
  15   6     0.03  -0.09  -0.27     0.02   0.13  -0.01     0.01   0.01  -0.27
  16   6     0.01   0.05  -0.14     0.01  -0.11   0.01     0.01  -0.05  -0.26
  17   6     0.05   0.07   0.12    -0.14  -0.07   0.00    -0.04  -0.01   0.08
  18   6     0.06   0.01   0.07    -0.17   0.01  -0.01    -0.04   0.02   0.13
  19   6     0.02  -0.04  -0.19    -0.10   0.04  -0.00    -0.02  -0.01  -0.22
  20  16    -0.08   0.10   0.15     0.05  -0.21   0.02     0.01  -0.04   0.18
  21  16     0.11  -0.09   0.12    -0.02   0.21  -0.02    -0.05   0.05   0.16
  22  16    -0.04  -0.02   0.00    -0.25   0.25  -0.04     0.02   0.08   0.16
  23  16     0.06   0.07  -0.11     0.32  -0.22   0.03    -0.04   0.01   0.15
  24  17    -0.01  -0.03   0.01    -0.00  -0.02   0.00     0.00   0.02  -0.01
  25   1     0.08   0.01  -0.14     0.04   0.00  -0.07    -0.04  -0.02   0.11
  26   1     0.01  -0.10  -0.06     0.01  -0.06  -0.02    -0.04   0.09   0.02
  27   1     0.03   0.04  -0.07     0.01   0.02  -0.03    -0.02  -0.03   0.10
  28   1     0.02   0.03  -0.00     0.02   0.01  -0.00     0.06  -0.05  -0.03
  29   1    -0.01   0.06   0.02    -0.02   0.04   0.05     0.04  -0.02  -0.01
  30   1    -0.03  -0.13  -0.07    -0.13  -0.11  -0.06     0.02   0.08   0.02
  31   1     0.03  -0.12   0.14    -0.01  -0.11   0.11    -0.01   0.06  -0.12
  32   1    -0.00   0.01   0.04    -0.07   0.03  -0.01    -0.03   0.02   0.09
  33   1     0.01  -0.01  -0.11    -0.10  -0.07   0.00    -0.03  -0.01   0.02
  34   1    -0.04  -0.00   0.11     0.09   0.07  -0.00     0.01   0.01   0.09
  35   1    -0.02  -0.00  -0.11     0.07  -0.02   0.00     0.00   0.01   0.04
  36   1    -0.02   0.02   0.12     0.07  -0.01   0.00     0.02  -0.00   0.08
  37   1    -0.02  -0.03  -0.05     0.08   0.05  -0.00     0.03   0.02   0.06
  38   1     0.02   0.03   0.06    -0.07  -0.04   0.00    -0.02  -0.01   0.04
  39   1     0.02  -0.00   0.03    -0.06   0.01  -0.00    -0.02   0.01   0.07
  40   1     0.00  -0.03  -0.09    -0.02   0.04  -0.00    -0.00   0.00  -0.10
                     28                     29                     30
                        a                      a                      a 
 Frequencies --   438.3459               454.4966               481.5215
 Red. masses --    12.1715                13.1198                11.1359
 Frc consts  --     0.0000                 0.0000                 0.0000
 IR Inten    --     2.6182                 0.2037                 1.7973
 Raman Activ --     0.0000                 0.0000                 0.0000
 Depolar     --     0.0000                 0.0000                 0.0000
 Atom AN      X      Y      Z        X      Y      Z        X      Y      Z
   1   7     0.01   0.02  -0.11    -0.00  -0.01   0.03     0.00  -0.02   0.08
   2   6    -0.17   0.13   0.11    -0.01  -0.01   0.01     0.12  -0.09  -0.08
   3   6    -0.13   0.00   0.14    -0.16   0.03  -0.08    -0.02  -0.00  -0.14
   4   6    -0.06  -0.02  -0.08    -0.11   0.01  -0.19    -0.05   0.04   0.07
   5   6     0.07   0.00  -0.23    -0.06   0.07   0.14    -0.12   0.04   0.24
   6   6     0.06   0.04   0.19    -0.02   0.02  -0.01    -0.08  -0.03  -0.26
   7   6     0.09   0.02   0.14     0.12  -0.04  -0.20    -0.00  -0.03   0.03
   8   6     0.10   0.04  -0.15     0.12   0.09  -0.04     0.01   0.07   0.31
   9   6     0.13   0.03  -0.17     0.22   0.08   0.19     0.13   0.02  -0.05
  10   6     0.09  -0.00   0.23     0.22  -0.05  -0.12     0.13  -0.03  -0.12
  11   6    -0.03  -0.05   0.02     0.00  -0.10  -0.13     0.02  -0.02   0.30
  12   6    -0.04   0.06  -0.25    -0.04   0.12   0.12     0.00   0.04   0.12
  13   6    -0.18   0.04  -0.10    -0.26   0.07   0.12    -0.09  -0.02  -0.26
  14   6    -0.20  -0.03   0.20    -0.25  -0.08  -0.19    -0.11  -0.01   0.19
  15   6    -0.05  -0.09  -0.11    -0.10  -0.10   0.04    -0.06  -0.03   0.14
  16   6    -0.03   0.01  -0.26    -0.07   0.06   0.21    -0.03  -0.02  -0.23
  17   6     0.08   0.01   0.01     0.09  -0.00   0.03     0.03  -0.03  -0.12
  18   6     0.09  -0.01   0.16     0.12  -0.05  -0.15     0.04   0.00   0.25
  19   6     0.09  -0.04  -0.18     0.11  -0.02   0.17     0.06  -0.04  -0.21
  20  16    -0.01   0.15   0.11     0.00   0.18  -0.11     0.00   0.09   0.09
  21  16     0.04   0.02   0.09     0.02   0.06  -0.04    -0.00   0.05  -0.06
  22  16    -0.05  -0.13   0.04    -0.04  -0.12   0.05     0.01  -0.01  -0.12
  23  16     0.09  -0.13  -0.00     0.07  -0.18   0.11    -0.01  -0.05  -0.01
  24  17    -0.00  -0.01   0.01     0.00   0.00  -0.00     0.00   0.01  -0.00
  25   1     0.02   0.02  -0.08     0.00  -0.00   0.01    -0.01  -0.02   0.06
  26   1     0.04  -0.07   0.00    -0.01   0.00   0.01    -0.03   0.05  -0.01
  27   1     0.02   0.02  -0.08    -0.00   0.00   0.02    -0.01  -0.01   0.06
  28   1    -0.07   0.04   0.04     0.02  -0.01  -0.01     0.08  -0.04  -0.04
  29   1    -0.05   0.01   0.03    -0.00   0.02   0.04     0.04   0.01   0.01
  30   1    -0.07  -0.04  -0.00    -0.06   0.02  -0.01     0.01   0.03  -0.01
  31   1    -0.04  -0.03   0.10    -0.05   0.01  -0.02     0.00   0.02  -0.08
  32   1     0.04  -0.02  -0.11    -0.01   0.01   0.08    -0.05   0.02   0.11
  33   1     0.00   0.01   0.10    -0.04  -0.01   0.00    -0.04  -0.03  -0.15
  34   1     0.04   0.01  -0.09     0.08   0.04   0.11     0.06   0.01  -0.05
  35   1     0.05  -0.02   0.13     0.11  -0.05  -0.06     0.06  -0.03  -0.09
  36   1    -0.08   0.03  -0.04    -0.12   0.05   0.06    -0.04   0.00  -0.16
  37   1    -0.09  -0.02   0.12    -0.10  -0.05  -0.11    -0.04  -0.00   0.09
  38   1     0.04   0.02   0.01     0.06   0.02   0.01     0.02  -0.00  -0.05
  39   1     0.02   0.00   0.09     0.03  -0.02  -0.08     0.00   0.01   0.14
  40   1     0.02  -0.03  -0.07     0.03  -0.03   0.06     0.01  -0.02  -0.06
                     31                     32                     33
                        a                      a                      a 
 Frequencies --   507.5557               527.9039               540.3379
 Red. masses --    11.0877                11.3540                11.3493
 Frc consts  --     0.0000                 0.0000                 0.0000
 IR Inten    --     1.7732                 1.5078                 1.3241
 Raman Activ --     0.0000                 0.0000                 0.0000
 Depolar     --     0.0000                 0.0000                 0.0000
 Atom AN      X      Y      Z        X      Y      Z        X      Y      Z
   1   7    -0.01   0.02  -0.05     0.01  -0.01   0.02     0.01  -0.01   0.01
   2   6    -0.12   0.08   0.09     0.10  -0.06  -0.08     0.08  -0.04  -0.06
   3   6    -0.05   0.02   0.10     0.09  -0.03  -0.04     0.13  -0.03   0.01
   4   6     0.01  -0.05  -0.23     0.02   0.05   0.31     0.05   0.04   0.32
   5   6     0.12  -0.00  -0.07    -0.11  -0.04  -0.15    -0.10  -0.07  -0.28
   6   6     0.10   0.04   0.20    -0.12  -0.05   0.02    -0.14  -0.05   0.22
   7   6     0.05   0.02  -0.28    -0.08  -0.03   0.22    -0.09  -0.06  -0.08
   8   6     0.02  -0.03  -0.14    -0.02  -0.01  -0.21    -0.04  -0.02  -0.25
   9   6    -0.11   0.03   0.27     0.09  -0.03  -0.03     0.07  -0.03   0.24
  10   6    -0.09   0.01  -0.24     0.09  -0.03   0.15     0.10  -0.07  -0.19
  11   6    -0.04   0.03  -0.01     0.07  -0.06  -0.29     0.07  -0.04   0.09
  12   6    -0.03   0.02   0.32     0.04   0.01   0.05     0.05   0.01   0.22
  13   6     0.06   0.00  -0.11    -0.06  -0.01   0.18    -0.04  -0.06  -0.21
  14   6     0.07   0.02  -0.04    -0.05  -0.06  -0.24    -0.06  -0.03   0.19
  15   6     0.04   0.06   0.29    -0.06  -0.00   0.28    -0.06  -0.04  -0.10
  16   6     0.03  -0.00  -0.08    -0.05   0.00   0.12    -0.05  -0.03  -0.18
  17   6    -0.01  -0.00  -0.21     0.02  -0.06  -0.27     0.01  -0.02   0.20
  18   6    -0.03   0.05   0.28     0.02  -0.00   0.28     0.03  -0.05  -0.17
  19   6    -0.03  -0.01  -0.21     0.05  -0.03  -0.18     0.05  -0.01   0.11
  20  16    -0.01  -0.06   0.06     0.00   0.08   0.00     0.00   0.10   0.00
  21  16     0.01  -0.07  -0.10    -0.01   0.07  -0.06    -0.01   0.10  -0.03
  22  16    -0.02  -0.04   0.03     0.02   0.09   0.07     0.02   0.11   0.02
  23  16     0.04  -0.00   0.09    -0.06   0.05  -0.09    -0.07   0.09  -0.04
  24  17    -0.00  -0.01   0.00     0.00   0.00   0.00     0.00   0.00   0.00
  25   1     0.01   0.01  -0.04    -0.01  -0.01   0.03    -0.01  -0.01   0.02
  26   1     0.03  -0.05   0.01    -0.02   0.04  -0.01    -0.01   0.03  -0.01
  27   1     0.01   0.02  -0.05    -0.00  -0.01   0.03    -0.00  -0.01   0.02
  28   1    -0.07   0.03   0.04     0.05  -0.02  -0.03     0.03  -0.01  -0.02
  29   1    -0.04  -0.01   0.00     0.03   0.01  -0.01     0.02  -0.00  -0.03
  30   1    -0.04  -0.01   0.01     0.05  -0.00  -0.01     0.06  -0.01  -0.01
  31   1    -0.03  -0.00   0.06     0.05  -0.01  -0.03     0.06  -0.02  -0.01
  32   1     0.05  -0.01  -0.02    -0.05   0.00  -0.10    -0.06  -0.01  -0.16
  33   1     0.04   0.03   0.13    -0.04  -0.02  -0.01    -0.04  -0.01   0.12
  34   1    -0.05   0.00   0.16     0.05   0.01   0.02     0.04   0.02   0.15
  35   1    -0.03   0.00  -0.13     0.02  -0.00   0.12     0.03  -0.02  -0.10
  36   1     0.04  -0.02  -0.10    -0.04   0.01   0.08    -0.03  -0.01  -0.14
  37   1     0.02   0.00  -0.05    -0.01  -0.03  -0.17    -0.01  -0.00   0.10
  38   1    -0.01  -0.01  -0.11     0.02  -0.02  -0.16     0.01   0.01   0.13
  39   1    -0.01   0.02   0.17    -0.00   0.01   0.16    -0.00  -0.01  -0.10
  40   1    -0.01   0.00  -0.05     0.01  -0.01  -0.03     0.01  -0.01   0.02
                     34                     35                     36
                        a                      a                      a 
 Frequencies --   558.7685               569.8435               574.5875
 Red. masses --    11.7277                11.6676                11.4026
 Frc consts  --     0.0000                 0.0000                 0.0000
 IR Inten    --     0.2474                 0.2839                 0.3176
 Raman Activ --     0.0000                 0.0000                 0.0000
 Depolar     --     0.0000                 0.0000                 0.0000
 Atom AN      X      Y      Z        X      Y      Z        X      Y      Z
   1   7    -0.00  -0.00  -0.01    -0.00   0.01  -0.02    -0.00   0.01  -0.02
   2   6     0.01   0.00   0.00    -0.01   0.02   0.02    -0.02   0.02   0.02
   3   6     0.09  -0.01   0.05     0.07  -0.01   0.06     0.05  -0.00   0.05
   4   6     0.05  -0.00   0.07     0.05  -0.02  -0.04     0.04  -0.02  -0.09
   5   6    -0.03  -0.06  -0.15    -0.01  -0.05  -0.05    -0.00  -0.03   0.03
   6   6    -0.06  -0.03   0.20    -0.03  -0.03   0.12    -0.00  -0.03   0.01
   7   6    -0.03  -0.06  -0.40    -0.03  -0.06  -0.38    -0.03  -0.03  -0.11
   8   6    -0.06   0.01   0.25    -0.07   0.02   0.43    -0.05  -0.00   0.19
   9   6     0.03  -0.04   0.02     0.02  -0.06  -0.21     0.01  -0.05  -0.13
  10   6     0.04  -0.05  -0.10     0.00  -0.03   0.20    -0.00  -0.02   0.16
  11   6     0.03   0.00   0.38     0.06  -0.05  -0.25     0.05  -0.05  -0.36
  12   6     0.05  -0.05  -0.39     0.04  -0.01   0.08     0.02   0.02   0.41
  13   6    -0.02  -0.02   0.13    -0.01  -0.04   0.06     0.01  -0.06  -0.22
  14   6    -0.02  -0.04  -0.05    -0.01  -0.05  -0.11    -0.01  -0.01   0.23
  15   6    -0.04  -0.04  -0.15    -0.05   0.01   0.34    -0.02  -0.06  -0.43
  16   6    -0.05   0.02   0.32    -0.03  -0.06  -0.38    -0.04   0.02   0.38
  17   6     0.01  -0.05  -0.17    -0.00  -0.02   0.16     0.00  -0.05  -0.13
  18   6     0.01  -0.01   0.14     0.01  -0.04  -0.10     0.00  -0.02   0.09
  19   6     0.04  -0.02  -0.08     0.04  -0.01   0.07     0.03  -0.02  -0.06
  20  16     0.00   0.06  -0.04    -0.00   0.08   0.04     0.00   0.06  -0.05
  21  16    -0.01   0.08   0.07    -0.00   0.08  -0.06    -0.00   0.07  -0.00
  22  16     0.02   0.08  -0.09     0.01   0.08  -0.03     0.00   0.07   0.02
  23  16    -0.04   0.08   0.04    -0.02   0.08   0.05    -0.01   0.06   0.02
  24  17    -0.00   0.00  -0.00    -0.00  -0.00   0.00    -0.00  -0.00  -0.00
  25   1    -0.00   0.00  -0.01    -0.00   0.01  -0.01    -0.00   0.01  -0.02
  26   1     0.00  -0.00  -0.00     0.01  -0.01   0.00     0.01  -0.01   0.00
  27   1     0.00  -0.00  -0.01     0.00   0.00  -0.02     0.00   0.00  -0.01
  28   1    -0.02   0.01   0.01    -0.03   0.01   0.02    -0.04   0.01   0.02
  29   1     0.00  -0.02  -0.02    -0.00  -0.02  -0.02    -0.01  -0.02  -0.02
  30   1     0.02  -0.01   0.00     0.01  -0.01   0.00     0.00  -0.01   0.00
  31   1     0.03  -0.01   0.02     0.02  -0.01   0.03     0.01  -0.01   0.03
  32   1    -0.02  -0.01  -0.06    -0.01  -0.01  -0.01    -0.01  -0.00   0.02
  33   1    -0.02   0.00   0.16    -0.00   0.00   0.12     0.01  -0.00   0.02
  34   1     0.03  -0.01  -0.05     0.02  -0.02  -0.16     0.01  -0.01  -0.07
  35   1     0.01  -0.02  -0.12    -0.01   0.00   0.11    -0.01   0.00   0.12
  36   1    -0.02   0.01   0.14    -0.01  -0.00  -0.00    -0.00  -0.02  -0.15
  37   1    -0.00  -0.00   0.02     0.01  -0.02  -0.11     0.00   0.01   0.16
  38   1     0.01  -0.02  -0.14     0.01   0.01   0.14     0.01  -0.02  -0.12
  39   1    -0.01   0.00   0.06    -0.01  -0.01  -0.05    -0.01   0.00   0.03
  40   1     0.01  -0.01  -0.00     0.01  -0.01  -0.00     0.01  -0.01   0.01
                     37                     38                     39
                        a                      a                      a 
 Frequencies --   576.9945               614.6446               660.7170
 Red. masses --    15.0254                15.7519                16.6853
 Frc consts  --     0.0000                 0.0000                 0.0000
 IR Inten    --     3.3469                 5.8598                11.8997
 Raman Activ --     0.0000                 0.0000                 0.0000
 Depolar     --     0.0000                 0.0000                 0.0000
 Atom AN      X      Y      Z        X      Y      Z        X      Y      Z
   1   7    -0.02   0.02  -0.06     0.01  -0.01   0.05    -0.01   0.00  -0.03
   2   6    -0.08   0.08   0.08    -0.01  -0.03  -0.02     0.06   0.01  -0.01
   3   6     0.15  -0.01   0.17    -0.24   0.03  -0.16     0.26   0.00   0.13
   4   6     0.15  -0.09  -0.40    -0.16   0.04   0.17     0.13   0.10  -0.08
   5   6     0.01  -0.10   0.21     0.16   0.13  -0.04    -0.16   0.02  -0.00
   6   6     0.02  -0.14  -0.16     0.16   0.14   0.02    -0.17   0.01  -0.02
   7   6    -0.13  -0.04   0.23     0.09   0.11  -0.01     0.03  -0.02   0.00
   8   6    -0.11  -0.08  -0.17     0.02  -0.03   0.00     0.09   0.15  -0.01
   9   6    -0.02  -0.12   0.08    -0.20   0.01  -0.01     0.02   0.24  -0.02
  10   6     0.00  -0.13  -0.05    -0.20  -0.01  -0.01     0.05   0.25  -0.02
  11   6     0.12  -0.06   0.11     0.02   0.03   0.00    -0.10   0.15  -0.02
  12   6     0.13  -0.07  -0.07     0.09  -0.11   0.01    -0.06   0.05  -0.01
  13   6    -0.00  -0.12   0.04     0.16  -0.14   0.02     0.17   0.12  -0.01
  14   6    -0.01  -0.13  -0.02     0.16  -0.16   0.02     0.16   0.06  -0.00
  15   6    -0.12  -0.06   0.05    -0.12  -0.06  -0.00     0.01   0.06  -0.01
  16   6    -0.12  -0.07  -0.04    -0.15  -0.14   0.01    -0.06  -0.14   0.01
  17   6    -0.00  -0.12   0.03    -0.05  -0.22   0.02    -0.09  -0.20   0.02
  18   6     0.01  -0.10   0.00    -0.05  -0.20   0.02    -0.11  -0.19   0.02
  19   6     0.12  -0.05   0.01     0.17  -0.10   0.01     0.11  -0.10   0.01
  20  16    -0.00   0.22  -0.02    -0.02   0.36  -0.04    -0.03   0.30  -0.03
  21  16    -0.00   0.24  -0.02     0.04   0.25  -0.02     0.01  -0.14   0.01
  22  16     0.00   0.23  -0.01    -0.05   0.01  -0.00     0.01  -0.37   0.03
  23  16    -0.03   0.21   0.00     0.12  -0.18   0.01    -0.18  -0.12   0.00
  24  17    -0.00  -0.01   0.00     0.00   0.00  -0.00     0.00  -0.00   0.00
  25   1    -0.00   0.02  -0.06     0.01  -0.02   0.04    -0.02   0.01  -0.02
  26   1     0.02  -0.05   0.01    -0.01   0.02   0.00    -0.01   0.01  -0.01
  27   1     0.00   0.01  -0.06     0.00   0.01   0.03    -0.00  -0.03   0.00
  28   1    -0.13   0.05   0.06     0.11  -0.04  -0.04    -0.10   0.03   0.04
  29   1    -0.03  -0.06  -0.07    -0.00   0.08   0.09     0.02  -0.09  -0.10
  30   1    -0.01  -0.04   0.01    -0.02   0.05  -0.00    -0.00  -0.06  -0.03
  31   1     0.02  -0.02   0.11    -0.07   0.04  -0.10     0.11  -0.07   0.11
  32   1    -0.02  -0.01   0.12     0.10   0.00  -0.03    -0.09   0.03   0.00
  33   1     0.04  -0.03  -0.10     0.05   0.04   0.00    -0.08  -0.02   0.00
  34   1     0.02  -0.01   0.06    -0.09  -0.02  -0.00    -0.01   0.06  -0.01
  35   1    -0.03  -0.02  -0.03    -0.09   0.02  -0.01     0.05   0.05  -0.00
  36   1    -0.03  -0.01   0.03     0.04  -0.04   0.01     0.08   0.01   0.00
  37   1     0.02  -0.02  -0.02     0.09  -0.01   0.00     0.06   0.03   0.00
  38   1     0.02  -0.02   0.01     0.01  -0.05   0.01    -0.02  -0.06   0.00
  39   1    -0.02  -0.01  -0.00    -0.06  -0.02   0.00    -0.07  -0.03  -0.00
  40   1     0.03  -0.03   0.00     0.04  -0.04   0.01     0.03  -0.03   0.00
                     40                     41                     42
                        a                      a                      a 
 Frequencies --   683.8750               701.6998               722.4210
 Red. masses --    18.2780                18.9998                14.1565
 Frc consts  --     0.0000                 0.0000                 0.0000
 IR Inten    --     8.2160                 1.5091                 0.0249
 Raman Activ --     0.0000                 0.0000                 0.0000
 Depolar     --     0.0000                 0.0000                 0.0000
 Atom AN      X      Y      Z        X      Y      Z        X      Y      Z
   1   7    -0.00   0.01   0.01    -0.00   0.01  -0.00     0.00   0.00  -0.00
   2   6    -0.09   0.00   0.02    -0.03   0.00   0.01     0.01   0.00  -0.00
   3   6    -0.23  -0.07  -0.08    -0.04  -0.05   0.00     0.02  -0.00   0.01
   4   6    -0.11  -0.29   0.05    -0.03  -0.17   0.00    -0.00  -0.02  -0.00
   5   6    -0.05  -0.30   0.02    -0.14  -0.22   0.01    -0.02  -0.01  -0.00
   6   6     0.02  -0.16   0.02    -0.09  -0.04  -0.00    -0.03   0.08  -0.01
   7   6    -0.05  -0.10   0.00    -0.00  -0.03   0.00     0.01   0.05  -0.00
   8   6    -0.01  -0.00  -0.00     0.04   0.16  -0.01     0.06  -0.20   0.02
   9   6     0.11  -0.02   0.01    -0.06   0.26  -0.02     0.12  -0.22   0.02
  10   6     0.11   0.07  -0.00     0.00   0.26  -0.02     0.13   0.26  -0.01
  11   6    -0.03   0.03  -0.00    -0.02   0.18  -0.02     0.04   0.21  -0.02
  12   6    -0.05   0.11  -0.01     0.02  -0.17   0.02    -0.08  -0.29   0.02
  13   6     0.07   0.19  -0.02     0.00  -0.25   0.02    -0.19  -0.35   0.03
  14   6     0.03   0.16  -0.01     0.06  -0.28   0.03    -0.18   0.32  -0.04
  15   6     0.03   0.11  -0.01    -0.04  -0.18   0.02    -0.09   0.28  -0.03
  16   6    -0.01  -0.09   0.01    -0.01   0.08  -0.01    -0.01  -0.07   0.00
  17   6    -0.07  -0.12   0.01     0.07   0.10  -0.01     0.03  -0.10   0.01
  18   6    -0.09  -0.13   0.01     0.10   0.13  -0.01     0.02   0.04  -0.00
  19   6     0.06  -0.07   0.01    -0.05   0.07  -0.01     0.03   0.05  -0.00
  20  16    -0.02   0.19  -0.02     0.01  -0.17   0.02    -0.04   0.01  -0.00
  21  16    -0.01  -0.26   0.02    -0.00   0.37  -0.04     0.33   0.01   0.01
  22  16    -0.03  -0.03   0.00    -0.01  -0.37   0.03    -0.21  -0.01  -0.01
  23  16     0.24   0.47  -0.03     0.12   0.23  -0.01     0.01  -0.04   0.00
  24  17    -0.00   0.01  -0.00    -0.00   0.00   0.00    -0.00   0.00  -0.00
  25   1     0.03  -0.01   0.00     0.01   0.00  -0.01    -0.00   0.00  -0.00
  26   1     0.02  -0.03   0.02     0.01  -0.01   0.01    -0.00   0.00  -0.00
  27   1     0.01   0.05  -0.03     0.00   0.02  -0.02    -0.00  -0.00   0.00
  28   1     0.10  -0.03  -0.04     0.02  -0.01  -0.01    -0.01   0.00   0.00
  29   1    -0.02   0.10   0.10    -0.01   0.03   0.02     0.00  -0.01  -0.01
  30   1     0.06   0.07   0.06     0.04   0.02   0.03     0.00  -0.00  -0.00
  31   1    -0.15   0.09  -0.13    -0.05   0.03  -0.04     0.00  -0.00   0.01
  32   1     0.00  -0.10   0.01    -0.04  -0.07   0.01     0.01  -0.01   0.00
  33   1     0.04  -0.02   0.00    -0.02  -0.01   0.00    -0.00   0.03  -0.00
  34   1     0.04   0.00   0.00    -0.03   0.06  -0.01    -0.04  -0.11   0.01
  35   1     0.04   0.01   0.00     0.00   0.08  -0.01    -0.03   0.12  -0.01
  36   1     0.04   0.04  -0.00    -0.01  -0.07   0.01     0.04  -0.16   0.02
  37   1     0.00   0.04  -0.01     0.03  -0.07   0.01     0.05   0.16  -0.01
  38   1    -0.03  -0.04   0.00     0.03   0.04  -0.00    -0.00  -0.04   0.00
  39   1    -0.05  -0.02   0.00     0.05   0.02  -0.00    -0.02   0.03  -0.00
  40   1     0.02  -0.02   0.01    -0.01   0.01  -0.00     0.01   0.00  -0.00
                     43                     44                     45
                        a                      a                      a 
 Frequencies --   724.3182               724.4869               727.6028
 Red. masses --    15.2945                14.7726                15.1139
 Frc consts  --     0.0000                 0.0000                 0.0000
 IR Inten    --    16.2841                 0.6352                17.2013
 Raman Activ --     0.0000                 0.0000                 0.0000
 Depolar     --     0.0000                 0.0000                 0.0000
 Atom AN      X      Y      Z        X      Y      Z        X      Y      Z
   1   7     0.00  -0.00  -0.00     0.00  -0.01   0.02     0.00   0.00  -0.00
   2   6     0.01   0.00  -0.00    -0.03   0.00   0.01     0.00   0.00  -0.00
   3   6     0.01   0.01   0.00    -0.10   0.06  -0.07     0.00   0.00   0.00
   4   6    -0.00   0.01  -0.00     0.02   0.21   0.02    -0.00  -0.00   0.00
   5   6     0.02   0.03  -0.00     0.26   0.26  -0.00    -0.00  -0.00  -0.00
   6   6     0.00   0.06  -0.01     0.30  -0.50   0.06    -0.00   0.01  -0.00
   7   6     0.01   0.04  -0.00     0.12  -0.41   0.03    -0.00   0.01  -0.00
   8   6     0.08  -0.29   0.03     0.05   0.01   0.01     0.00  -0.02   0.00
   9   6     0.20  -0.36   0.04     0.03   0.05  -0.00     0.01  -0.03   0.00
  10   6     0.20   0.29  -0.01     0.05   0.10  -0.01     0.01  -0.00   0.00
  11   6     0.12   0.27  -0.02    -0.01   0.06  -0.00     0.00  -0.00  -0.00
  12   6     0.09   0.17  -0.01    -0.02  -0.04   0.00     0.01   0.06  -0.01
  13   6     0.14   0.18  -0.01    -0.01  -0.05   0.01     0.06   0.09  -0.01
  14   6     0.14  -0.25   0.03     0.00  -0.01   0.00     0.05  -0.03   0.00
  15   6     0.05  -0.19   0.02    -0.01   0.00  -0.00     0.06  -0.05   0.01
  16   6    -0.01   0.07  -0.01    -0.00  -0.01   0.00     0.13  -0.35   0.04
  17   6    -0.03   0.09  -0.01     0.01  -0.01   0.00     0.26  -0.40   0.05
  18   6    -0.02  -0.03   0.00     0.01   0.02  -0.00     0.27   0.39  -0.03
  19   6    -0.02  -0.04   0.00    -0.00   0.01  -0.00     0.06   0.31  -0.03
  20  16     0.05  -0.02   0.00    -0.01  -0.01   0.00    -0.42  -0.00  -0.01
  21  16    -0.26   0.02  -0.01     0.03   0.04  -0.00    -0.12  -0.01  -0.00
  22  16    -0.37   0.03  -0.02    -0.07  -0.07   0.00    -0.01   0.02  -0.00
  23  16    -0.02  -0.05   0.00    -0.36   0.19  -0.04     0.01  -0.01   0.00
  24  17    -0.00  -0.00  -0.00     0.00  -0.00  -0.00    -0.00  -0.00  -0.00
  25   1    -0.00   0.00   0.00     0.01  -0.01   0.01    -0.00   0.00  -0.00
  26   1    -0.00   0.00  -0.00     0.00   0.00   0.01    -0.00   0.00  -0.00
  27   1    -0.00  -0.01   0.00     0.00   0.01   0.00    -0.00  -0.00   0.00
  28   1    -0.01   0.00   0.00     0.04  -0.01  -0.01    -0.00   0.00   0.00
  29   1     0.00  -0.01  -0.01    -0.01   0.04   0.05     0.00  -0.00  -0.00
  30   1    -0.00  -0.00  -0.00    -0.05   0.02  -0.01     0.00  -0.00  -0.00
  31   1     0.01  -0.01   0.01    -0.01   0.01  -0.03     0.00  -0.00   0.00
  32   1     0.02   0.00   0.00     0.00   0.12  -0.03     0.00  -0.00   0.00
  33   1     0.00   0.02  -0.00    -0.03  -0.21   0.01     0.00   0.01   0.00
  34   1    -0.03  -0.16   0.01    -0.01   0.00   0.00     0.00  -0.01   0.00
  35   1    -0.05   0.15  -0.01     0.02   0.03   0.00    -0.00   0.00  -0.00
  36   1    -0.03   0.10  -0.01     0.01  -0.02   0.00     0.00   0.03  -0.00
  37   1    -0.02  -0.11   0.01     0.01   0.00  -0.00    -0.02  -0.03   0.00
  38   1     0.01   0.03  -0.00     0.00  -0.00   0.00    -0.05  -0.19   0.02
  39   1     0.02  -0.02   0.00     0.00   0.01   0.00    -0.02   0.18  -0.02
  40   1    -0.00   0.00  -0.00    -0.00   0.00   0.00    -0.00  -0.00   0.01
                     46                     47                     48
                        a                      a                      a 
 Frequencies --   746.8880               811.2655               816.1904
 Red. masses --     2.4971                 3.1906                13.9981
 Frc consts  --     0.0000                 0.0000                 0.0000
 IR Inten    --    15.6986                 1.4259                45.0454
 Raman Activ --     0.0000                 0.0000                 0.0000
 Depolar     --     0.0000                 0.0000                 0.0000
 Atom AN      X      Y      Z        X      Y      Z        X      Y      Z
   1   7    -0.00  -0.01   0.00    -0.01  -0.00  -0.01    -0.00   0.00  -0.00
   2   6     0.00  -0.00   0.00    -0.01   0.01  -0.01     0.00  -0.00  -0.00
   3   6    -0.00   0.01  -0.00     0.01  -0.00   0.01     0.01  -0.00   0.01
   4   6    -0.00  -0.00   0.00     0.01   0.00  -0.01    -0.00  -0.01  -0.00
   5   6     0.00  -0.00  -0.00    -0.00  -0.00   0.00    -0.02  -0.01  -0.00
   6   6     0.00  -0.00  -0.01    -0.01   0.01   0.05    -0.01   0.02  -0.00
   7   6     0.00  -0.00   0.00    -0.01   0.00  -0.04     0.05  -0.01   0.00
   8   6     0.00   0.00  -0.00    -0.01   0.01   0.09     0.07  -0.05   0.01
   9   6    -0.00   0.00   0.01     0.01  -0.02  -0.24     0.04  -0.03  -0.01
  10   6    -0.00  -0.00   0.01     0.01  -0.02  -0.24     0.01   0.01  -0.01
  11   6    -0.00  -0.00  -0.00    -0.00   0.01   0.10    -0.13  -0.05  -0.00
  12   6     0.00   0.00   0.01     0.01  -0.01  -0.08    -0.16  -0.11   0.01
  13   6     0.00   0.00  -0.01    -0.01   0.01   0.15    -0.06  -0.04  -0.01
  14   6     0.00  -0.00  -0.01    -0.00   0.01   0.13    -0.00   0.02  -0.02
  15   6    -0.00   0.00   0.01    -0.00  -0.00  -0.05     0.26  -0.11   0.02
  16   6    -0.00  -0.01  -0.03    -0.00   0.00   0.03     0.29  -0.19   0.02
  17   6     0.00  -0.00   0.00     0.00  -0.01  -0.04     0.09  -0.05   0.01
  18   6    -0.00   0.01   0.13     0.00  -0.00  -0.01    -0.01   0.04  -0.00
  19   6    -0.01   0.04   0.34     0.00   0.00   0.03    -0.58  -0.23   0.01
  20  16    -0.00  -0.00  -0.03    -0.00  -0.00   0.00     0.17   0.33  -0.03
  21  16    -0.00  -0.00  -0.00     0.00  -0.00  -0.02    -0.04   0.16  -0.01
  22  16     0.00   0.00  -0.00    -0.00  -0.00   0.03     0.03   0.08  -0.00
  23  16    -0.00   0.00   0.00     0.00  -0.01   0.00    -0.02   0.02  -0.00
  24  17     0.00   0.00  -0.00    -0.00  -0.00   0.00     0.00   0.00   0.00
  25   1     0.00  -0.00   0.00     0.01  -0.02   0.02     0.00   0.00  -0.00
  26   1     0.00   0.00   0.00     0.00  -0.00   0.00     0.00   0.00  -0.00
  27   1    -0.00   0.00  -0.00     0.00   0.02  -0.01    -0.00   0.00  -0.00
  28   1     0.00  -0.00   0.00     0.01  -0.01   0.01    -0.00   0.00   0.00
  29   1     0.00   0.00   0.00    -0.00   0.01   0.00     0.00  -0.00  -0.00
  30   1    -0.00   0.00  -0.00    -0.00  -0.00  -0.00     0.01   0.00   0.00
  31   1    -0.00   0.00  -0.00     0.00  -0.00   0.01    -0.00   0.00   0.00
  32   1     0.00  -0.00   0.00     0.00  -0.00  -0.03    -0.00  -0.00   0.00
  33   1    -0.00   0.00   0.01     0.01  -0.01  -0.09    -0.01  -0.00   0.00
  34   1     0.00  -0.00  -0.02    -0.03   0.04   0.53    -0.02  -0.02   0.03
  35   1     0.00  -0.00  -0.01    -0.03   0.05   0.54     0.03  -0.01   0.03
  36   1    -0.00   0.00   0.01     0.01  -0.03  -0.33     0.03  -0.04   0.04
  37   1    -0.00   0.00   0.02     0.01  -0.03  -0.30    -0.06  -0.03   0.03
  38   1     0.01  -0.03  -0.26    -0.00   0.01   0.07    -0.07  -0.08  -0.00
  39   1     0.01  -0.02  -0.23    -0.00   0.00   0.03     0.13  -0.08   0.01
  40   1     0.02  -0.08  -0.86     0.00  -0.01  -0.06    -0.21  -0.22   0.02
                     49                     50                     51
                        a                      a                      a 
 Frequencies --   817.2267               827.4668               834.0835
 Red. masses --     3.0872                 3.3021                10.8435
 Frc consts  --     0.0000                 0.0000                 0.0000
 IR Inten    --    22.5942                 8.5068                25.7019
 Raman Activ --     0.0000                 0.0000                 0.0000
 Depolar     --     0.0000                 0.0000                 0.0000
 Atom AN      X      Y      Z        X      Y      Z        X      Y      Z
   1   7     0.00   0.00   0.00    -0.00  -0.00  -0.00     0.00   0.02  -0.02
   2   6     0.00  -0.00   0.00    -0.00   0.00  -0.00     0.02  -0.02  -0.01
   3   6    -0.00   0.00  -0.00     0.00  -0.00   0.00     0.02  -0.04   0.05
   4   6    -0.00  -0.00   0.00     0.00   0.00  -0.01    -0.02  -0.05   0.02
   5   6     0.00   0.00   0.00     0.00   0.00   0.00    -0.09  -0.04  -0.03
   6   6     0.00  -0.00   0.01    -0.00   0.00   0.03    -0.04   0.05  -0.23
   7   6    -0.00  -0.00  -0.02    -0.01   0.00  -0.01     0.26  -0.07   0.07
   8   6    -0.01   0.01   0.05    -0.01   0.00   0.00     0.29  -0.16   0.02
   9   6     0.01  -0.01  -0.15    -0.00  -0.00   0.00     0.05  -0.02  -0.00
  10   6     0.00  -0.01  -0.14     0.00   0.00   0.01    -0.04  -0.01  -0.03
  11   6     0.01   0.00   0.02     0.01   0.00  -0.01    -0.31  -0.15   0.00
  12   6     0.01   0.01   0.06     0.01   0.00   0.02    -0.29  -0.10  -0.00
  13   6     0.01  -0.02  -0.25     0.00  -0.01  -0.07     0.02   0.04   0.00
  14   6     0.01  -0.02  -0.23    -0.00  -0.00  -0.04     0.08  -0.05   0.01
  15   6    -0.02   0.02   0.08    -0.00   0.00  -0.02     0.10  -0.10   0.01
  16   6    -0.02   0.01  -0.04    -0.00   0.01   0.08     0.05   0.03   0.00
  17   6    -0.01   0.01   0.06     0.01  -0.04  -0.40    -0.07   0.06  -0.03
  18   6    -0.00  -0.00   0.01     0.00  -0.01  -0.08    -0.06  -0.07   0.00
  19   6     0.04   0.01  -0.02    -0.01   0.01   0.13     0.24   0.05   0.01
  20  16    -0.01  -0.02  -0.00     0.00   0.01   0.04    -0.12  -0.06   0.01
  21  16     0.00  -0.01   0.04    -0.00  -0.00   0.01     0.07   0.14  -0.01
  22  16    -0.00  -0.00   0.02     0.00  -0.01  -0.00     0.01   0.22  -0.01
  23  16     0.00   0.00  -0.00     0.00  -0.00  -0.00    -0.08   0.09   0.01
  24  17     0.00   0.00  -0.00    -0.00  -0.00   0.00    -0.00   0.00  -0.00
  25   1    -0.01   0.01  -0.01     0.01  -0.01   0.01    -0.01   0.01  -0.01
  26   1    -0.00  -0.00  -0.00     0.00   0.00   0.00    -0.00   0.01  -0.01
  27   1    -0.00  -0.01   0.00     0.00   0.01  -0.00    -0.00   0.00   0.00
  28   1    -0.01   0.00  -0.00     0.00  -0.00   0.00     0.00  -0.00  -0.01
  29   1    -0.00  -0.01  -0.00    -0.00   0.01   0.00     0.01  -0.01  -0.02
  30   1    -0.00  -0.00  -0.00    -0.00  -0.00   0.00     0.03   0.01   0.03
  31   1    -0.00  -0.00  -0.00     0.00  -0.00   0.00    -0.01   0.01  -0.02
  32   1     0.00  -0.00  -0.00     0.00  -0.00  -0.01    -0.02  -0.01   0.14
  33   1     0.00  -0.00  -0.02     0.00  -0.00  -0.05    -0.10   0.02   0.46
  34   1    -0.02   0.03   0.34     0.00   0.00  -0.01    -0.07  -0.06   0.02
  35   1    -0.02   0.03   0.32    -0.00  -0.00  -0.02     0.07  -0.06   0.07
  36   1    -0.02   0.06   0.55    -0.01   0.01   0.14     0.07  -0.04  -0.00
  37   1    -0.01   0.05   0.52    -0.00   0.01   0.10    -0.02  -0.05  -0.00
  38   1     0.01  -0.01  -0.11    -0.02   0.07   0.76    -0.01   0.03   0.04
  39   1    -0.01   0.00  -0.04    -0.01   0.03   0.31    -0.06   0.01   0.01
  40   1     0.01   0.02   0.05     0.00  -0.03  -0.27     0.09   0.10  -0.02
                     52                     53                     54
                        a                      a                      a 
 Frequencies --   835.0444               844.5497               854.4693
 Red. masses --     6.3861                 4.1879                 4.1813
 Frc consts  --     0.0000                 0.0000                 0.0000
 IR Inten    --    23.2220                43.4640                 0.1039
 Raman Activ --     0.0000                 0.0000                 0.0000
 Depolar     --     0.0000                 0.0000                 0.0000
 Atom AN      X      Y      Z        X      Y      Z        X      Y      Z
   1   7     0.01  -0.01   0.01    -0.12   0.06  -0.09     0.00  -0.01   0.01
   2   6     0.04   0.03   0.01    -0.18  -0.15  -0.02    -0.00   0.01   0.00
   3   6     0.00   0.03  -0.03     0.13  -0.21   0.21    -0.01   0.02  -0.02
   4   6    -0.03  -0.06  -0.02     0.13   0.09  -0.11     0.00   0.02   0.01
   5   6    -0.06  -0.05   0.03    -0.01   0.08   0.00     0.03   0.01  -0.00
   6   6    -0.04   0.06   0.34    -0.08   0.05   0.07     0.02  -0.03  -0.03
   7   6     0.16  -0.05  -0.06    -0.00   0.02  -0.02    -0.09   0.03  -0.01
   8   6     0.17  -0.10   0.04     0.01  -0.01   0.00    -0.08   0.02   0.02
   9   6     0.03  -0.01   0.01     0.01  -0.01   0.00     0.04  -0.05  -0.33
  10   6    -0.02   0.01   0.04     0.01   0.01   0.02     0.02   0.05   0.33
  11   6    -0.21  -0.10  -0.01    -0.04  -0.01  -0.01    -0.02   0.01  -0.03
  12   6    -0.19  -0.07   0.00    -0.04  -0.02   0.00    -0.04  -0.02   0.01
  13   6     0.01   0.02  -0.01     0.00   0.00  -0.01    -0.01  -0.01  -0.05
  14   6     0.05  -0.03   0.01     0.01  -0.01  -0.00    -0.00   0.01   0.06
  15   6     0.08  -0.07   0.01     0.02  -0.02   0.01     0.07  -0.03  -0.00
  16   6     0.04   0.02  -0.00     0.02   0.00  -0.00     0.06  -0.01   0.00
  17   6    -0.05   0.04   0.01    -0.01   0.01   0.01    -0.02   0.02   0.00
  18   6    -0.04  -0.05   0.01    -0.01  -0.01   0.00    -0.03  -0.03   0.00
  19   6     0.16   0.03  -0.00     0.04   0.01  -0.00     0.05   0.00   0.00
  20  16    -0.08  -0.04  -0.00    -0.02  -0.01  -0.00    -0.04   0.00  -0.00
  21  16     0.04   0.10  -0.01     0.01   0.02  -0.00    -0.01   0.04  -0.01
  22  16     0.01   0.14  -0.02     0.01   0.02  -0.00     0.03  -0.02   0.00
  23  16    -0.03   0.07  -0.04    -0.06  -0.09   0.00     0.02  -0.02   0.01
  24  17     0.00   0.00   0.00    -0.01   0.00  -0.00     0.00  -0.00  -0.00
  25   1    -0.03   0.02  -0.03     0.20  -0.12   0.14    -0.00  -0.00   0.00
  26   1    -0.02   0.00  -0.01     0.14  -0.03   0.09    -0.00  -0.00   0.00
  27   1    -0.01  -0.07   0.04     0.04   0.38  -0.26    -0.00  -0.01   0.01
  28   1    -0.08   0.04   0.01     0.32  -0.18  -0.03    -0.00   0.00   0.00
  29   1     0.00  -0.08  -0.02     0.01   0.37   0.03    -0.00  -0.00   0.01
  30   1    -0.01  -0.02  -0.04     0.10   0.10   0.23    -0.01  -0.01  -0.02
  31   1    -0.02  -0.01   0.04     0.05   0.06  -0.17     0.00  -0.01   0.01
  32   1     0.01  -0.04  -0.20    -0.05   0.06  -0.03     0.00   0.01   0.02
  33   1     0.01  -0.07  -0.70    -0.03  -0.01  -0.14     0.02   0.01   0.06
  34   1    -0.04  -0.04  -0.02    -0.00  -0.01  -0.01    -0.01   0.05   0.59
  35   1     0.05  -0.04  -0.07     0.01  -0.01  -0.04     0.03  -0.04  -0.58
  36   1     0.05  -0.02   0.02     0.01  -0.00   0.03     0.01  -0.00   0.08
  37   1    -0.02  -0.03   0.00    -0.01  -0.01   0.01    -0.02  -0.02  -0.11
  38   1    -0.01   0.01  -0.04    -0.00  -0.00  -0.03    -0.01  -0.00  -0.01
  39   1    -0.04   0.01  -0.01    -0.01   0.00  -0.00    -0.01  -0.00  -0.01
  40   1     0.06   0.06  -0.00     0.01   0.02   0.01     0.02   0.02  -0.00
                     55                     56                     57
                        a                      a                      a 
 Frequencies --   855.2821               858.0865               871.1894
 Red. masses --    12.9279                 3.7052                 3.4436
 Frc consts  --     0.0000                 0.0000                 0.0000
 IR Inten    --     1.1487                 0.0684                 1.0561
 Raman Activ --     0.0000                 0.0000                 0.0000
 Depolar     --     0.0000                 0.0000                 0.0000
 Atom AN      X      Y      Z        X      Y      Z        X      Y      Z
   1   7    -0.00   0.03  -0.04     0.00  -0.00   0.00     0.00  -0.00  -0.00
   2   6     0.03  -0.03  -0.01    -0.00   0.00   0.00     0.00   0.00  -0.00
   3   6     0.03  -0.06   0.07    -0.00   0.00  -0.00    -0.00   0.00  -0.00
   4   6    -0.03  -0.06  -0.01     0.00   0.00   0.00    -0.00  -0.00   0.00
   5   6    -0.12  -0.04  -0.01     0.00   0.00   0.00    -0.00  -0.00  -0.00
   6   6    -0.07   0.10   0.00     0.00  -0.00  -0.00    -0.00   0.00  -0.00
   7   6     0.35  -0.11   0.03    -0.01   0.00   0.00     0.01  -0.00   0.00
   8   6     0.34  -0.09   0.03    -0.01   0.00  -0.00     0.01  -0.00  -0.00
   9   6    -0.09   0.09  -0.09     0.00   0.00   0.05    -0.00   0.00   0.00
  10   6    -0.13  -0.09   0.08     0.01  -0.00  -0.06    -0.00  -0.00   0.00
  11   6     0.07  -0.05   0.00    -0.00   0.00  -0.00     0.01   0.00   0.00
  12   6     0.14   0.11  -0.00    -0.01  -0.00   0.02     0.01   0.00   0.00
  13   6     0.09   0.05  -0.02     0.01  -0.03  -0.33    -0.00  -0.00  -0.01
  14   6     0.02  -0.04   0.03    -0.01   0.03   0.35    -0.00   0.00   0.01
  15   6    -0.34   0.13  -0.03     0.00  -0.00  -0.03     0.00  -0.00  -0.00
  16   6    -0.31   0.05  -0.01     0.00   0.00   0.01     0.00  -0.00   0.00
  17   6     0.11  -0.12   0.02    -0.00   0.00   0.01    -0.01   0.02   0.20
  18   6     0.15   0.13  -0.01    -0.00   0.00   0.01     0.01  -0.04  -0.41
  19   6    -0.24  -0.00  -0.01     0.00  -0.00  -0.00     0.00   0.01   0.08
  20  16     0.19  -0.03   0.01    -0.00   0.00  -0.00    -0.00   0.00   0.02
  21  16     0.06  -0.16   0.02     0.00   0.00  -0.00    -0.00  -0.00   0.00
  22  16    -0.13   0.09  -0.01     0.00  -0.00   0.00    -0.00  -0.00  -0.00
  23  16    -0.10   0.10  -0.02     0.00  -0.00   0.00    -0.00   0.00   0.00
  24  17    -0.00   0.00   0.00     0.00  -0.00   0.00    -0.00  -0.00   0.00
  25   1    -0.00   0.01  -0.02    -0.00  -0.00   0.00    -0.00  -0.00   0.00
  26   1    -0.01   0.01  -0.01    -0.00  -0.00   0.00    -0.00   0.00  -0.00
  27   1    -0.00   0.00  -0.01    -0.00  -0.00   0.00    -0.00  -0.00   0.00
  28   1    -0.00   0.00  -0.01    -0.00   0.00   0.00    -0.00   0.00   0.00
  29   1     0.01  -0.02  -0.03    -0.00  -0.00   0.00    -0.00  -0.00  -0.00
  30   1     0.04   0.02   0.06    -0.00  -0.00  -0.00    -0.00  -0.00  -0.00
  31   1    -0.02   0.02  -0.02     0.00  -0.00   0.00    -0.00  -0.00   0.00
  32   1    -0.01  -0.03   0.00     0.00   0.00  -0.00     0.00  -0.00   0.00
  33   1    -0.11  -0.04  -0.02     0.00   0.00   0.00    -0.00   0.00   0.01
  34   1    -0.10  -0.01   0.13     0.01  -0.01  -0.09    -0.00  -0.00  -0.00
  35   1    -0.02  -0.04  -0.13    -0.00   0.01   0.11    -0.00  -0.00  -0.01
  36   1    -0.04   0.06   0.02    -0.02   0.06   0.58    -0.00   0.00   0.01
  37   1     0.09   0.04  -0.04     0.02  -0.06  -0.62    -0.00  -0.00  -0.01
  38   1     0.07  -0.00  -0.00     0.00  -0.00  -0.02     0.01  -0.03  -0.33
  39   1     0.06   0.02  -0.00     0.00  -0.00  -0.03    -0.02   0.08   0.80
  40   1    -0.10  -0.11   0.01     0.00   0.00   0.01     0.00  -0.01  -0.15
                     58                     59                     60
                        a                      a                      a 
 Frequencies --   873.6915               886.2150               909.1623
 Red. masses --    13.0165                 6.7468                 3.6629
 Frc consts  --     0.0000                 0.0000                 0.0000
 IR Inten    --    13.0155                 3.9739                28.1687
 Raman Activ --     0.0000                 0.0000                 0.0000
 Depolar     --     0.0000                 0.0000                 0.0000
 Atom AN      X      Y      Z        X      Y      Z        X      Y      Z
   1   7     0.00   0.06  -0.05    -0.04  -0.29   0.20     0.02  -0.00  -0.17
   2   6     0.05  -0.05   0.00    -0.18   0.20  -0.04     0.08  -0.10  -0.05
   3   6     0.00  -0.08   0.09     0.10   0.31  -0.28    -0.07   0.10   0.14
   4   6    -0.03  -0.04  -0.01     0.07  -0.04   0.02    -0.06  -0.01   0.04
   5   6    -0.07  -0.00  -0.01    -0.06  -0.17   0.01     0.03  -0.04  -0.35
   6   6    -0.04   0.06   0.00    -0.01   0.02  -0.02     0.03  -0.01   0.14
   7   6     0.23  -0.08   0.02     0.11  -0.01   0.01    -0.01  -0.00   0.01
   8   6     0.19   0.01   0.01     0.12  -0.03   0.01    -0.02   0.00  -0.01
   9   6    -0.15   0.12  -0.03    -0.04   0.04  -0.00     0.00  -0.01   0.00
  10   6    -0.12  -0.13   0.01    -0.05  -0.04   0.00     0.00   0.00   0.00
  11   6     0.36   0.07   0.01     0.06  -0.00   0.00    -0.00   0.00  -0.00
  12   6     0.35   0.05   0.01     0.07   0.02   0.00    -0.01  -0.00   0.00
  13   6    -0.16  -0.15   0.00    -0.02  -0.02  -0.00     0.00   0.00  -0.00
  14   6    -0.16   0.15  -0.01    -0.03   0.02  -0.01     0.00  -0.00   0.00
  15   6     0.30  -0.03   0.01     0.03   0.00   0.00    -0.00  -0.00   0.00
  16   6     0.33  -0.07   0.02     0.04  -0.01   0.00    -0.00   0.00  -0.00
  17   6    -0.08   0.10  -0.02    -0.01   0.01  -0.00     0.00  -0.00   0.00
  18   6    -0.13  -0.11   0.01    -0.01  -0.01   0.00     0.00   0.00   0.00
  19   6     0.14  -0.03   0.01     0.01  -0.00  -0.00    -0.00   0.00  -0.00
  20  16    -0.14   0.06  -0.01    -0.01   0.01  -0.00     0.00  -0.00   0.00
  21  16    -0.19  -0.01  -0.01    -0.03  -0.01   0.00     0.00   0.00  -0.00
  22  16    -0.16  -0.05  -0.00    -0.05   0.02  -0.00     0.01  -0.00   0.00
  23  16    -0.05   0.06  -0.01    -0.05   0.04  -0.01     0.01   0.02   0.02
  24  17     0.00  -0.00   0.00    -0.01   0.00  -0.01    -0.00  -0.00  -0.01
  25   1    -0.02   0.03  -0.04     0.14  -0.20   0.25     0.00  -0.09   0.17
  26   1    -0.02   0.02  -0.03     0.11  -0.02   0.12    -0.05   0.24  -0.11
  27   1    -0.01  -0.03   0.01     0.03   0.20  -0.08    -0.02   0.07   0.06
  28   1    -0.01   0.01  -0.03     0.05  -0.06   0.17     0.01  -0.05   0.07
  29   1     0.01  -0.04  -0.02    -0.03   0.19  -0.00     0.02  -0.02  -0.03
  30   1     0.04   0.03   0.08    -0.08  -0.17  -0.36    -0.08  -0.01   0.01
  31   1    -0.03   0.03  -0.04     0.10  -0.13   0.22    -0.01  -0.01   0.10
  32   1    -0.00  -0.01   0.01    -0.00  -0.06   0.01    -0.02   0.05   0.77
  33   1    -0.08  -0.03  -0.02     0.02   0.02   0.03     0.03  -0.02  -0.18
  34   1    -0.05   0.03   0.01    -0.03  -0.01  -0.01     0.00   0.00  -0.00
  35   1    -0.10   0.01  -0.02    -0.02  -0.01  -0.01     0.00   0.00  -0.00
  36   1    -0.10   0.00   0.00    -0.02   0.01   0.01     0.00  -0.00   0.00
  37   1    -0.08   0.01  -0.02    -0.01   0.01   0.01     0.00  -0.00   0.00
  38   1    -0.08  -0.01   0.01    -0.01  -0.00  -0.00     0.00  -0.00  -0.00
  39   1    -0.03  -0.03  -0.01    -0.00  -0.00  -0.01     0.00  -0.00  -0.00
  40   1     0.06   0.07  -0.01     0.00   0.01   0.01    -0.00  -0.00   0.01
                     61                     62                     63
                        a                      a                      a 
 Frequencies --   913.9041              1016.4523              1039.3610
 Red. masses --     4.9309                 7.0163                 6.5102
 Frc consts  --     0.0000                 0.0000                 0.0000
 IR Inten    --    14.9852                10.7530                38.1541
 Raman Activ --     0.0000                 0.0000                 0.0000
 Depolar     --     0.0000                 0.0000                 0.0000
 Atom AN      X      Y      Z        X      Y      Z        X      Y      Z
   1   7    -0.01   0.02  -0.31     0.03   0.25  -0.15    -0.27   0.25  -0.01
[...]
  27   1     0.00  -0.00  -0.01    -0.00   0.01   0.02    -0.04   0.02  -0.00
  28   1     0.00  -0.00  -0.00    -0.01   0.00   0.00     0.05   0.10   0.05
  29   1    -0.00  -0.00  -0.01     0.00   0.01   0.02     0.01  -0.01  -0.00
  30   1    -0.02   0.00   0.00     0.06  -0.01  -0.01    -0.00   0.02  -0.02
  31   1     0.01  -0.01  -0.00    -0.03   0.02   0.00     0.01   0.01   0.01
  32   1     0.04   0.00   0.00    -0.13  -0.00  -0.01     0.02   0.03  -0.00
  33   1     0.03   0.01   0.00    -0.11  -0.01  -0.01     0.00  -0.00   0.00
  34   1     0.04   0.01   0.00     0.04  -0.00   0.00     0.00  -0.00  -0.00
  35   1     0.04   0.00   0.00     0.04  -0.01   0.00     0.00   0.00  -0.00
  36   1    -0.08   0.01  -0.00    -0.02  -0.00  -0.00    -0.00  -0.00   0.00
  37   1    -0.08  -0.00  -0.00    -0.02  -0.00  -0.00     0.00  -0.00   0.00
  38   1     0.10   0.00   0.00     0.01  -0.00   0.00    -0.00   0.00  -0.00
  39   1     0.10  -0.01   0.00     0.01  -0.00   0.00     0.00   0.00  -0.00
  40   1     0.05   0.00   0.00     0.01  -0.00   0.00    -0.00  -0.00  -0.00
                    100                    101                    102
                        a                      a                      a 
 Frequencies --  2940.7083              2947.2902              2967.8692
 Red. masses --     1.9450                 1.9342                 1.5480
 Frc consts  --     0.0000                 0.0000                 0.0000
 IR Inten    --     7.3347                 3.6734                12.7037
 Raman Activ --     0.0000                 0.0000                 0.0000
 Depolar     --     0.0000                 0.0000                 0.0000
 Atom AN      X      Y      Z        X      Y      Z        X      Y      Z
   1   7     0.00   0.02   0.01    -0.01  -0.02  -0.01     0.00   0.00   0.00
   2   6     0.15   0.10   0.06    -0.20  -0.08  -0.05    -0.09   0.04  -0.00
   3   6    -0.04  -0.22   0.04    -0.01  -0.17   0.08    -0.10  -0.04  -0.16
   4   6    -0.00  -0.01   0.00     0.00  -0.01   0.00    -0.01   0.00  -0.00
   5   6     0.00   0.00   0.00     0.00   0.00   0.00     0.00   0.00   0.00
   6   6    -0.00  -0.00  -0.00    -0.00   0.00  -0.00     0.00  -0.00   0.00
   7   6    -0.00  -0.00   0.00    -0.00  -0.00   0.00     0.00  -0.00  -0.00
   8   6     0.00   0.00   0.00     0.00   0.00   0.00    -0.00  -0.00   0.00
   9   6    -0.00  -0.00   0.00    -0.00   0.00  -0.00    -0.00   0.00  -0.00
  10   6     0.00  -0.00  -0.00    -0.00  -0.00  -0.00     0.00   0.00   0.00
  11   6     0.00   0.00   0.00    -0.00   0.00   0.00     0.00  -0.00   0.00
  12   6    -0.00  -0.00  -0.00    -0.00  -0.00   0.00    -0.00   0.00  -0.00
  13   6    -0.00  -0.00   0.00     0.00   0.00   0.00    -0.00  -0.00  -0.00
  14   6     0.00  -0.00   0.00    -0.00   0.00   0.00    -0.00   0.00  -0.00
  15   6     0.00  -0.00  -0.00    -0.00  -0.00   0.00     0.00   0.00  -0.00
  16   6     0.00   0.00   0.00     0.00   0.00   0.00    -0.00  -0.00   0.00
  17   6     0.00  -0.00   0.00    -0.00   0.00  -0.00    -0.00   0.00  -0.00
  18   6     0.00  -0.00   0.00     0.00   0.00  -0.00     0.00   0.00   0.00
  19   6    -0.00   0.00   0.00    -0.00   0.00   0.00    -0.00   0.00   0.00
  20  16    -0.00  -0.00   0.00    -0.00   0.00   0.00    -0.00   0.00  -0.00
  21  16    -0.00  -0.00   0.00     0.00   0.00  -0.00     0.00   0.00   0.00
  22  16    -0.00  -0.00  -0.00    -0.00  -0.00   0.00     0.00  -0.00  -0.00
  23  16     0.00   0.00  -0.00     0.00   0.00  -0.00     0.00   0.00   0.00
  24  17    -0.00  -0.00  -0.00    -0.00   0.00   0.00    -0.00  -0.00  -0.00
  25   1    -0.01  -0.04  -0.02     0.02   0.07   0.03    -0.00  -0.01  -0.01
  26   1     0.00   0.00  -0.00    -0.00   0.00   0.01     0.00   0.00  -0.00
  27   1     0.01   0.00   0.00    -0.01  -0.00  -0.00    -0.01   0.00  -0.00
  28   1    -0.18  -0.43  -0.17     0.14   0.36   0.14    -0.07  -0.12  -0.05
  29   1    -0.35   0.06  -0.03     0.58  -0.08   0.06     0.39  -0.04   0.05
  30   1    -0.08   0.41  -0.34    -0.08   0.47  -0.38     0.05  -0.41   0.31
  31   1     0.23   0.38   0.22     0.09   0.13   0.09     0.32   0.57   0.28
  32   1    -0.00  -0.01   0.00    -0.01  -0.01   0.00    -0.01  -0.01   0.00
  33   1    -0.00   0.00   0.00    -0.00   0.00   0.00    -0.00   0.00  -0.00
  34   1     0.00   0.00  -0.00     0.00  -0.00  -0.00     0.00  -0.00   0.00
  35   1     0.00   0.00  -0.00     0.00   0.00  -0.00    -0.00  -0.00  -0.00
  36   1    -0.00   0.00   0.00    -0.00  -0.00   0.00     0.00   0.00   0.00
  37   1    -0.00   0.00   0.00     0.00  -0.00   0.00     0.00  -0.00   0.00
  38   1    -0.00   0.00  -0.00     0.00  -0.00  -0.00     0.00  -0.00  -0.00
  39   1     0.00  -0.00  -0.00    -0.00  -0.00  -0.00    -0.00  -0.00  -0.00
  40   1     0.00  -0.00  -0.00     0.00   0.00   0.00     0.00   0.00  -0.00
                    103                    104                    105
                        a                      a                      a 
 Frequencies --  2971.7230              3064.1769              3075.0974
 Red. masses --     1.5543                 1.8946                 1.8247
 Frc consts  --     0.0000                 0.0000                 0.0000
 IR Inten    --     9.0478               309.7269                27.0951
 Raman Activ --     0.0000                 0.0000                 0.0000
 Depolar     --     0.0000                 0.0000                 0.0000
 Atom AN      X      Y      Z        X      Y      Z        X      Y      Z
   1   7     0.01   0.03   0.01     0.00   0.01   0.00    -0.00   0.00   0.00
   2   6    -0.07   0.18   0.05    -0.00   0.00   0.00     0.00   0.00   0.00
   3   6     0.05   0.07   0.06     0.00   0.00   0.00     0.00   0.00   0.00
   4   6     0.00   0.00   0.00     0.01  -0.00   0.00     0.00   0.00  -0.00
   5   6    -0.00  -0.00   0.00     0.16   0.24  -0.01     0.00   0.00  -0.00
   6   6     0.00   0.00  -0.00     0.01  -0.02   0.00     0.00  -0.00   0.00
   7   6    -0.00   0.00  -0.00    -0.00  -0.00   0.00    -0.00   0.00  -0.00
   8   6    -0.00  -0.00  -0.00     0.00  -0.00   0.00     0.00  -0.00   0.00
   9   6    -0.00   0.00   0.00    -0.00   0.00  -0.00     0.00  -0.00   0.00
  10   6    -0.00   0.00  -0.00    -0.00  -0.00   0.00     0.00   0.00  -0.00
  11   6    -0.00  -0.00   0.00    -0.00  -0.00  -0.00     0.00  -0.00   0.00
  12   6     0.00   0.00  -0.00     0.00   0.00   0.00     0.00   0.00  -0.00
  13   6    -0.00  -0.00   0.00     0.00   0.00  -0.00     0.00   0.00  -0.00
  14   6    -0.00   0.00  -0.00    -0.00   0.00  -0.00     0.00  -0.00   0.00
  15   6    -0.00   0.00   0.00    -0.00   0.00  -0.00     0.00   0.00  -0.00
  16   6    -0.00  -0.00  -0.00     0.00  -0.00  -0.00     0.00  -0.00   0.00
  17   6     0.00  -0.00   0.00    -0.00   0.00  -0.00     0.03  -0.06   0.01
  18   6    -0.00  -0.00   0.00    -0.00  -0.00   0.00     0.14   0.22  -0.02
  19   6     0.00  -0.00   0.00    -0.00  -0.00   0.00    -0.02   0.00  -0.00
  20  16     0.00  -0.00  -0.00     0.00   0.00   0.00    -0.00  -0.00   0.00
  21  16    -0.00  -0.00   0.00     0.00  -0.00  -0.00    -0.00   0.00  -0.00
  22  16     0.00   0.00  -0.00     0.00   0.00   0.00    -0.00  -0.00  -0.00
  23  16    -0.00   0.00   0.00    -0.00  -0.00   0.00    -0.00  -0.00   0.00
  24  17     0.00  -0.00  -0.00    -0.00   0.00   0.00     0.00   0.00   0.00
  25   1    -0.02  -0.07  -0.03    -0.01  -0.04  -0.01    -0.00  -0.00  -0.00
  26   1     0.00   0.00  -0.00    -0.00  -0.00   0.00     0.00  -0.00  -0.00
  27   1    -0.02   0.00  -0.01    -0.01   0.00   0.00     0.00   0.00   0.00
  28   1    -0.28  -0.59  -0.24    -0.00  -0.00  -0.00    -0.00  -0.00  -0.00
  29   1     0.54  -0.04   0.07     0.00  -0.00  -0.00    -0.00   0.00  -0.00
  30   1    -0.00   0.07  -0.04     0.00  -0.00   0.00     0.00  -0.00   0.00
  31   1    -0.18  -0.31  -0.16    -0.01  -0.01  -0.01    -0.00  -0.00  -0.00
  32   1     0.01   0.01  -0.00    -0.53  -0.79   0.04    -0.00  -0.00   0.00
  33   1     0.00  -0.00   0.00    -0.06   0.09  -0.01    -0.00   0.00  -0.00
  34   1     0.00  -0.00   0.00     0.00  -0.00   0.00    -0.00   0.00  -0.00
  35   1    -0.00  -0.00   0.00     0.00   0.00  -0.00    -0.00  -0.00   0.00
  36   1     0.00   0.00  -0.00    -0.00  -0.00   0.00    -0.00  -0.01   0.00
  37   1     0.00  -0.00  -0.00     0.00  -0.00   0.00    -0.00   0.00  -0.00
  38   1    -0.00   0.00   0.00     0.00  -0.00   0.00    -0.14   0.21  -0.02
  39   1     0.00   0.00   0.00     0.00   0.00  -0.00    -0.51  -0.77   0.06
  40   1    -0.00   0.00  -0.00    -0.00   0.00   0.00     0.09  -0.02   0.00
                    106                    107                    108
                        a                      a                      a 
 Frequencies --  3088.7479              3089.0040              3093.4955
 Red. masses --     1.8056                 1.8066                 1.8740
 Frc consts  --     0.0000                 0.0000                 0.0000
 IR Inten    --     9.6745                23.8221                11.0577
 Raman Activ --     0.0000                 0.0000                 0.0000
 Depolar     --     0.0000                 0.0000                 0.0000
 Atom AN      X      Y      Z        X      Y      Z        X      Y      Z
   1   7     0.00  -0.00  -0.00     0.00   0.00   0.00     0.00   0.00   0.00
   2   6     0.00  -0.00  -0.00    -0.00  -0.00  -0.00     0.00   0.00   0.00
   3   6    -0.00  -0.00   0.00    -0.00  -0.00   0.00     0.00   0.00   0.00
   4   6     0.00  -0.00   0.00     0.00   0.00  -0.00    -0.00   0.00  -0.00
   5   6     0.00   0.00  -0.00     0.00   0.00  -0.00    -0.00  -0.00   0.00
   6   6    -0.00   0.01  -0.00    -0.01   0.01  -0.00     0.00  -0.00   0.00
   7   6    -0.00  -0.00  -0.00    -0.00  -0.00   0.00     0.00   0.00  -0.00
   8   6     0.00   0.00   0.00     0.01   0.00   0.00     0.00  -0.00   0.00
   9   6     0.02  -0.03   0.00     0.11  -0.18   0.02     0.00  -0.00   0.00
  10   6     0.02   0.03  -0.00     0.09   0.13  -0.01     0.00   0.00  -0.00
  11   6     0.00  -0.00   0.00     0.01  -0.00   0.00    -0.00  -0.00   0.00
  12   6    -0.01   0.00  -0.00     0.00   0.00   0.00    -0.00   0.00  -0.00
  13   6    -0.10  -0.15   0.01     0.01   0.02  -0.00    -0.02  -0.03   0.00
  14   6    -0.10   0.16  -0.02     0.02  -0.04   0.00     0.00   0.00  -0.00
  15   6    -0.01  -0.00  -0.00     0.00   0.00   0.00    -0.00   0.00  -0.00
  16   6     0.00   0.00  -0.00     0.00  -0.00   0.00    -0.01  -0.00   0.00
  17   6     0.01  -0.02   0.00    -0.00   0.00  -0.00    -0.14   0.22  -0.03
  18   6    -0.00  -0.00   0.00    -0.00  -0.00   0.00     0.04   0.06  -0.01
  19   6     0.00  -0.00   0.00     0.00  -0.00   0.00    -0.01   0.00  -0.00
  20  16     0.00   0.00   0.00    -0.00   0.00  -0.00     0.00  -0.00   0.00
  21  16     0.00  -0.00   0.00    -0.00  -0.00  -0.00     0.00   0.00   0.00
  22  16     0.00   0.00   0.00    -0.00   0.00  -0.00     0.00   0.00  -0.00
  23  16    -0.00  -0.00  -0.00    -0.00   0.00  -0.00    -0.00   0.00   0.00
  24  17    -0.00  -0.00  -0.00     0.00   0.00  -0.00     0.00  -0.00   0.00
  25   1     0.00   0.00   0.00    -0.00  -0.00  -0.00    -0.00  -0.00  -0.00
  26   1    -0.00   0.00   0.00    -0.00  -0.00   0.00     0.00  -0.00  -0.00
  27   1    -0.00   0.00  -0.00     0.00  -0.00   0.00    -0.00   0.00   0.00
  28   1     0.00   0.00   0.00    -0.00   0.00   0.00    -0.00  -0.00  -0.00
  29   1    -0.00   0.00  -0.00     0.00  -0.00   0.00    -0.00   0.00  -0.00
  30   1    -0.00   0.00  -0.00    -0.00   0.00  -0.00    -0.00   0.00  -0.00
  31   1     0.00   0.00   0.00     0.00   0.00   0.00    -0.00  -0.00  -0.00
  32   1    -0.00  -0.00   0.00    -0.01  -0.01   0.00     0.00   0.00  -0.00
  33   1     0.01  -0.02   0.00     0.03  -0.04   0.01    -0.01   0.01  -0.00
  34   1    -0.07   0.10  -0.01    -0.40   0.63  -0.07    -0.00   0.01  -0.00
  35   1    -0.08  -0.11   0.01    -0.32  -0.48   0.02    -0.01  -0.01   0.00
  36   1     0.36   0.53  -0.04    -0.05  -0.08   0.01     0.07   0.10  -0.01
  37   1     0.37  -0.58   0.07    -0.08   0.13  -0.02     0.00  -0.00   0.00
  38   1    -0.05   0.07  -0.01     0.00  -0.00   0.00     0.49  -0.77   0.09
  39   1     0.01   0.01  -0.00     0.00   0.01  -0.00    -0.14  -0.20   0.02
  40   1    -0.00   0.00  -0.00    -0.00   0.00  -0.00     0.06  -0.01   0.00
                    109                    110                    111
                        a                      a                      a 
 Frequencies --  3095.7511              3098.2769              3099.3690
 Red. masses --     1.8683                 1.9016                 1.8974
 Frc consts  --     0.0000                 0.0000                 0.0000
 IR Inten    --    22.2974                 2.3037                19.3985
 Raman Activ --     0.0000                 0.0000                 0.0000
 Depolar     --     0.0000                 0.0000                 0.0000
 Atom AN      X      Y      Z        X      Y      Z        X      Y      Z
   1   7    -0.00  -0.00   0.00     0.00  -0.00  -0.00     0.00  -0.00  -0.00
   2   6     0.00  -0.00   0.00     0.00   0.00   0.00    -0.00   0.00   0.00
   3   6     0.00  -0.00   0.00    -0.00   0.00  -0.00     0.00   0.00  -0.00
   4   6    -0.00   0.00  -0.00    -0.00   0.00  -0.00    -0.00   0.00  -0.00
   5   6    -0.02  -0.03   0.00    -0.00  -0.00   0.00    -0.00  -0.00   0.00
   6   6     0.15  -0.23   0.03     0.01  -0.02   0.00     0.02  -0.03   0.00
   7   6     0.01   0.00   0.00     0.00  -0.00   0.00     0.00  -0.00   0.00
   8   6    -0.00  -0.00   0.00     0.00   0.00   0.00     0.01   0.00   0.00
   9   6    -0.01   0.01  -0.00     0.04  -0.07   0.01     0.08  -0.13   0.01
  10   6     0.02   0.03  -0.00    -0.05  -0.07   0.00    -0.11  -0.17   0.01
  11   6     0.00  -0.00   0.00    -0.00   0.00  -0.00    -0.01   0.00  -0.00
  12   6    -0.00   0.00  -0.00     0.01  -0.00   0.00    -0.00   0.00  -0.00
  13   6    -0.00  -0.00   0.00     0.10   0.15  -0.01    -0.05  -0.08   0.01
  14   6     0.00  -0.00   0.00    -0.10   0.15  -0.02     0.04  -0.06   0.01
  15   6     0.00   0.00  -0.00    -0.01  -0.00   0.00     0.00   0.00  -0.00
  16   6     0.00   0.00   0.00    -0.00   0.00  -0.00     0.00  -0.00   0.00
  17   6     0.00  -0.00   0.00    -0.01   0.02  -0.00     0.01  -0.01   0.00
  18   6    -0.00  -0.00   0.00     0.00   0.00  -0.00    -0.00  -0.00   0.00
  19   6     0.00  -0.00   0.00    -0.00   0.00  -0.00     0.00   0.00  -0.00
  20  16    -0.00   0.00  -0.00     0.00  -0.00   0.00    -0.00   0.00  -0.00
  21  16    -0.00   0.00   0.00     0.00  -0.00   0.00     0.00   0.00  -0.00
  22  16    -0.00  -0.00  -0.00    -0.00   0.00  -0.00     0.00   0.00  -0.00
  23  16    -0.00   0.00  -0.00    -0.00   0.00  -0.00    -0.00   0.00  -0.00
  24  17     0.00   0.00  -0.00     0.00  -0.00  -0.00    -0.00   0.00   0.00
  25   1     0.00   0.00   0.00     0.00   0.00   0.00     0.00   0.00  -0.00
  26   1     0.00  -0.00  -0.00    -0.00   0.00   0.00    -0.00   0.00   0.00
  27   1    -0.00  -0.00   0.00    -0.00  -0.00  -0.00    -0.00  -0.00  -0.00
  28   1    -0.00   0.00   0.00    -0.00  -0.00  -0.00    -0.00  -0.00  -0.00
  29   1    -0.00   0.00  -0.00    -0.00  -0.00   0.00     0.00  -0.00   0.00
  30   1    -0.00   0.00  -0.00     0.00  -0.00   0.00     0.00  -0.00   0.00
  31   1    -0.00  -0.00  -0.00     0.00   0.00   0.00     0.00   0.00   0.00
  32   1     0.06   0.08  -0.00     0.01   0.01  -0.00     0.01   0.01  -0.00
  33   1    -0.51   0.79  -0.10    -0.04   0.06  -0.01    -0.06   0.09  -0.01
  34   1     0.02  -0.03   0.00    -0.15   0.23  -0.03    -0.28   0.43  -0.05
  35   1    -0.07  -0.11   0.01     0.17   0.25  -0.01     0.38   0.57  -0.03
  36   1     0.01   0.02  -0.00    -0.34  -0.51   0.04     0.18   0.27  -0.02
  37   1    -0.01   0.01  -0.00     0.32  -0.50   0.06    -0.14   0.22  -0.03
  38   1    -0.01   0.02  -0.00     0.04  -0.06   0.01    -0.02   0.03  -0.00
  39   1     0.00   0.00  -0.00    -0.01  -0.01   0.00     0.00   0.01  -0.00
  40   1    -0.00   0.00  -0.00     0.01  -0.00   0.00    -0.00   0.00  -0.00
                    112                    113                    114
                        a                      a                      a 
 Frequencies --  3135.2600              3192.2986              3203.6529
 Red. masses --     1.8864                 2.0026                 1.5256
 Frc consts  --     0.0000                 0.0000                 0.0000
 IR Inten    --     5.3934                63.3455                30.8028
 Raman Activ --     0.0000                 0.0000                 0.0000
 Depolar     --     0.0000                 0.0000                 0.0000
 Atom AN      X      Y      Z        X      Y      Z        X      Y      Z
   1   7    -0.00   0.00   0.00    -0.23   0.03   0.16    -0.15   0.00  -0.14
   2   6    -0.00  -0.00  -0.00    -0.01   0.00   0.00    -0.01   0.01  -0.01
   3   6    -0.00  -0.00   0.00     0.00  -0.00   0.00    -0.00   0.00  -0.00
   4   6     0.00   0.00  -0.00     0.00  -0.00  -0.00     0.00  -0.00  -0.00
   5   6     0.00   0.00  -0.00     0.00   0.00  -0.00     0.00   0.00  -0.00
   6   6    -0.00   0.00  -0.00    -0.00   0.00  -0.00    -0.00  -0.00  -0.00
   7   6     0.00   0.00   0.00    -0.00   0.00  -0.00    -0.00   0.00  -0.00
   8   6     0.00   0.00   0.00    -0.00   0.00   0.00    -0.00   0.00   0.00
   9   6     0.00  -0.00   0.00     0.00  -0.00   0.00     0.00   0.00  -0.00
  10   6    -0.00  -0.00   0.00    -0.00  -0.00   0.00     0.00  -0.00   0.00
  11   6    -0.00   0.00  -0.00    -0.00   0.00   0.00    -0.00   0.00  -0.00
  12   6     0.00  -0.00   0.00    -0.00  -0.00  -0.00    -0.00  -0.00   0.00
  13   6    -0.00   0.00  -0.00     0.00   0.00   0.00    -0.00  -0.00  -0.00
  14   6    -0.00   0.00  -0.00    -0.00   0.00  -0.00    -0.00   0.00   0.00
  15   6    -0.00  -0.00   0.00     0.00  -0.00   0.00     0.00  -0.00  -0.00
  16   6    -0.00   0.00  -0.00    -0.00   0.00   0.00    -0.00   0.00   0.00
  17   6    -0.01   0.01  -0.00    -0.00  -0.00   0.00    -0.00   0.00  -0.00
  18   6     0.02   0.04  -0.00    -0.00  -0.00   0.00    -0.00  -0.00   0.00
  19   6     0.27  -0.07   0.01    -0.00   0.00   0.00     0.00   0.00   0.00
  20  16     0.00  -0.00   0.00    -0.00   0.00   0.00    -0.00   0.00   0.00
  21  16     0.00   0.00  -0.00    -0.00  -0.00   0.00    -0.00  -0.00   0.00
  22  16    -0.00  -0.00  -0.00     0.00  -0.00  -0.00    -0.00   0.00  -0.00
  23  16    -0.00   0.00  -0.00     0.00  -0.00   0.00    -0.00  -0.00   0.00
  24  17    -0.00   0.00  -0.00    -0.00  -0.00  -0.00    -0.00   0.00   0.00
  25   1     0.00   0.00   0.00    -0.02   0.00   0.01    -0.03  -0.06  -0.04
  26   1     0.00  -0.00  -0.00     0.44  -0.12  -0.72    -0.26   0.06   0.38
  27   1     0.00   0.00   0.00     0.43  -0.01   0.12     0.84  -0.03   0.18
  28   1     0.00   0.00   0.00     0.00  -0.00  -0.00    -0.00  -0.01  -0.00
  29   1     0.00   0.00  -0.00     0.01  -0.00   0.00     0.02  -0.00   0.00
  30   1    -0.00   0.00  -0.00    -0.00   0.00  -0.00     0.00  -0.00   0.00
  31   1     0.00   0.00   0.00    -0.00  -0.00  -0.00    -0.00   0.00  -0.00
  32   1    -0.00  -0.00  -0.00    -0.00  -0.00   0.00    -0.00  -0.00   0.00
  33   1     0.00  -0.00   0.00     0.00  -0.00   0.00    -0.00   0.00   0.00
  34   1     0.00   0.00   0.00    -0.00   0.00  -0.00     0.00  -0.00  -0.00
  35   1     0.00   0.00  -0.00     0.00   0.00  -0.00    -0.00   0.00  -0.00
  36   1    -0.00  -0.00  -0.00    -0.00  -0.00   0.00     0.00   0.00  -0.00
  37   1     0.00  -0.00   0.00     0.00  -0.00   0.00     0.00  -0.00   0.00
  38   1     0.02  -0.02   0.00    -0.00   0.00   0.00     0.00  -0.00   0.00
  39   1    -0.06  -0.08   0.01     0.00   0.00  -0.00     0.00   0.00   0.00
  40   1    -0.93   0.22  -0.05     0.00  -0.00   0.00     0.00   0.00   0.00
