 Entering Gaussian System
 *********************************************
 Gaussian 98:
 frequency output generated by the xtb code
 *********************************************
                         Standard orientation:
 --------------------------------------------------------------------
  Center     Atomic     Atomic              Coordinates (Angstroms)
  Number     Number      Type              X           Y           Z
 --------------------------------------------------------------------
    1          7             0       -3.842712   -1.739681   -0.655364
    2          6             0       -3.895573   -0.705879    0.410065
    3          6             0       -2.788218    0.318175    0.220029
    4          8             0       -1.517501   -0.318632    0.199526
    5          6             0       -0.457007    0.507913    0.055211
    6          6             0       -0.527030    1.915733   -0.102322
    7          6             0        0.608123    2.675397   -0.240867
    8          6             0        1.863330    2.096360   -0.232660
    9          6             0        2.013194    0.706249   -0.080878
   10          6             0        3.277721    0.087013   -0.065862
   11          6             0        3.388644   -1.271238    0.088470
   12          6             0        2.253210   -2.056252    0.233266
   13          6             0        1.004003   -1.477355    0.221809
   14          6             0        0.856500   -0.100964    0.064827
   15          1             0       -2.907314   -2.171606   -0.674726
   16          1             0       -4.007963   -1.323292   -1.583904
   17          1             0       -4.541455   -2.486247   -0.511430
   18          1             0       -3.774562   -1.190708    1.386155
   19          1             0       -4.881600   -0.224994    0.420657
   20          1             0       -2.787001    1.057526    1.030388
   21          1             0       -2.912538    0.840504   -0.735161
   22          1             0       -1.485768    2.402568   -0.115609
   23          1             0        0.520978    3.744897   -0.357958
   24          1             0        2.742143    2.710455   -0.341794
   25          1             0        4.161593    0.693818   -0.176006
   26          1             0        4.364032   -1.733663    0.099028
   27          1             0        2.351115   -3.123742    0.356607
   28          1             0        0.117880   -2.079190    0.338513
 --------------------------------------------------------------------
     1 basis functions        1 primitive gaussians
     1 alpha electrons        1 beta electrons

 Harmonic frequencies (cm**-1), IR intensities (km*mol⁻¹),
 Raman scattering activities (A**4/amu), Raman depolarization ratios,
 reduced masses (AMU), force constants (mDyne/A) and normal coordinates:
                      1                      2                      3
                        a                      a                      a 
 Frequencies --    20.5643                56.9650                78.7668
 Red. masses --    10.3892                 9.9316                 9.5280
 Frc consts  --     0.0000                 0.0000                 0.0000
 IR Inten    --    13.2816                16.7157                19.9730
 Raman Activ --     0.0000                 0.0000                 0.0000
 Depolar     --     0.0000                 0.0000                 0.0000
 Atom AN      X      Y      Z        X      Y      Z        X      Y      Z
   1   7    -0.07  -0.21   0.43    -0.50   0.28  -0.13    -0.49  -0.11   0.05
   2   6     0.01   0.09   0.12     0.04  -0.08   0.23    -0.10   0.14  -0.16
   3   6    -0.00   0.04  -0.23     0.06  -0.10   0.18     0.04  -0.06  -0.38
   4   8    -0.02   0.03  -0.28     0.05  -0.14  -0.23     0.06  -0.05   0.21
   5   6     0.00   0.02  -0.16     0.03  -0.08  -0.14     0.05  -0.04   0.15
   6   6     0.02   0.01  -0.17    -0.01  -0.08  -0.13     0.03  -0.04   0.11
   7   6     0.04   0.03   0.08    -0.04  -0.03  -0.06     0.00  -0.01   0.08
   8   6     0.04   0.03   0.25    -0.02   0.01  -0.00     0.01   0.02   0.04
   9   6     0.02   0.02   0.15     0.03   0.02   0.01     0.04   0.02   0.02
  10   6     0.02   0.02   0.26     0.06   0.08   0.14     0.06   0.05  -0.15
  11   6    -0.00  -0.00   0.10     0.11   0.09   0.18     0.11   0.05  -0.18
  12   6    -0.03  -0.03  -0.23     0.14   0.04   0.07     0.14   0.03   0.01
  13   6    -0.03  -0.02  -0.30     0.11  -0.02  -0.06     0.13   0.01   0.15
  14   6    -0.00   0.01  -0.09     0.05  -0.03  -0.08     0.07  -0.00   0.13
  15   1    -0.01  -0.04   0.12    -0.16   0.01  -0.16    -0.20  -0.17   0.05
  16   1    -0.05  -0.13   0.09    -0.19   0.17   0.02    -0.06  -0.06  -0.01
  17   1    -0.00  -0.05   0.19    -0.16   0.10  -0.04    -0.23   0.07   0.04
  18   1     0.02   0.10   0.07     0.09  -0.11   0.01    -0.04   0.09  -0.02
  19   1     0.00   0.02   0.02     0.03   0.01   0.20    -0.00   0.09  -0.05
  20   1     0.03   0.06  -0.11     0.08  -0.07   0.09    -0.04   0.08  -0.20
  21   1    -0.03  -0.04  -0.09    -0.04   0.02   0.09     0.08  -0.13  -0.18
  22   1     0.01   0.00  -0.10    -0.01  -0.03  -0.05     0.01  -0.02   0.02
  23   1     0.02   0.01   0.03    -0.02  -0.01  -0.02    -0.01  -0.00   0.02
  24   1     0.02   0.01   0.13    -0.01   0.01   0.02    -0.00   0.01  -0.00
  25   1     0.01   0.01   0.14     0.01   0.04   0.06     0.01   0.02  -0.08
  26   1    -0.00  -0.00   0.05     0.04   0.04   0.08     0.03   0.02  -0.09
  27   1    -0.02  -0.01  -0.12     0.05   0.01   0.03     0.05   0.01   0.00
  28   1    -0.01  -0.01  -0.16     0.04  -0.02  -0.04     0.04  -0.00   0.08
                      4                      5                      6
                        a                      a                      a 
 Frequencies --   111.5151               144.0643               183.7674
 Red. masses --    10.9504                 9.9685                 6.3912
 Frc consts  --     0.0000                 0.0000                 0.0000
 IR Inten    --     2.9275                13.6996                 4.4378
 Raman Activ --     0.0000                 0.0000                 0.0000
 Depolar     --     0.0000                 0.0000                 0.0000
 Atom AN      X      Y      Z        X      Y      Z        X      Y      Z
   1   7     0.02   0.08  -0.05     0.17   0.19   0.13     0.04   0.15  -0.08
   2   6    -0.11   0.12  -0.10    -0.22   0.35  -0.08     0.03   0.02   0.03
   3   6     0.02   0.02   0.11    -0.01   0.14   0.09    -0.03   0.06  -0.07
   4   8     0.01  -0.02   0.53    -0.15  -0.15  -0.24    -0.06   0.01   0.18
   5   6    -0.01  -0.06   0.08    -0.04  -0.21  -0.08    -0.01  -0.05   0.07
   6   6    -0.03  -0.07   0.01    -0.07  -0.20  -0.03    -0.04  -0.09  -0.25
   7   6    -0.06  -0.07  -0.26    -0.13  -0.10   0.12    -0.05  -0.06  -0.19
   8   6    -0.05  -0.03  -0.15    -0.11  -0.04   0.09    -0.04  -0.01   0.14
   9   6    -0.01  -0.00   0.03    -0.06  -0.05  -0.02    -0.02   0.00   0.24
  10   6     0.02   0.07   0.28     0.00   0.09  -0.10    -0.00   0.03   0.08
  11   6     0.07   0.07   0.20     0.16   0.11  -0.06     0.04  -0.00  -0.24
  12   6     0.08  -0.02  -0.27     0.25   0.02   0.09     0.06  -0.03  -0.17
  13   6     0.05  -0.08  -0.34     0.18  -0.12   0.07     0.05  -0.04   0.15
  14   6     0.01  -0.05  -0.06    -0.00  -0.15  -0.03     0.00  -0.03   0.24
  15   1    -0.02  -0.05   0.08     0.07   0.09   0.15     0.13   0.31  -0.25
  16   1     0.13   0.02  -0.03     0.12  -0.00  -0.00    -0.35  -0.00   0.02
  17   1    -0.06   0.07  -0.08     0.06   0.03   0.01     0.26  -0.16   0.14
  18   1    -0.11   0.04  -0.01    -0.19   0.14   0.01     0.08  -0.01  -0.01
  19   1    -0.02   0.06  -0.10    -0.05   0.13  -0.15    -0.01  -0.03   0.07
  20   1    -0.05   0.03   0.01     0.07  -0.01   0.07    -0.02   0.07  -0.07
  21   1     0.08  -0.02   0.01     0.00   0.11   0.06     0.01  -0.04  -0.06
  22   1    -0.01  -0.02   0.04    -0.02  -0.06  -0.02    -0.02  -0.04  -0.17
  23   1    -0.03  -0.03  -0.12    -0.06  -0.03   0.06    -0.02  -0.03  -0.12
  24   1    -0.02  -0.01  -0.06    -0.04  -0.00   0.05    -0.01  -0.00   0.06
  25   1     0.00   0.04   0.15    -0.02   0.06  -0.05    -0.01   0.02   0.03
  26   1     0.03   0.04   0.12     0.06   0.06  -0.03     0.01   0.00  -0.15
  27   1     0.03  -0.01  -0.15     0.11   0.01   0.06     0.03  -0.01  -0.11
  28   1     0.02  -0.04  -0.18     0.07  -0.07   0.04     0.02  -0.02   0.07
                      7                      8                      9
                        a                      a                      a 
 Frequencies --   188.2592               221.9239               275.8005
 Red. masses --     6.3559                11.1172                 8.1818
 Frc consts  --     0.0000                 0.0000                 0.0000
 IR Inten    --     0.3655                 1.2352                 5.4088
 Raman Activ --     0.0000                 0.0000                 0.0000
 Depolar     --     0.0000                 0.0000                 0.0000
 Atom AN      X      Y      Z        X      Y      Z        X      Y      Z
   1   7     0.06   0.01  -0.03     0.01   0.04  -0.04     0.22   0.28   0.02
   2   6     0.01  -0.06   0.04     0.03  -0.01   0.01     0.36   0.05   0.21
   3   6     0.04  -0.06   0.17     0.01  -0.01  -0.00     0.14   0.08  -0.35
   4   8     0.06  -0.02   0.03     0.04   0.03   0.49     0.04  -0.06  -0.02
   5   6    -0.00   0.02  -0.09    -0.01  -0.03  -0.27     0.00  -0.08   0.06
   6   6    -0.02  -0.01  -0.39    -0.02  -0.04  -0.30    -0.12  -0.09   0.10
   7   6    -0.00   0.01  -0.13    -0.00   0.02   0.21    -0.19  -0.03   0.05
   8   6     0.02   0.05   0.26     0.00   0.04   0.31    -0.19  -0.03  -0.05
   9   6     0.02   0.04   0.21    -0.01  -0.02  -0.20    -0.11  -0.02  -0.02
  10   6    -0.01  -0.01   0.03    -0.02  -0.03  -0.21    -0.10   0.02  -0.01
  11   6    -0.06  -0.05  -0.26    -0.01   0.01   0.08    -0.07   0.03   0.05
  12   6    -0.07  -0.01  -0.09    -0.00   0.02   0.23    -0.03  -0.05   0.01
  13   6    -0.04   0.05   0.16    -0.02  -0.01  -0.12    -0.04  -0.09  -0.01
  14   6     0.01   0.05   0.14    -0.02  -0.04  -0.33    -0.04  -0.08   0.03
  15   1    -0.10  -0.26   0.21     0.02   0.05  -0.06     0.00  -0.05   0.05
  16   1     0.37   0.09  -0.03    -0.06   0.01   0.00     0.20   0.18   0.03
  17   1    -0.22   0.18  -0.21     0.04  -0.02   0.01    -0.05   0.15  -0.12
  18   1    -0.04  -0.03   0.01     0.02  -0.01  -0.00     0.27  -0.00   0.03
  19   1     0.01   0.00  -0.02     0.01  -0.01   0.02     0.08  -0.05   0.19
  20   1     0.02  -0.04   0.07    -0.05   0.06  -0.06     0.05   0.15  -0.21
  21   1    -0.01   0.01   0.07     0.06  -0.08  -0.05     0.03  -0.13  -0.18
  22   1    -0.01  -0.02  -0.22    -0.01  -0.01  -0.10    -0.04  -0.04   0.02
  23   1    -0.00  -0.00  -0.08     0.00   0.02   0.16    -0.06  -0.01   0.02
  24   1     0.01   0.02   0.13     0.01   0.03   0.24    -0.06  -0.00  -0.04
  25   1     0.00  -0.01   0.00    -0.01  -0.01  -0.09    -0.03   0.01  -0.00
  26   1    -0.03  -0.03  -0.16    -0.00   0.01   0.07    -0.01   0.02   0.02
  27   1    -0.03  -0.01  -0.05     0.00   0.02   0.16     0.01  -0.01  -0.01
  28   1    -0.02   0.03   0.08    -0.01  -0.00  -0.04    -0.01  -0.03  -0.01
                     10                     11                     12
                        a                      a                      a 
 Frequencies --   286.0803               379.1831               410.1086
 Red. masses --    10.6713                 9.2058                 9.7585
 Frc consts  --     0.0000                 0.0000                 0.0000
 IR Inten    --     0.5098                 0.5490                14.4093
 Raman Activ --     0.0000                 0.0000                 0.0000
 Depolar     --     0.0000                 0.0000                 0.0000
 Atom AN      X      Y      Z        X      Y      Z        X      Y      Z
   1   7     0.02  -0.05  -0.05    -0.00  -0.02   0.01     0.09   0.21   0.03
   2   6    -0.04  -0.21   0.12     0.02   0.01  -0.00    -0.32  -0.06   0.20
   3   6    -0.40   0.19  -0.06     0.00   0.02  -0.01    -0.22  -0.22  -0.14
   4   8    -0.35   0.37   0.01     0.00   0.03   0.10    -0.12  -0.22   0.00
   5   6    -0.07   0.04   0.01    -0.01  -0.03  -0.30    -0.09  -0.07   0.03
   6   6     0.11   0.05  -0.02     0.00   0.00   0.02    -0.03  -0.09  -0.02
   7   6     0.15  -0.01   0.00     0.01   0.02   0.17     0.04  -0.14   0.09
   8   6     0.09  -0.12   0.02    -0.01  -0.03  -0.18     0.15   0.07  -0.07
   9   6    -0.04  -0.13   0.01    -0.02  -0.03  -0.22     0.25   0.08  -0.08
  10   6     0.03   0.02  -0.02     0.01   0.06   0.44     0.21  -0.07  -0.00
  11   6     0.21   0.05  -0.00    -0.01  -0.02  -0.20     0.05  -0.09   0.06
  12   6     0.24   0.02  -0.01    -0.00  -0.02  -0.18    -0.08   0.09  -0.06
  13   6     0.16  -0.11  -0.01     0.02   0.04   0.40     0.01   0.26  -0.00
  14   6    -0.08  -0.12   0.01    -0.02  -0.05  -0.29     0.10   0.24   0.02
  15   1    -0.03  -0.09   0.04    -0.00  -0.01   0.00     0.07   0.15   0.07
  16   1     0.12   0.06  -0.00    -0.00  -0.01   0.00     0.10   0.14   0.03
  17   1    -0.07   0.04  -0.11    -0.01   0.00   0.01     0.07  -0.02  -0.14
  18   1     0.12  -0.08   0.01     0.01   0.01  -0.00    -0.11  -0.02   0.06
  19   1    -0.06  -0.16   0.13     0.00  -0.00   0.00    -0.09  -0.02   0.04
  20   1    -0.16   0.08  -0.05    -0.02   0.01  -0.01    -0.03   0.05  -0.14
  21   1    -0.17   0.00  -0.04     0.02  -0.01  -0.01    -0.07  -0.19  -0.11
  22   1     0.03   0.02  -0.01     0.01   0.01   0.11     0.00  -0.00  -0.04
  23   1     0.07  -0.00   0.00     0.01   0.02   0.17    -0.01  -0.04   0.05
  24   1     0.05  -0.06   0.01    -0.00  -0.01  -0.02     0.01   0.07  -0.04
  25   1    -0.02   0.05  -0.01     0.01   0.04   0.32     0.08  -0.05   0.01
  26   1     0.07   0.04   0.00    -0.00  -0.01  -0.08    -0.01  -0.07   0.04
  27   1     0.09   0.01  -0.00     0.00  -0.01  -0.06    -0.08   0.02  -0.04
  28   1     0.07  -0.08  -0.00     0.02   0.03   0.31    -0.02   0.10  -0.00
                     13                     14                     15
                        a                      a                      a 
 Frequencies --   434.1451               456.2743               493.3745
 Red. masses --     9.6578                10.3592                11.1948
 Frc consts  --     0.0000                 0.0000                 0.0000
 IR Inten    --     0.1659                 6.9711                 0.2248
 Raman Activ --     0.0000                 0.0000                 0.0000
 Depolar     --     0.0000                 0.0000                 0.0000
 Atom AN      X      Y      Z        X      Y      Z        X      Y      Z
   1   7    -0.01  -0.03  -0.03     0.04   0.11   0.03     0.01   0.01   0.00
   2   6     0.02   0.00  -0.04    -0.15  -0.03   0.10     0.09   0.05  -0.03
   3   6     0.04   0.00   0.05     0.06  -0.28  -0.05     0.13  -0.04   0.01
   4   8     0.04   0.02  -0.00     0.11  -0.22  -0.00     0.07  -0.05   0.00
   5   6     0.02   0.03   0.10    -0.04   0.03  -0.01    -0.20   0.23  -0.02
   6   6     0.01  -0.01  -0.32     0.28   0.11   0.01    -0.32   0.24  -0.01
   7   6     0.04   0.08   0.34     0.33   0.07  -0.04    -0.01  -0.23   0.03
   8   6    -0.02  -0.04  -0.17     0.20  -0.10   0.00    -0.09  -0.41   0.05
   9   6    -0.07  -0.05  -0.29    -0.27  -0.09   0.05     0.03  -0.32   0.04
  10   6    -0.06   0.01  -0.14    -0.21   0.21   0.00     0.20  -0.05  -0.01
  11   6    -0.00   0.07   0.32    -0.10   0.27  -0.05     0.27  -0.01  -0.01
  12   6    -0.00  -0.05  -0.33    -0.02   0.15   0.01     0.03   0.32  -0.04
  13   6    -0.00  -0.04   0.15    -0.14  -0.13   0.01    -0.07   0.15  -0.01
  14   6    -0.01  -0.00   0.39    -0.20  -0.13  -0.00    -0.21   0.11   0.01
  15   1    -0.01  -0.01  -0.01     0.04   0.09   0.03    -0.01  -0.01  -0.01
  16   1    -0.01  -0.02  -0.01     0.03   0.07   0.02    -0.01  -0.01  -0.00
  17   1    -0.01  -0.00   0.01     0.05  -0.02  -0.07    -0.01   0.01   0.03
  18   1    -0.01  -0.00  -0.01    -0.11  -0.01   0.04     0.01   0.02  -0.01
  19   1     0.01   0.01  -0.02    -0.02   0.04  -0.02     0.04   0.03  -0.02
  20   1     0.02  -0.01   0.03     0.05  -0.01  -0.08     0.05  -0.02   0.01
  21   1     0.00   0.02   0.03     0.02  -0.14  -0.05     0.05   0.00   0.01
  22   1    -0.00  -0.02  -0.23     0.09   0.06   0.00    -0.06   0.13  -0.01
  23   1     0.02   0.04   0.21     0.12   0.02  -0.02     0.11  -0.05   0.00
  24   1     0.01  -0.03  -0.06     0.12  -0.12   0.00    -0.03  -0.11   0.01
  25   1    -0.02   0.01  -0.05    -0.10   0.11  -0.00     0.01   0.05  -0.01
  26   1     0.01   0.04   0.21    -0.02   0.10  -0.03     0.05  -0.06   0.00
  27   1     0.01  -0.03  -0.24     0.06   0.05   0.01    -0.03   0.09  -0.01
  28   1     0.00  -0.02   0.02    -0.01  -0.08   0.01     0.03  -0.02  -0.00
                     16                     17                     18
                        a                      a                      a 
 Frequencies --   501.6833               531.9292               592.3043
 Red. masses --    10.8455                 9.7704                11.3432
 Frc consts  --     0.0000                 0.0000                 0.0000
 IR Inten    --     0.9016                 4.6706                 0.8995
 Raman Activ --     0.0000                 0.0000                 0.0000
 Depolar     --     0.0000                 0.0000                 0.0000
 Atom AN      X      Y      Z        X      Y      Z        X      Y      Z
   1   7     0.01   0.09   0.02    -0.00  -0.01  -0.00     0.02  -0.02  -0.00
   2   6    -0.20  -0.05   0.10     0.01   0.00  -0.00     0.15   0.06  -0.06
   3   6     0.00  -0.24  -0.03     0.00   0.02   0.02     0.06   0.05  -0.00
   4   8     0.22   0.09  -0.04    -0.00   0.01   0.12    -0.18  -0.28   0.06
   5   6     0.06   0.27  -0.04    -0.02  -0.05  -0.40    -0.30  -0.06  -0.13
   6   6    -0.13   0.33  -0.02     0.00  -0.02  -0.10     0.02   0.04   0.06
   7   6    -0.13   0.33  -0.03     0.02   0.03   0.33     0.12  -0.02  -0.06
   8   6    -0.22   0.04  -0.01    -0.01  -0.04  -0.41     0.20   0.16   0.01
   9   6    -0.07  -0.01   0.02     0.02   0.05   0.41    -0.19   0.12   0.04
  10   6    -0.11  -0.20   0.04     0.00   0.01   0.08    -0.36  -0.21  -0.03
  11   6     0.14  -0.22   0.00    -0.01  -0.01  -0.13     0.15  -0.17   0.10
  12   6     0.19  -0.28   0.04     0.01   0.03   0.22     0.15  -0.11  -0.07
  13   6     0.22  -0.11  -0.01    -0.01  -0.02  -0.18     0.28   0.25   0.04
  14   6     0.00  -0.05  -0.00     0.01   0.03   0.22    -0.20   0.20   0.01
  15   1     0.04   0.10   0.03    -0.00  -0.01  -0.00    -0.02  -0.05  -0.01
  16   1     0.02   0.07   0.02    -0.01  -0.01  -0.00    -0.01  -0.04  -0.01
  17   1     0.05  -0.03  -0.07    -0.00  -0.00   0.01    -0.02   0.03   0.06
  18   1    -0.16  -0.01   0.04     0.01  -0.00  -0.00     0.11   0.02  -0.02
  19   1    -0.03   0.05  -0.05     0.00  -0.00  -0.00     0.03  -0.02   0.04
  20   1    -0.00  -0.01  -0.07    -0.01   0.01   0.00     0.05  -0.01   0.03
  21   1    -0.03  -0.14  -0.04     0.01  -0.00   0.00     0.07   0.06   0.02
  22   1    -0.06   0.05  -0.00     0.00  -0.00  -0.00     0.05   0.10   0.06
  23   1     0.02   0.10  -0.01     0.01   0.02   0.17     0.00  -0.00  -0.01
  24   1    -0.05  -0.00  -0.01    -0.01  -0.03  -0.27     0.07   0.03   0.02
  25   1    -0.03  -0.06   0.01    -0.01  -0.02  -0.13    -0.12  -0.04  -0.05
  26   1     0.07  -0.01  -0.01    -0.01  -0.02  -0.19     0.08   0.04   0.01
  27   1     0.03  -0.08   0.02    -0.00   0.00   0.01    -0.06  -0.04  -0.06
  28   1     0.07  -0.05  -0.00    -0.01  -0.03  -0.23     0.09   0.05  -0.01
                     19                     20                     21
                        a                      a                      a 
 Frequencies --   598.6285               713.2316               740.3905
 Red. masses --    10.3259                10.4418                11.3592
 Frc consts  --     0.0000                 0.0000                 0.0000
 IR Inten    --     2.8555                 0.1840                27.1507
 Raman Activ --     0.0000                 0.0000                 0.0000
 Depolar     --     0.0000                 0.0000                 0.0000
 Atom AN      X      Y      Z        X      Y      Z        X      Y      Z
   1   7    -0.01   0.01   0.02    -0.00   0.00   0.01    -0.00  -0.00   0.00
   2   6    -0.05  -0.02   0.03    -0.00   0.00   0.00    -0.02  -0.07   0.07
   3   6    -0.02  -0.02  -0.02    -0.00  -0.00  -0.01     0.04  -0.04   0.02
   4   8     0.05   0.08   0.05    -0.00  -0.01   0.00     0.25   0.42  -0.07
   5   6     0.06  -0.05  -0.56    -0.01  -0.03  -0.24     0.15   0.07  -0.04
   6   6     0.01   0.03   0.26     0.01   0.02   0.13    -0.10  -0.20   0.05
   7   6    -0.04  -0.01  -0.20    -0.01  -0.02  -0.21     0.01  -0.50   0.05
   8   6    -0.05  -0.02   0.14     0.00   0.01   0.11     0.09  -0.10   0.01
   9   6     0.06  -0.01   0.19    -0.02  -0.06  -0.52    -0.13   0.02  -0.01
  10   6     0.09   0.03  -0.27     0.02   0.03   0.22    -0.35  -0.00   0.02
  11   6    -0.03   0.08   0.29    -0.01  -0.02  -0.17    -0.10   0.06  -0.00
  12   6    -0.05  -0.01  -0.25     0.01   0.02   0.22     0.04  -0.05   0.01
  13   6    -0.06  -0.04   0.29    -0.01  -0.02  -0.14     0.17   0.20  -0.03
  14   6     0.06  -0.05   0.07     0.03   0.06   0.54     0.04   0.12  -0.01
  15   1     0.01   0.02   0.01     0.00   0.00   0.00    -0.00  -0.00  -0.06
  16   1     0.01   0.02   0.01     0.00   0.00   0.00    -0.02   0.06   0.03
  17   1     0.01  -0.01  -0.02     0.00  -0.00  -0.00     0.01  -0.02  -0.04
  18   1    -0.02  -0.00   0.01     0.01   0.00   0.00    -0.18   0.00   0.05
  19   1    -0.01   0.00  -0.00    -0.00  -0.00   0.01     0.04   0.07  -0.12
  20   1    -0.03   0.00  -0.01    -0.01  -0.01   0.00    -0.04   0.04  -0.04
  21   1    -0.01  -0.02  -0.01     0.01   0.01  -0.00    -0.07  -0.08  -0.02
  22   1    -0.00   0.00   0.23     0.00   0.01   0.10    -0.02  -0.06  -0.01
  23   1    -0.00  -0.00  -0.04     0.01   0.02   0.13    -0.02  -0.14   0.01
  24   1    -0.02   0.00   0.06     0.01   0.03   0.24    -0.00   0.00  -0.01
  25   1     0.03  -0.02  -0.20     0.01   0.00   0.04    -0.12   0.03   0.00
  26   1    -0.02  -0.00   0.07    -0.01  -0.01  -0.09     0.01   0.10  -0.01
  27   1     0.01  -0.02  -0.21    -0.00  -0.01  -0.08    -0.03  -0.02   0.00
  28   1    -0.03  -0.02  -0.01    -0.01  -0.03  -0.21     0.02   0.09  -0.02
                     22                     23                     24
                        a                      a                      a 
 Frequencies --   752.0097               768.3956               793.2780
 Red. masses --     4.3865                10.6504                 3.9184
 Frc consts  --     0.0000                 0.0000                 0.0000
 IR Inten    --     0.0534                 1.3111                50.4194
 Raman Activ --     0.0000                 0.0000                 0.0000
 Depolar     --     0.0000                 0.0000                 0.0000
 Atom AN      X      Y      Z        X      Y      Z        X      Y      Z
   1   7     0.00  -0.01  -0.01     0.00  -0.01  -0.00    -0.03   0.03   0.03
   2   6     0.01  -0.00   0.01    -0.00  -0.03   0.03    -0.05  -0.00  -0.02
   3   6     0.01   0.01   0.03     0.02   0.00   0.01    -0.02  -0.02  -0.06
   4   8    -0.02  -0.00   0.04     0.06   0.11  -0.02     0.06   0.01  -0.01
   5   6    -0.02  -0.04  -0.28     0.17  -0.15   0.01     0.05   0.01   0.06
   6   6     0.02   0.02   0.20     0.34  -0.28   0.03    -0.00  -0.05  -0.29
   7   6     0.00   0.03   0.06    -0.08   0.28  -0.03    -0.01  -0.03  -0.11
   8   6     0.00   0.02   0.14    -0.21  -0.03   0.01    -0.02  -0.04  -0.12
   9   6     0.00  -0.00  -0.02    -0.15  -0.09   0.01    -0.01   0.01   0.19
  10   6     0.00  -0.02  -0.15    -0.11  -0.22   0.04    -0.05  -0.03  -0.12
  11   6     0.01  -0.02  -0.13     0.33  -0.19   0.01     0.00  -0.01  -0.07
  12   6    -0.00   0.00  -0.09    -0.07   0.41  -0.04    -0.01   0.00  -0.11
  13   6    -0.02  -0.03  -0.21    -0.11   0.20  -0.01     0.00   0.01  -0.16
  14   6     0.01   0.03   0.25    -0.08   0.02  -0.01     0.02   0.03   0.17
  15   1    -0.01  -0.02  -0.02    -0.00  -0.01  -0.03     0.02   0.06   0.07
  16   1    -0.01  -0.00   0.00    -0.01   0.03   0.02     0.03  -0.01  -0.01
  17   1    -0.01   0.01   0.01    -0.00  -0.00  -0.02     0.02  -0.02  -0.02
  18   1    -0.02   0.00   0.00    -0.08   0.00   0.02     0.07  -0.01  -0.02
  19   1     0.01   0.01  -0.02     0.02   0.03  -0.06    -0.02  -0.03   0.08
  20   1     0.01   0.03  -0.01    -0.02   0.02  -0.02    -0.04  -0.07   0.04
  21   1    -0.01  -0.02  -0.00    -0.04  -0.04  -0.01     0.04   0.06   0.02
  22   1    -0.01  -0.03  -0.28     0.04  -0.19   0.01     0.02   0.05   0.56
  23   1    -0.01  -0.02  -0.22    -0.09   0.07  -0.00     0.01   0.03   0.31
  24   1    -0.01  -0.04  -0.31    -0.02  -0.06   0.02     0.01   0.02   0.24
  25   1     0.02   0.04   0.34    -0.08   0.01  -0.02    -0.01   0.02   0.16
  26   1     0.02   0.03   0.34     0.07  -0.11  -0.01     0.02   0.03   0.24
  27   1     0.01   0.04   0.34    -0.14   0.10  -0.03     0.00   0.04   0.28
  28   1     0.01   0.04   0.33    -0.00   0.01  -0.02     0.01   0.04   0.24
                     25                     26                     27
                        a                      a                      a 
 Frequencies --   812.6477               856.2030               864.7941
 Red. masses --     4.0993                 3.9300                10.1549
 Frc consts  --     0.0000                 0.0000                 0.0000
 IR Inten    --    16.3146                 2.9338                 2.3063
 Raman Activ --     0.0000                 0.0000                 0.0000
 Depolar     --     0.0000                 0.0000                 0.0000
 Atom AN      X      Y      Z        X      Y      Z        X      Y      Z
   1   7    -0.13   0.03  -0.01     0.02   0.03   0.04     0.04  -0.03  -0.00
   2   6    -0.24   0.06  -0.11     0.03  -0.02  -0.01     0.01  -0.00   0.02
   3   6    -0.05   0.04  -0.08    -0.01  -0.04  -0.04    -0.05   0.07   0.01
   4   8     0.23  -0.03   0.04    -0.01   0.02   0.00    -0.10  -0.15   0.01
   5   6     0.15   0.02  -0.03    -0.01   0.01   0.03     0.04  -0.08   0.02
   6   6     0.02  -0.02   0.04    -0.02  -0.04  -0.29     0.18   0.02  -0.01
   7   6    -0.00  -0.03   0.05     0.00   0.00   0.12     0.03   0.20  -0.03
   8   6    -0.07  -0.11   0.08     0.03   0.06   0.31    -0.31  -0.41   0.04
   9   6    -0.05  -0.04  -0.05    -0.00  -0.01  -0.12     0.02  -0.14   0.04
  10   6    -0.12  -0.01   0.03     0.00  -0.01  -0.07     0.04   0.12  -0.07
  11   6    -0.03   0.02   0.00     0.01  -0.02  -0.07    -0.29   0.12  -0.04
  12   6    -0.01   0.03   0.02     0.01   0.02   0.10    -0.02  -0.21   0.04
  13   6     0.06   0.11   0.01    -0.01  -0.01   0.13     0.31   0.33   0.00
  14   6     0.06   0.04  -0.03    -0.01  -0.01   0.01     0.11   0.15  -0.03
  15   1     0.07   0.22   0.37    -0.01  -0.01  -0.04    -0.02  -0.07  -0.11
  16   1     0.16  -0.22  -0.14    -0.02   0.06   0.04    -0.04   0.06   0.04
  17   1     0.09  -0.12  -0.04    -0.01   0.01  -0.01    -0.03   0.03   0.01
  18   1     0.34  -0.11  -0.14    -0.02   0.03   0.02    -0.03   0.04   0.03
  19   1    -0.12  -0.12   0.39     0.01   0.01  -0.04    -0.01  -0.03  -0.07
  20   1    -0.00  -0.11   0.09    -0.05  -0.05   0.02     0.01   0.03  -0.01
  21   1     0.08   0.15   0.05     0.02   0.03   0.01    -0.00  -0.00  -0.01
  22   1    -0.01  -0.04  -0.10     0.02   0.05   0.48     0.03  -0.03   0.00
  23   1     0.02  -0.02  -0.11    -0.02  -0.03  -0.25     0.14   0.06   0.00
  24   1    -0.01  -0.06  -0.11    -0.02  -0.04  -0.52    -0.02  -0.20   0.04
  25   1    -0.05   0.01  -0.01     0.01   0.02   0.21     0.03   0.02   0.10
  26   1     0.00   0.02  -0.04     0.00  -0.00   0.05    -0.06   0.07   0.04
  27   1    -0.03  -0.00  -0.05    -0.00  -0.02  -0.15    -0.05  -0.06   0.00
  28   1     0.00   0.04  -0.06    -0.01  -0.05  -0.28     0.01   0.18  -0.13
                     28                     29                     30
                        a                      a                      a 
 Frequencies --   868.0722               910.4329               911.8418
 Red. masses --     3.9932                 4.1335                 3.7559
 Frc consts  --     0.0000                 0.0000                 0.0000
 IR Inten    --     3.4046                 7.8594                11.0131
 Raman Activ --     0.0000                 0.0000                 0.0000
 Depolar     --     0.0000                 0.0000                 0.0000
 Atom AN      X      Y      Z        X      Y      Z        X      Y      Z
   1   7     0.01   0.00   0.02     0.01   0.05   0.21     0.00   0.02  -0.18
   2   6     0.01  -0.01  -0.00     0.01  -0.08  -0.13     0.03   0.06   0.08
   3   6    -0.02  -0.00  -0.01    -0.07  -0.08  -0.20     0.05  -0.01   0.19
   4   8    -0.02  -0.02   0.01     0.04   0.01   0.06    -0.06   0.03  -0.06
   5   6     0.01  -0.02  -0.02     0.01   0.01  -0.03    -0.03  -0.01   0.01
   6   6     0.03  -0.01  -0.11    -0.00  -0.00   0.01     0.01  -0.01  -0.03
   7   6     0.01   0.04   0.04     0.01   0.01   0.16    -0.00   0.01  -0.03
   8   6    -0.05  -0.05   0.18     0.00  -0.00  -0.10    -0.01   0.00   0.07
   9   6    -0.00  -0.04  -0.14    -0.00  -0.00  -0.06     0.00  -0.01  -0.06
  10   6     0.02   0.05   0.26    -0.00   0.02   0.18     0.03   0.03   0.18
  11   6    -0.04   0.04   0.17     0.00  -0.01  -0.10    -0.02  -0.01  -0.09
  12   6    -0.00  -0.05  -0.06    -0.01  -0.01  -0.21    -0.01  -0.05  -0.24
  13   6     0.04   0.02  -0.28    -0.00   0.01   0.15     0.02   0.03   0.17
  14   6     0.02   0.04   0.06     0.01  -0.00   0.02    -0.01   0.00   0.01
  15   1    -0.01  -0.02  -0.03    -0.00   0.01  -0.10    -0.00  -0.01   0.13
  16   1    -0.01   0.04   0.02    -0.02   0.25   0.17     0.02  -0.30  -0.19
  17   1    -0.01   0.01  -0.00    -0.01  -0.00  -0.11     0.01   0.04   0.18
  18   1    -0.01   0.02   0.01     0.07   0.14   0.04    -0.07  -0.17  -0.06
  19   1     0.00  -0.01  -0.02    -0.02  -0.07  -0.06     0.05   0.09   0.06
  20   1    -0.02  -0.01   0.01    -0.10  -0.23   0.14     0.06   0.20  -0.14
  21   1     0.01   0.01   0.00     0.07   0.22   0.08    -0.09  -0.24  -0.07
  22   1     0.01   0.01   0.18    -0.01  -0.01  -0.03     0.01   0.01   0.09
  23   1     0.02  -0.00  -0.11    -0.02  -0.04  -0.30    -0.00   0.01   0.04
  24   1    -0.01  -0.06  -0.24     0.01   0.02   0.18    -0.01  -0.02  -0.11
  25   1    -0.02  -0.06  -0.51    -0.02  -0.03  -0.27    -0.00  -0.04  -0.28
  26   1    -0.02  -0.02  -0.26     0.01   0.02   0.17     0.00   0.01   0.15
  27   1    -0.01  -0.01   0.04     0.02   0.05   0.37     0.02   0.05   0.44
  28   1     0.03   0.10   0.52    -0.01  -0.04  -0.24    -0.01  -0.03  -0.29
                     31                     32                     33
                        a                      a                      a 
 Frequencies --   916.4115               919.7774               931.8267
 Red. masses --     7.2775                 4.2562                 3.4227
 Frc consts  --     0.0000                 0.0000                 0.0000
 IR Inten    --    26.1704                 2.6103                 0.0387
 Raman Activ --     0.0000                 0.0000                 0.0000
 Depolar     --     0.0000                 0.0000                 0.0000
 Atom AN      X      Y      Z        X      Y      Z        X      Y      Z
   1   7    -0.07  -0.38  -0.14     0.02   0.14   0.16    -0.00  -0.01  -0.01
   2   6    -0.21   0.08   0.24     0.06  -0.06  -0.15    -0.01   0.00   0.01
   3   6     0.12   0.39   0.01    -0.07  -0.15  -0.11     0.00   0.01   0.01
   4   8     0.12  -0.15   0.00    -0.01   0.04   0.03     0.00  -0.00  -0.00
   5   6     0.04  -0.01   0.03     0.00   0.02   0.05    -0.00  -0.00  -0.02
   6   6    -0.06   0.06  -0.01     0.02  -0.01   0.07    -0.00  -0.00  -0.02
   7   6    -0.01  -0.03  -0.09    -0.01  -0.04  -0.31     0.00   0.01   0.06
   8   6     0.02   0.03   0.08     0.01   0.02   0.20    -0.00  -0.00  -0.03
   9   6    -0.01   0.02  -0.01     0.00  -0.00   0.02    -0.00  -0.01  -0.08
  10   6    -0.04  -0.02   0.05     0.00   0.00   0.01    -0.01  -0.02  -0.17
  11   6     0.04  -0.01  -0.01    -0.00   0.01   0.04     0.02   0.04   0.36
  12   6    -0.00   0.03  -0.07    -0.00  -0.01  -0.08    -0.01  -0.02  -0.21
  13   6    -0.03  -0.03   0.06     0.01   0.01   0.05    -0.00   0.00   0.01
  14   6     0.02  -0.01  -0.02    -0.00  -0.01  -0.05     0.00   0.01   0.09
  15   1     0.02   0.00  -0.14    -0.01   0.01  -0.01     0.00  -0.00  -0.00
  16   1     0.02   0.21   0.10    -0.02   0.08   0.06     0.00   0.00  -0.00
  17   1     0.03  -0.21  -0.36    -0.02   0.06   0.05     0.00  -0.00  -0.01
  18   1     0.00   0.12   0.11     0.05   0.04  -0.01    -0.00   0.00   0.00
  19   1    -0.13  -0.12   0.01     0.02  -0.01  -0.03    -0.00  -0.00   0.00
  20   1     0.19   0.16  -0.04    -0.10  -0.17   0.09     0.00   0.01  -0.00
  21   1     0.11   0.07  -0.03    -0.00   0.11   0.05     0.00  -0.00  -0.00
  22   1     0.01   0.07  -0.02    -0.02  -0.05  -0.20     0.00   0.01   0.04
  23   1     0.02   0.02   0.19     0.02   0.07   0.62    -0.01  -0.01  -0.12
  24   1    -0.01  -0.00  -0.15    -0.02  -0.05  -0.39     0.00   0.01   0.07
  25   1    -0.02  -0.00  -0.07     0.00  -0.00  -0.01     0.02   0.04   0.35
  26   1     0.01   0.00   0.02    -0.01  -0.01  -0.08    -0.03  -0.08  -0.67
  27   1     0.01   0.02   0.12     0.01   0.02   0.15     0.02   0.05   0.40
  28   1    -0.01  -0.03  -0.08    -0.00  -0.01  -0.10    -0.00  -0.02  -0.11
                     34                     35                     36
                        a                      a                      a 
 Frequencies --   955.9381              1043.9268              1057.4884
 Red. masses --     7.0953                 9.9479                 9.2819
 Frc consts  --     0.0000                 0.0000                 0.0000
 IR Inten    --    69.8920                56.6653                 9.1342
 Raman Activ --     0.0000                 0.0000                 0.0000
 Depolar     --     0.0000                 0.0000                 0.0000
 Atom AN      X      Y      Z        X      Y      Z        X      Y      Z
   1   7     0.23   0.14   0.02     0.11  -0.03  -0.05     0.14  -0.20  -0.31
   2   6    -0.20   0.00  -0.06    -0.20   0.10   0.06     0.03   0.48   0.38
   3   6    -0.32   0.14   0.07     0.06  -0.07  -0.02    -0.19  -0.31  -0.17
   4   8     0.30  -0.22  -0.02     0.26   0.17  -0.03    -0.04   0.03   0.06
   5   6     0.16   0.03  -0.01    -0.27   0.14  -0.00     0.05   0.02  -0.01
   6   6    -0.09   0.08  -0.01     0.22  -0.25   0.02    -0.02   0.01   0.00
   7   6     0.00  -0.05   0.01    -0.03  -0.02   0.00     0.01  -0.00  -0.00
   8   6     0.03   0.00  -0.00    -0.02   0.10  -0.01     0.00  -0.02   0.00
   9   6    -0.01   0.02  -0.00    -0.09  -0.08   0.01     0.02   0.01  -0.00
  10   6    -0.14  -0.06   0.01     0.32   0.14  -0.03    -0.07  -0.02   0.01
  11   6     0.06  -0.01  -0.00    -0.06  -0.02   0.01     0.02   0.00  -0.00
  12   6    -0.01   0.09  -0.01     0.02  -0.21   0.03     0.00   0.04  -0.00
  13   6    -0.07  -0.05   0.01     0.09   0.06  -0.01    -0.03  -0.01   0.00
  14   6     0.13  -0.03  -0.00    -0.42   0.06   0.01     0.10  -0.02  -0.00
  15   1    -0.09  -0.28  -0.22    -0.03  -0.12  -0.11    -0.02  -0.15  -0.13
  16   1    -0.13  -0.06  -0.00    -0.05  -0.01  -0.00    -0.02  -0.11  -0.09
  17   1    -0.13   0.27   0.32    -0.03   0.07   0.06    -0.01   0.02   0.03
  18   1     0.07   0.00  -0.03     0.08   0.03   0.00     0.07   0.15   0.10
  19   1    -0.21  -0.30  -0.02    -0.13  -0.13   0.08     0.04   0.18   0.11
  20   1     0.03   0.08  -0.04     0.08  -0.03   0.01    -0.06  -0.25   0.12
  21   1     0.00  -0.05  -0.03     0.07   0.02   0.01    -0.12   0.12   0.09
  22   1    -0.03   0.02   0.02     0.08  -0.04  -0.00    -0.04  -0.05  -0.01
  23   1     0.04  -0.01  -0.01    -0.26  -0.03   0.01     0.04   0.00  -0.00
  24   1     0.00   0.01   0.00    -0.02   0.04  -0.00     0.00  -0.01  -0.00
  25   1    -0.06   0.01   0.00     0.11   0.01  -0.01    -0.03   0.00  -0.00
  26   1     0.03   0.02  -0.00    -0.06  -0.10   0.01     0.02   0.03  -0.00
  27   1     0.01   0.03  -0.00    -0.05  -0.06   0.01     0.02   0.01  -0.00
  28   1    -0.02  -0.00  -0.00     0.09  -0.09   0.01    -0.03   0.04  -0.00
                     37                     38                     39
                        a                      a                      a 
 Frequencies --  1092.7286              1105.1459              1124.8098
 Red. masses --     6.2367                10.4212                 6.5424
 Frc consts  --     0.0000                 0.0000                 0.0000
 IR Inten    --     1.7856                38.8629                 4.6819
 Raman Activ --     0.0000                 0.0000                 0.0000
 Depolar     --     0.0000                 0.0000                 0.0000
 Atom AN      X      Y      Z        X      Y      Z        X      Y      Z
   1   7     0.02   0.01   0.01    -0.14  -0.03  -0.03     0.01  -0.14   0.10
   2   6    -0.05  -0.01  -0.01     0.34   0.04   0.00     0.03   0.32  -0.29
   3   6     0.08  -0.03  -0.01    -0.55   0.19   0.07    -0.05  -0.25   0.41
   4   8    -0.08   0.02   0.00     0.39  -0.24  -0.02    -0.07   0.05  -0.14
   5   6    -0.02   0.03  -0.00    -0.01   0.03  -0.00    -0.00   0.06  -0.01
   6   6     0.06  -0.02  -0.00    -0.02  -0.02   0.00     0.01  -0.03   0.00
   7   6     0.04  -0.04   0.00    -0.02   0.02  -0.00     0.01  -0.00  -0.00
   8   6    -0.06  -0.01   0.00     0.08   0.03  -0.01    -0.01  -0.00   0.00
   9   6    -0.04   0.01   0.00    -0.08  -0.04   0.01     0.03  -0.01   0.00
  10   6     0.06   0.19  -0.03     0.12   0.09  -0.02    -0.03  -0.02   0.00
  11   6     0.40  -0.05  -0.01     0.06  -0.01  -0.00    -0.01   0.00   0.00
  12   6    -0.07  -0.38   0.05    -0.04  -0.13   0.02     0.02   0.01  -0.00
  13   6    -0.28  -0.02   0.02     0.00   0.01  -0.00    -0.02   0.00   0.00
  14   6     0.08   0.07  -0.01    -0.14   0.04   0.00     0.04  -0.01  -0.00
  15   1    -0.00  -0.01  -0.01     0.03   0.13   0.10     0.02   0.00  -0.11
  16   1    -0.01   0.00   0.00     0.06  -0.00  -0.02     0.00   0.19   0.13
  17   1    -0.00   0.01   0.01     0.04  -0.10  -0.09    -0.01  -0.06  -0.16
  18   1     0.01  -0.02  -0.01    -0.06   0.07   0.05     0.32   0.15  -0.08
  19   1    -0.02  -0.02   0.02     0.17   0.17  -0.12    -0.03  -0.01   0.14
  20   1     0.03  -0.00  -0.01    -0.18   0.04   0.01    -0.29   0.16  -0.11
  21   1     0.03   0.00   0.00    -0.11  -0.03  -0.02     0.15  -0.32  -0.07
  22   1     0.04   0.04  -0.01    -0.03  -0.06   0.01    -0.02  -0.06   0.01
  23   1     0.02  -0.01   0.00    -0.09   0.00   0.00     0.00  -0.00  -0.00
  24   1    -0.05   0.04  -0.00     0.06  -0.05   0.00    -0.01   0.01  -0.00
  25   1    -0.21   0.39  -0.04    -0.02   0.11  -0.01    -0.00  -0.02   0.00
  26   1     0.20   0.15  -0.03     0.00  -0.04   0.00     0.01   0.03  -0.00
  27   1    -0.13  -0.12   0.02    -0.10  -0.05   0.01     0.04   0.01  -0.00
  28   1    -0.32   0.34  -0.03     0.01  -0.01   0.00    -0.02   0.02  -0.00
                     40                     41                     42
                        a                      a                      a 
 Frequencies --  1135.7959              1160.5407              1177.4444
 Red. masses --     6.1570                 3.4280                 2.6167
 Frc consts  --     0.0000                 0.0000                 0.0000
 IR Inten    --     4.2903                 0.9784                 2.4457
 Raman Activ --     0.0000                 0.0000                 0.0000
 Depolar     --     0.0000                 0.0000                 0.0000
 Atom AN      X      Y      Z        X      Y      Z        X      Y      Z
   1   7     0.03  -0.00   0.01    -0.01   0.01   0.00    -0.01   0.00   0.00
   2   6    -0.09   0.01  -0.01     0.02  -0.03   0.01     0.02  -0.01  -0.00
   3   6     0.15  -0.02  -0.01    -0.03   0.04  -0.01    -0.03  -0.00   0.00
   4   8    -0.08   0.07  -0.00     0.08   0.00   0.00     0.00  -0.01   0.00
   5   6     0.15  -0.14   0.01    -0.17   0.11  -0.00    -0.11   0.11  -0.01
   6   6    -0.34   0.04   0.01     0.00  -0.14   0.01    -0.02  -0.06   0.01
   7   6    -0.11   0.18  -0.02    -0.05   0.10  -0.01     0.05   0.02  -0.00
   8   6     0.37   0.03  -0.02     0.03  -0.05   0.00    -0.02   0.08  -0.01
   9   6    -0.14  -0.07   0.01     0.08  -0.05   0.00    -0.04  -0.15   0.02
  10   6     0.11   0.08  -0.01    -0.05  -0.17   0.02    -0.04  -0.00   0.00
  11   6     0.03   0.02  -0.00     0.01   0.08  -0.01    -0.10  -0.09   0.02
  12   6    -0.08  -0.04   0.01     0.13  -0.03  -0.00     0.09   0.08  -0.01
  13   6     0.11   0.05  -0.01    -0.22  -0.00   0.01     0.08   0.04  -0.01
  14   6    -0.01  -0.06   0.01     0.01   0.14  -0.02     0.19  -0.05  -0.00
  15   1    -0.01  -0.03  -0.03     0.00   0.01   0.02     0.00   0.01   0.01
  16   1    -0.02   0.01   0.01     0.01  -0.01  -0.01     0.00  -0.00  -0.00
  17   1    -0.01   0.02   0.01     0.01  -0.01  -0.00     0.01  -0.01  -0.00
  18   1     0.02  -0.01  -0.01    -0.02  -0.00   0.01    -0.01  -0.00   0.00
  19   1    -0.04  -0.04   0.03     0.01  -0.00  -0.02     0.01   0.01  -0.01
  20   1    -0.02  -0.02   0.01     0.04   0.00   0.00     0.05   0.01  -0.01
  21   1    -0.01  -0.02  -0.01     0.00   0.01  -0.00     0.02   0.01   0.00
  22   1    -0.22  -0.23   0.04    -0.00  -0.04   0.01     0.04   0.09  -0.01
  23   1    -0.14   0.05  -0.00    -0.27   0.01   0.01    -0.15  -0.01   0.01
  24   1     0.41  -0.41   0.03     0.20  -0.28   0.02     0.01   0.00  -0.00
  25   1    -0.03   0.10  -0.01     0.17  -0.31   0.03    -0.23   0.30  -0.03
  26   1    -0.04  -0.10   0.01     0.15   0.33  -0.05    -0.28  -0.55   0.08
  27   1    -0.18  -0.02   0.01     0.48   0.03  -0.02     0.47   0.06  -0.03
  28   1    -0.01   0.07  -0.01    -0.21   0.21  -0.02    -0.13   0.23  -0.02
                     43                     44                     45
                        a                      a                      a 
 Frequencies --  1204.7832              1217.2382              1222.9470
 Red. masses --     3.9428                 2.9551                 6.4075
 Frc consts  --     0.0000                 0.0000                 0.0000
 IR Inten    --     0.4377                10.5497                 7.5542
 Raman Activ --     0.0000                 0.0000                 0.0000
 Depolar     --     0.0000                 0.0000                 0.0000
 Atom AN      X      Y      Z        X      Y      Z        X      Y      Z
   1   7     0.00   0.01  -0.01    -0.04   0.10  -0.15    -0.05   0.04  -0.05
   2   6    -0.04  -0.01   0.02     0.00  -0.13   0.26     0.04  -0.04   0.06
   3   6     0.08   0.07  -0.02     0.11   0.05   0.03     0.06   0.03   0.00
   4   8     0.04  -0.00  -0.01    -0.03  -0.01  -0.13    -0.04  -0.04  -0.00
   5   6     0.10  -0.15   0.01     0.03  -0.04   0.00    -0.12   0.19  -0.01
   6   6    -0.04   0.01   0.00     0.02   0.04   0.01    -0.07  -0.12   0.02
   7   6    -0.03   0.05  -0.00    -0.02  -0.04   0.01     0.07   0.19  -0.02
   8   6     0.11  -0.05   0.00    -0.03  -0.02   0.00     0.14   0.05  -0.01
   9   6    -0.04   0.09  -0.01    -0.05   0.06  -0.00     0.33  -0.39   0.03
  10   6     0.07  -0.06   0.00     0.02   0.00  -0.00    -0.10  -0.05   0.01
  11   6     0.02   0.02  -0.00     0.03   0.00  -0.00    -0.19  -0.02   0.01
  12   6     0.01  -0.11   0.01    -0.01   0.00   0.00     0.04   0.02  -0.00
  13   6    -0.06   0.00   0.00     0.01  -0.02   0.00    -0.04   0.10  -0.01
  14   6    -0.34   0.21  -0.01    -0.00   0.01  -0.00     0.08  -0.07   0.00
  15   1    -0.01  -0.01  -0.00    -0.02   0.01   0.10    -0.00   0.03   0.06
  16   1    -0.00  -0.01  -0.01     0.01  -0.14  -0.12     0.02  -0.05  -0.05
  17   1     0.00   0.00   0.00     0.02   0.02   0.10     0.01  -0.01   0.02
  18   1    -0.01  -0.00   0.01    -0.05   0.19   0.19     0.01   0.13   0.08
  19   1    -0.03  -0.03  -0.00    -0.05  -0.13  -0.13    -0.06  -0.15  -0.11
  20   1    -0.10  -0.02   0.03    -0.58  -0.02   0.03    -0.02  -0.01   0.02
  21   1    -0.03  -0.02  -0.02     0.55   0.03  -0.05     0.04  -0.01  -0.01
  22   1    -0.22  -0.42   0.06     0.06   0.11  -0.06    -0.15  -0.29   0.04
  23   1     0.50   0.05  -0.03    -0.05  -0.01   0.01    -0.12   0.05   0.00
  24   1    -0.12   0.20  -0.02     0.02  -0.05   0.00    -0.10   0.23  -0.02
  25   1    -0.00   0.02  -0.00     0.03  -0.04   0.00    -0.22   0.26  -0.02
  26   1    -0.03  -0.08   0.01    -0.02  -0.05   0.01     0.08   0.29  -0.04
  27   1     0.41   0.00  -0.02     0.01   0.00  -0.00    -0.06   0.00   0.00
  28   1    -0.06   0.06  -0.00    -0.02   0.03  -0.00     0.12  -0.16   0.02
                     46                     47                     48
                        a                      a                      a 
 Frequencies --  1237.3555              1244.0925              1256.7400
 Red. masses --     3.0434                 7.1545                 4.9230
 Frc consts  --     0.0000                 0.0000                 0.0000
 IR Inten    --    24.6480                51.4492                12.3064
 Raman Activ --     0.0000                 0.0000                 0.0000
 Depolar     --     0.0000                 0.0000                 0.0000
 Atom AN      X      Y      Z        X      Y      Z        X      Y      Z
   1   7    -0.17   0.09  -0.09     0.05  -0.02   0.03     0.00  -0.00   0.00
   2   6     0.16   0.00  -0.01    -0.05  -0.04   0.02     0.00  -0.00   0.00
   3   6    -0.02  -0.16   0.08    -0.03   0.09  -0.03    -0.00   0.02  -0.01
   4   8    -0.02   0.09   0.03     0.16   0.06  -0.04    -0.04  -0.06   0.01
   5   6    -0.07   0.04  -0.00    -0.39   0.08   0.01     0.15   0.03  -0.01
   6   6    -0.02  -0.08   0.01    -0.16  -0.29   0.04    -0.01   0.15  -0.02
   7   6     0.05  -0.04   0.00     0.16   0.09  -0.02     0.03  -0.00  -0.00
   8   6    -0.07   0.05  -0.00    -0.11   0.19  -0.02     0.15   0.05  -0.01
   9   6    -0.09   0.10  -0.01     0.01  -0.04   0.00    -0.18  -0.26   0.04
  10   6     0.00   0.07  -0.01    -0.06   0.14  -0.01     0.04  -0.00  -0.00
  11   6     0.05  -0.02  -0.00    -0.00  -0.08   0.01    -0.02   0.10  -0.01
  12   6     0.04   0.02  -0.00     0.13   0.06  -0.01     0.07   0.10  -0.01
  13   6     0.00  -0.01   0.00    -0.04   0.05  -0.00     0.16   0.07  -0.01
  14   6     0.05  -0.08   0.01     0.18  -0.24   0.02    -0.13  -0.31   0.04
  15   1     0.00   0.11   0.14    -0.00  -0.04  -0.04    -0.00  -0.00  -0.00
  16   1     0.06  -0.08  -0.09    -0.02   0.01   0.02     0.00   0.00   0.00
  17   1     0.05  -0.05   0.01    -0.01   0.01  -0.01     0.00  -0.00  -0.00
  18   1     0.17   0.43   0.19    -0.08  -0.15  -0.06    -0.01  -0.02  -0.01
  19   1    -0.15  -0.40  -0.30     0.06   0.15   0.10     0.01   0.02   0.01
  20   1     0.31   0.01  -0.02    -0.07   0.00   0.01    -0.02  -0.01   0.01
  21   1    -0.18  -0.07   0.02     0.19   0.04  -0.02     0.00  -0.01  -0.01
  22   1    -0.01  -0.03   0.03    -0.06  -0.10   0.00    -0.05  -0.06   0.01
  23   1     0.20   0.00  -0.01     0.47   0.06  -0.03    -0.18  -0.01   0.01
  24   1     0.05  -0.08   0.01     0.07  -0.09   0.01    -0.21   0.37  -0.03
  25   1     0.11  -0.13   0.01     0.11  -0.14   0.01     0.19  -0.27   0.02
  26   1    -0.03  -0.10   0.01    -0.01  -0.04   0.00    -0.01   0.02  -0.00
  27   1    -0.08  -0.00   0.00    -0.19  -0.00   0.01    -0.14   0.02   0.00
  28   1    -0.07   0.09  -0.01    -0.08   0.11  -0.01    -0.27   0.47  -0.05
                     49                     50                     51
                        a                      a                      a 
 Frequencies --  1296.9371              1315.6636              1340.4893
 Red. masses --     7.6882                 4.5857                 3.8846
 Frc consts  --     0.0000                 0.0000                 0.0000
 IR Inten    --   133.5547                24.4434                 9.9645
 Raman Activ --     0.0000                 0.0000                 0.0000
 Depolar     --     0.0000                 0.0000                 0.0000
 Atom AN      X      Y      Z        X      Y      Z        X      Y      Z
   1   7    -0.02  -0.01   0.04    -0.09   0.04   0.12    -0.07   0.00   0.08
   2   6     0.03   0.10   0.04     0.17   0.33   0.06     0.20   0.17   0.07
   3   6     0.20   0.12  -0.05     0.10  -0.05  -0.05    -0.29  -0.13  -0.01
   4   8    -0.16  -0.27   0.04     0.15   0.06  -0.01    -0.14   0.09  -0.02
   5   6     0.09   0.48  -0.06    -0.11  -0.24   0.03     0.07   0.09  -0.01
   6   6     0.13  -0.02  -0.01    -0.07  -0.02   0.00     0.05   0.04  -0.01
   7   6     0.13  -0.17   0.01    -0.04   0.08  -0.01    -0.01  -0.04   0.01
   8   6    -0.14  -0.01   0.01     0.03   0.04  -0.01     0.02  -0.07   0.01
   9   6    -0.07   0.10  -0.01     0.04  -0.07   0.01    -0.01   0.07  -0.01
  10   6    -0.07   0.15  -0.01     0.03  -0.06   0.01    -0.01  -0.00   0.00
  11   6     0.07  -0.04   0.00    -0.05   0.00   0.00     0.03   0.03  -0.00
  12   6     0.09  -0.04   0.00    -0.02   0.03  -0.00    -0.02  -0.01   0.00
  13   6    -0.08  -0.04   0.01     0.04   0.03  -0.01     0.00  -0.04   0.00
  14   6     0.09   0.05  -0.01    -0.02  -0.06   0.01     0.00   0.05  -0.01
  15   1    -0.00   0.01  -0.03    -0.04  -0.02  -0.08    -0.01   0.02  -0.05
  16   1     0.01  -0.00   0.01     0.06  -0.06  -0.02     0.06  -0.02  -0.01
  17   1    -0.00  -0.01  -0.04     0.07  -0.12  -0.14     0.03  -0.06  -0.07
  18   1    -0.09  -0.17  -0.08    -0.18  -0.34  -0.16    -0.18  -0.32  -0.13
  19   1    -0.08  -0.15  -0.05    -0.20  -0.41  -0.14    -0.06  -0.17  -0.10
  20   1    -0.27  -0.04   0.05    -0.27  -0.03   0.01     0.38  -0.06   0.02
  21   1    -0.25  -0.02  -0.00    -0.23   0.02   0.04     0.58   0.00  -0.07
  22   1    -0.11  -0.32   0.04     0.11   0.25  -0.04    -0.09  -0.19   0.02
  23   1    -0.13  -0.06   0.01     0.07   0.03  -0.01    -0.05  -0.01   0.00
  24   1     0.02  -0.09   0.01     0.00   0.02  -0.00    -0.01   0.00  -0.00
  25   1     0.09  -0.12   0.01    -0.04   0.05  -0.01     0.00  -0.01   0.00
  26   1    -0.05  -0.17   0.02     0.03   0.08  -0.01    -0.02  -0.04   0.01
  27   1    -0.08  -0.02   0.01     0.02   0.01  -0.00    -0.02  -0.01   0.00
  28   1     0.03  -0.08   0.01    -0.03   0.06  -0.00     0.02  -0.03   0.00
                     52                     53                     54
                        a                      a                      a 
 Frequencies --  1375.0970              1384.5596              1397.3159
 Red. masses --     7.7212                 4.5789                11.4467
 Frc consts  --     0.0000                 0.0000                 0.0000
 IR Inten    --   155.6879               139.8100                 9.9669
 Raman Activ --     0.0000                 0.0000                 0.0000
 Depolar     --     0.0000                 0.0000                 0.0000
 Atom AN      X      Y      Z        X      Y      Z        X      Y      Z
   1   7     0.01  -0.15  -0.09    -0.03   0.27   0.18    -0.01   0.02   0.02
   2   6     0.05   0.05   0.02    -0.06  -0.08  -0.01     0.00   0.00   0.00
   3   6    -0.03  -0.04  -0.01    -0.02   0.02   0.02    -0.03  -0.03   0.01
   4   8    -0.14  -0.08   0.02    -0.09  -0.06   0.01    -0.03   0.00   0.00
   5   6     0.33   0.17  -0.04     0.17   0.12  -0.02     0.24  -0.12   0.00
   6   6    -0.07  -0.13   0.02    -0.02  -0.04   0.00    -0.05   0.05  -0.00
   7   6     0.00  -0.08   0.01     0.03  -0.07   0.01    -0.03   0.02  -0.00
   8   6    -0.08   0.31  -0.03    -0.06   0.17  -0.02     0.01  -0.05   0.01
   9   6    -0.24  -0.19   0.03    -0.17  -0.10   0.02     0.37   0.03  -0.02
  10   6     0.20   0.02  -0.01     0.13  -0.00  -0.01    -0.24   0.37  -0.03
  11   6    -0.06  -0.18   0.02    -0.03  -0.10   0.01    -0.04  -0.26   0.03
  12   6    -0.11  -0.02   0.01    -0.09  -0.00   0.00     0.36  -0.09  -0.01
  13   6    -0.01   0.23  -0.03     0.02   0.11  -0.01    -0.29   0.32  -0.02
  14   6    -0.04  -0.11   0.02     0.02  -0.05   0.00    -0.31  -0.20   0.04
  15   1     0.11   0.21   0.12    -0.19  -0.37  -0.26    -0.01  -0.03  -0.04
  16   1    -0.02   0.17   0.08     0.09  -0.30  -0.15     0.02  -0.03  -0.01
  17   1    -0.16   0.17   0.15     0.29  -0.30  -0.25     0.02  -0.02  -0.01
  18   1    -0.06  -0.07  -0.03     0.12   0.06   0.02     0.02  -0.00  -0.00
  19   1    -0.03  -0.06  -0.01     0.07   0.14  -0.03     0.01   0.01  -0.01
  20   1     0.01   0.02  -0.02     0.04   0.01   0.00     0.02   0.01  -0.01
  21   1     0.05   0.04   0.01     0.02  -0.01  -0.01     0.02   0.01   0.01
  22   1     0.09   0.16  -0.02     0.03   0.04  -0.00     0.04   0.11  -0.01
  23   1     0.19  -0.01  -0.01     0.08  -0.01  -0.00    -0.05   0.00   0.00
  24   1     0.08  -0.06   0.00     0.04  -0.03   0.00     0.04  -0.06   0.00
  25   1     0.03   0.04  -0.01     0.02   0.03  -0.00     0.05  -0.06   0.00
  26   1     0.11   0.21  -0.03     0.06   0.12  -0.02    -0.03  -0.11   0.01
  27   1     0.23   0.02  -0.01     0.13   0.01  -0.01     0.02  -0.03   0.00
  28   1     0.10  -0.07   0.00     0.07  -0.06   0.00    -0.00  -0.03   0.00
                     55                     56                     57
                        a                      a                      a 
 Frequencies --  1424.1610              1426.2603              1433.8281
 Red. masses --     8.5335                 1.7586                 2.9432
 Frc consts  --     0.0000                 0.0000                 0.0000
 IR Inten    --     2.6115                90.3154               155.4564
 Raman Activ --     0.0000                 0.0000                 0.0000
 Depolar     --     0.0000                 0.0000                 0.0000
 Atom AN      X      Y      Z        X      Y      Z        X      Y      Z
   1   7    -0.01   0.00  -0.01    -0.11   0.03  -0.20     0.15   0.07  -0.08
   2   6     0.00   0.01  -0.00     0.02   0.04  -0.04     0.05   0.04  -0.03
   3   6    -0.00  -0.04   0.01    -0.00  -0.02  -0.00    -0.01   0.04  -0.00
   4   8     0.00   0.05  -0.01    -0.00  -0.01   0.00     0.03   0.04  -0.01
   5   6     0.01  -0.15   0.02     0.00   0.02  -0.00    -0.08  -0.11   0.02
   6   6    -0.21  -0.10   0.02     0.01   0.00   0.00    -0.00   0.12  -0.01
   7   6     0.17   0.19  -0.03    -0.01  -0.01   0.00     0.12  -0.04  -0.00
   8   6     0.12  -0.09   0.00    -0.01   0.00  -0.00    -0.05  -0.03   0.01
   9   6    -0.25  -0.27   0.04     0.02   0.02  -0.00    -0.07   0.08  -0.01
  10   6    -0.12   0.21  -0.02     0.00  -0.01   0.00     0.04   0.08  -0.01
  11   6     0.23   0.11  -0.02    -0.01  -0.00   0.00     0.01  -0.14   0.02
  12   6    -0.09  -0.21   0.03     0.01   0.01  -0.00    -0.08   0.01   0.00
  13   6    -0.19   0.13  -0.01     0.01  -0.01   0.00    -0.00   0.11  -0.01
  14   6     0.29   0.24  -0.04    -0.02  -0.01   0.00     0.07  -0.11   0.01
  15   1    -0.01  -0.01  -0.01    -0.16  -0.32   0.20    -0.09  -0.24   0.49
  16   1     0.03   0.02   0.00     0.21   0.44   0.14    -0.60   0.03   0.11
  17   1     0.02  -0.02   0.03     0.42  -0.30   0.47     0.04  -0.06  -0.26
  18   1     0.00  -0.00  -0.00    -0.08  -0.02  -0.01    -0.06  -0.01  -0.00
  19   1    -0.00  -0.01  -0.00    -0.02  -0.03   0.09    -0.02  -0.06   0.03
  20   1    -0.00   0.04  -0.04    -0.01   0.03  -0.03     0.03  -0.09   0.09
  21   1     0.00   0.05   0.03    -0.01   0.03   0.02    -0.00  -0.12  -0.06
  22   1     0.00   0.10  -0.01    -0.00  -0.01   0.00    -0.05  -0.07   0.01
  23   1    -0.10   0.05  -0.00     0.01  -0.00   0.00    -0.09  -0.02   0.01
  24   1    -0.14   0.22  -0.02     0.01  -0.01   0.00    -0.03   0.01   0.00
  25   1     0.18  -0.25   0.02    -0.01   0.01  -0.00     0.02   0.01  -0.00
  26   1    -0.03  -0.17   0.02    -0.00   0.01  -0.00     0.05   0.06  -0.01
  27   1     0.09  -0.05   0.00    -0.01   0.00  -0.00     0.10   0.01  -0.01
  28   1     0.15  -0.25   0.02    -0.01   0.01   0.00     0.05  -0.03   0.00
                     58                     59                     60
                        a                      a                      a 
 Frequencies --  1439.8931              1460.2064              1468.6755
 Red. masses --     7.8239                 2.0528                 2.1303
 Frc consts  --     0.0000                 0.0000                 0.0000
 IR Inten    --    17.8570                 8.4354                 2.5370
 Raman Activ --     0.0000                 0.0000                 0.0000
 Depolar     --     0.0000                 0.0000                 0.0000
 Atom AN      X      Y      Z        X      Y      Z        X      Y      Z
   1   7    -0.07  -0.05   0.02    -0.01  -0.02  -0.02     0.02   0.02   0.02
   2   6    -0.01  -0.01  -0.02    -0.18   0.01   0.21     0.05  -0.02  -0.03
   3   6     0.03   0.05  -0.01     0.01  -0.02   0.00    -0.02  -0.24   0.02
   4   8     0.10   0.07  -0.01     0.04   0.01  -0.01     0.03  -0.03   0.00
   5   6    -0.23  -0.22   0.04    -0.06  -0.03   0.01    -0.03   0.02  -0.00
   6   6     0.01   0.27  -0.03    -0.00   0.04  -0.00     0.01   0.05  -0.01
   7   6     0.25  -0.07  -0.00     0.04  -0.00  -0.00     0.02  -0.02   0.00
   8   6    -0.10  -0.09   0.01    -0.01  -0.03   0.00     0.01  -0.06   0.01
   9   6    -0.13   0.22  -0.02    -0.01   0.05  -0.01    -0.02   0.10  -0.01
  10   6     0.09   0.13  -0.02     0.01   0.01  -0.00     0.02   0.02  -0.00
  11   6    -0.00  -0.29   0.03    -0.00  -0.04   0.00    -0.01  -0.07   0.01
  12   6    -0.17   0.05   0.00    -0.03   0.01  -0.00    -0.04   0.03  -0.00
  13   6     0.03   0.18  -0.02     0.01   0.01  -0.00     0.03   0.01  -0.00
  14   6     0.14  -0.25   0.02     0.02  -0.04   0.00     0.01  -0.07   0.01
  15   1     0.05   0.14  -0.23     0.00   0.01   0.09    -0.01  -0.02   0.03
  16   1     0.29   0.01  -0.05    -0.03   0.09   0.05    -0.08  -0.06  -0.01
  17   1    -0.03   0.04   0.14     0.01  -0.00   0.07    -0.01   0.00  -0.08
  18   1    -0.04   0.04   0.03     0.55  -0.29  -0.19    -0.11   0.03   0.03
  19   1    -0.01  -0.00   0.07     0.07   0.18  -0.63    -0.01  -0.04   0.10
  20   1    -0.00  -0.07   0.06    -0.03   0.07  -0.06    -0.06   0.46  -0.43
  21   1    -0.01  -0.08  -0.05     0.00   0.10   0.05     0.01   0.56   0.32
  22   1    -0.13  -0.19   0.03    -0.03  -0.05   0.01    -0.07  -0.14   0.02
  23   1    -0.20  -0.04   0.01    -0.03  -0.00   0.00    -0.03  -0.01   0.00
  24   1    -0.06   0.01   0.00    -0.01   0.01   0.00    -0.01   0.00   0.00
  25   1     0.03   0.04  -0.01     0.00   0.01  -0.00    -0.00   0.02  -0.00
  26   1     0.11   0.14  -0.02     0.01   0.02  -0.00     0.02   0.03  -0.00
  27   1     0.20   0.04  -0.01     0.02   0.01  -0.00     0.03   0.01  -0.00
  28   1     0.07  -0.04   0.00     0.00   0.01   0.00     0.00   0.01  -0.00
                     61                     62                     63
                        a                      a                      a 
 Frequencies --  1530.7633              1547.7768              1576.4048
 Red. masses --    11.1660                10.9724                11.6035
 Frc consts  --     0.0000                 0.0000                 0.0000
 IR Inten    --    11.5228                19.4247                20.4767
 Raman Activ --     0.0000                 0.0000                 0.0000
 Depolar     --     0.0000                 0.0000                 0.0000
 Atom AN      X      Y      Z        X      Y      Z        X      Y      Z
   1   7    -0.00   0.00   0.00    -0.00  -0.00  -0.00     0.00   0.00   0.00
   2   6     0.00  -0.01  -0.00    -0.00  -0.00   0.00     0.00  -0.00  -0.00
   3   6     0.01   0.03  -0.00     0.00  -0.01   0.00    -0.01  -0.00   0.00
   4   8    -0.02  -0.06   0.01     0.04   0.02  -0.00    -0.02  -0.01   0.00
   5   6    -0.09   0.31  -0.03    -0.12  -0.11   0.02     0.15   0.06  -0.01
   6   6     0.10  -0.18   0.02     0.25   0.30  -0.05    -0.29  -0.22   0.04
   7   6    -0.43   0.12   0.01    -0.20  -0.22   0.03     0.45   0.11  -0.03
   8   6     0.35  -0.32   0.02    -0.12   0.34  -0.03    -0.20   0.02   0.01
   9   6     0.04   0.21  -0.03     0.24  -0.30   0.02     0.32   0.09  -0.02
  10   6    -0.10   0.13  -0.01    -0.19  -0.02   0.01    -0.15   0.04   0.00
  11   6     0.16  -0.04  -0.00     0.24   0.31  -0.05     0.19   0.10  -0.02
  12   6    -0.32  -0.03   0.02    -0.28  -0.16   0.03    -0.42  -0.00   0.02
  13   6     0.12   0.12  -0.02     0.03   0.17  -0.02     0.28  -0.14   0.00
  14   6     0.06  -0.32   0.03     0.01  -0.15   0.02    -0.30  -0.06   0.02
  15   1    -0.00  -0.01  -0.00     0.00   0.01   0.00    -0.00  -0.00  -0.00
  16   1     0.00  -0.00  -0.00     0.00   0.00   0.00    -0.00  -0.00  -0.00
  17   1     0.00  -0.00  -0.00    -0.00   0.00   0.00     0.00  -0.00  -0.00
  18   1    -0.00   0.00   0.00     0.00  -0.00  -0.00    -0.00   0.00   0.00
  19   1     0.00   0.00   0.01    -0.00  -0.00  -0.01     0.00   0.00   0.00
  20   1    -0.01  -0.03   0.03    -0.00   0.02  -0.02     0.00  -0.00   0.00
  21   1    -0.01  -0.03  -0.02    -0.00   0.02   0.01     0.00  -0.00  -0.00
  22   1     0.10   0.10  -0.02    -0.03  -0.13   0.02    -0.01   0.07  -0.01
  23   1     0.11   0.05  -0.01     0.08  -0.05   0.00    -0.11   0.01   0.00
  24   1    -0.03   0.10  -0.01     0.11  -0.12   0.01    -0.02  -0.04   0.01
  25   1     0.03  -0.04   0.00     0.01  -0.10   0.01    -0.00  -0.04   0.00
  26   1     0.04  -0.01  -0.00    -0.03  -0.12   0.02     0.02  -0.03   0.00
  27   1     0.15   0.01  -0.01     0.08  -0.03  -0.00     0.09   0.02  -0.01
  28   1     0.07  -0.01  -0.00     0.07  -0.04   0.00    -0.01   0.08  -0.01
                     64                     65                     66
                        a                      a                      a 
 Frequencies --  1603.7473              2911.6343              2930.5640
 Red. masses --    11.5298                 1.9831                 1.4598
 Frc consts  --     0.0000                 0.0000                 0.0000
 IR Inten    --     0.3401                12.0307                18.0426
 Raman Activ --     0.0000                 0.0000                 0.0000
 Depolar     --     0.0000                 0.0000                 0.0000
 Atom AN      X      Y      Z        X      Y      Z        X      Y      Z
   1   7    -0.00  -0.00  -0.00     0.00  -0.00  -0.00     0.00   0.00   0.00
   2   6    -0.00   0.00   0.00    -0.00   0.01  -0.01    -0.02   0.01  -0.02
   3   6    -0.00  -0.00   0.00     0.02   0.04   0.29     0.00  -0.20   0.02
   4   8     0.00   0.01  -0.00     0.00   0.00   0.01     0.02  -0.01   0.00
   5   6    -0.03  -0.05   0.01    -0.00  -0.00  -0.00     0.00  -0.00   0.00
   6   6     0.11   0.08  -0.01    -0.00   0.00  -0.00    -0.01   0.00  -0.00
   7   6    -0.17  -0.04   0.01     0.00   0.00   0.00    -0.00  -0.00  -0.00
   8   6     0.05   0.07  -0.01    -0.00  -0.00  -0.00    -0.00  -0.00   0.00
   9   6     0.06  -0.28   0.03    -0.00  -0.00   0.00    -0.00  -0.00  -0.00
  10   6    -0.17   0.46  -0.05     0.00   0.00   0.00    -0.00  -0.00   0.00
  11   6    -0.04  -0.44   0.05    -0.00  -0.00   0.00     0.00  -0.00   0.00
  12   6    -0.15   0.19  -0.02     0.00   0.00  -0.00    -0.00  -0.00   0.00
  13   6     0.24  -0.37   0.03     0.00   0.00   0.00     0.00   0.00  -0.00
  14   6     0.01   0.35  -0.04     0.00  -0.00  -0.00    -0.00  -0.00   0.00
  15   1     0.00   0.00   0.00    -0.00  -0.00   0.00    -0.00   0.00   0.00
  16   1     0.00   0.00   0.00    -0.00  -0.00  -0.00    -0.00   0.00  -0.01
  17   1    -0.00   0.00   0.00     0.00  -0.00  -0.00    -0.00  -0.00   0.00
  18   1     0.00  -0.00  -0.00     0.01  -0.04   0.09     0.01  -0.04   0.08
  19   1    -0.00  -0.00  -0.00     0.00   0.00  -0.00     0.07  -0.03  -0.00
  20   1     0.00   0.00  -0.00     0.00  -0.47  -0.49    -0.00   0.44   0.53
  21   1     0.00   0.00   0.00    -0.08   0.34  -0.57    -0.08   0.30  -0.61
  22   1     0.01  -0.02   0.00     0.00  -0.00  -0.00     0.02  -0.01  -0.00
  23   1     0.05  -0.00  -0.00    -0.00  -0.00  -0.00    -0.00   0.00  -0.00
  24   1     0.03  -0.01  -0.00     0.00   0.00  -0.00     0.00   0.00  -0.00
  25   1     0.09  -0.07   0.00    -0.00  -0.00   0.00     0.00  -0.00  -0.00
  26   1     0.08   0.08  -0.01     0.00   0.00   0.00    -0.00   0.00   0.00
  27   1     0.04   0.06  -0.01     0.00   0.00   0.00    -0.00   0.00   0.00
  28   1    -0.06   0.08  -0.01    -0.00  -0.00   0.00    -0.00  -0.00   0.00
                     67                     68                     69
                        a                      a                      a 
 Frequencies --  2962.2492              2982.0312              3089.6143
 Red. masses --     1.9639                 1.5600                 1.7625
 Frc consts  --     0.0000                 0.0000                 0.0000
 IR Inten    --     0.8911                 1.2733                 6.7541
 Raman Activ --     0.0000                 0.0000                 0.0000
 Depolar     --     0.0000                 0.0000                 0.0000
 Atom AN      X      Y      Z        X      Y      Z        X      Y      Z
   1   7    -0.00   0.00  -0.00    -0.00  -0.00   0.00     0.00  -0.00   0.00
   2   6     0.22  -0.16   0.12     0.09   0.04  -0.20     0.00  -0.00  -0.00
   3   6     0.01  -0.03   0.02     0.00   0.01  -0.03    -0.00   0.00   0.00
   4   8     0.00  -0.00   0.00    -0.00   0.00   0.00     0.00   0.00  -0.00
   5   6     0.00  -0.00   0.00     0.00   0.00  -0.00    -0.00  -0.00   0.00
   6   6    -0.00   0.00  -0.00     0.00  -0.00   0.00    -0.00  -0.00   0.00
   7   6    -0.00   0.00   0.00     0.00  -0.00  -0.00     0.00  -0.00   0.00
   8   6    -0.00   0.00  -0.00    -0.00   0.00   0.00     0.00   0.00  -0.00
   9   6    -0.00  -0.00  -0.00    -0.00  -0.00   0.00    -0.00  -0.00   0.00
  10   6     0.00   0.00  -0.00    -0.00  -0.00   0.00    -0.03  -0.02   0.00
  11   6     0.00  -0.00  -0.00    -0.00  -0.00  -0.00     0.17  -0.08   0.00
  12   6     0.00   0.00  -0.00    -0.00   0.00   0.00    -0.02   0.17  -0.02
  13   6     0.00   0.00  -0.00     0.00   0.00  -0.00    -0.05  -0.03   0.01
  14   6     0.00   0.00  -0.00    -0.00  -0.00   0.00    -0.00  -0.00   0.00
  15   1     0.02  -0.01  -0.00     0.01  -0.01  -0.00    -0.00   0.00  -0.00
  16   1     0.00  -0.01   0.01    -0.00   0.01  -0.02     0.00   0.00  -0.00
  17   1    -0.00  -0.00  -0.00     0.00   0.00  -0.00     0.00   0.00   0.00
  18   1    -0.04   0.20  -0.42     0.12  -0.37   0.74     0.00   0.00   0.00
  19   1    -0.74   0.36   0.01    -0.44   0.23  -0.02    -0.00   0.00  -0.00
  20   1     0.00   0.03   0.04     0.00   0.02   0.02    -0.00   0.00   0.00
  21   1    -0.01   0.05  -0.10     0.01  -0.04   0.07    -0.00   0.00  -0.00
  22   1     0.00  -0.00  -0.00    -0.00   0.00   0.00     0.00  -0.00  -0.00
  23   1    -0.00  -0.00   0.00    -0.00   0.00  -0.00    -0.00   0.02  -0.00
  24   1     0.00   0.00  -0.00    -0.00  -0.00  -0.00    -0.01  -0.01   0.00
  25   1    -0.00  -0.00  -0.00     0.00   0.00  -0.00     0.13   0.09  -0.02
  26   1    -0.00   0.00  -0.00     0.00  -0.00   0.00    -0.61   0.29  -0.01
  27   1     0.00  -0.00  -0.00     0.00  -0.00   0.00     0.06  -0.62   0.07
  28   1    -0.00  -0.00  -0.00    -0.00  -0.00   0.00     0.19   0.13  -0.02
                     70                     71                     72
                        a                      a                      a 
 Frequencies --  3092.7483              3097.3090              3108.1449
 Red. masses --     1.7985                 1.8182                 1.8669
 Frc consts  --     0.0000                 0.0000                 0.0000
 IR Inten    --    14.2622                23.2366                57.6436
 Raman Activ --     0.0000                 0.0000                 0.0000
 Depolar     --     0.0000                 0.0000                 0.0000
 Atom AN      X      Y      Z        X      Y      Z        X      Y      Z
   1   7    -0.00   0.00  -0.00    -0.00   0.00  -0.00     0.00  -0.00   0.00
   2   6     0.00  -0.00   0.00    -0.00   0.00   0.00     0.00  -0.00  -0.00
   3   6    -0.00   0.00  -0.00    -0.00   0.00  -0.00    -0.00   0.00   0.00
   4   8    -0.00  -0.00   0.00    -0.00  -0.00   0.00     0.00   0.00  -0.00
   5   6    -0.00   0.00  -0.00     0.00   0.00  -0.00    -0.00  -0.00   0.00
   6   6    -0.03   0.01  -0.00     0.00  -0.00   0.00     0.00  -0.00   0.00
   7   6     0.02  -0.26   0.03    -0.00   0.02  -0.00    -0.00   0.01  -0.00
   8   6     0.05   0.03  -0.01     0.00   0.00  -0.00     0.01   0.01  -0.00
   9   6     0.00   0.00  -0.00    -0.00  -0.00   0.00     0.00  -0.00   0.00
  10   6    -0.01  -0.01   0.00    -0.06  -0.04   0.01    -0.07  -0.05   0.01
  11   6     0.01  -0.00   0.00     0.15  -0.07   0.00     0.03  -0.01   0.00
  12   6     0.00  -0.01   0.00     0.02  -0.14   0.02     0.01  -0.14   0.02
  13   6     0.01   0.00  -0.00     0.11   0.08  -0.02    -0.18  -0.12   0.02
  14   6     0.00   0.00  -0.00     0.01   0.00  -0.00    -0.01   0.00   0.00
  15   1     0.00  -0.00   0.00     0.00  -0.00  -0.00    -0.01   0.00   0.00
  16   1     0.00   0.00  -0.00    -0.00  -0.00   0.00    -0.00   0.00  -0.00
  17   1    -0.00  -0.00   0.00     0.00   0.00  -0.00     0.00   0.00   0.00
  18   1    -0.00   0.00  -0.00    -0.00   0.00  -0.00     0.00  -0.00   0.00
  19   1    -0.00   0.00  -0.00     0.00  -0.00   0.00    -0.00   0.00  -0.00
  20   1     0.00  -0.00  -0.00     0.00  -0.00  -0.00    -0.00   0.00   0.00
  21   1     0.00  -0.00   0.00     0.00  -0.00   0.00    -0.00   0.00  -0.00
  22   1     0.13  -0.07   0.00    -0.01   0.01  -0.00    -0.02   0.01  -0.00
  23   1    -0.07   0.91  -0.10     0.01  -0.07   0.01     0.00  -0.02   0.00
  24   1    -0.20  -0.14   0.02    -0.01  -0.01   0.00    -0.04  -0.03   0.00
  25   1     0.02   0.02  -0.00     0.21   0.14  -0.03     0.24   0.16  -0.03
  26   1    -0.02   0.01  -0.00    -0.52   0.25  -0.01    -0.11   0.05  -0.00
  27   1    -0.00   0.05  -0.01    -0.05   0.51  -0.06    -0.04   0.47  -0.05
  28   1    -0.02  -0.02   0.00    -0.42  -0.29   0.06     0.63   0.43  -0.08
                     73                     74                     75
                        a                      a                      a 
 Frequencies --  3112.2750              3115.7382              3131.3772
 Red. masses --     1.8766                 1.8543                 1.8369
 Frc consts  --     0.0000                 0.0000                 0.0000
 IR Inten    --     9.6887                26.9414                52.2366
 Raman Activ --     0.0000                 0.0000                 0.0000
 Depolar     --     0.0000                 0.0000                 0.0000
 Atom AN      X      Y      Z        X      Y      Z        X      Y      Z
   1   7     0.00   0.00  -0.00    -0.00  -0.00  -0.00     0.00  -0.00   0.00
   2   6     0.00  -0.00   0.00    -0.00   0.00  -0.00    -0.00   0.00  -0.00
   3   6     0.00  -0.00   0.00     0.00  -0.00   0.00     0.00  -0.00   0.00
   4   8    -0.00  -0.00   0.00    -0.00  -0.00   0.00     0.00  -0.00   0.00
   5   6     0.00  -0.00  -0.00     0.00   0.00  -0.00     0.01   0.00  -0.00
   6   6     0.01  -0.01   0.00     0.02  -0.02   0.00     0.24  -0.12   0.00
   7   6    -0.00   0.05  -0.01    -0.00   0.05  -0.01     0.01  -0.06   0.01
   8   6     0.14   0.09  -0.02     0.17   0.12  -0.02    -0.02  -0.01   0.00
   9   6     0.00  -0.01   0.00     0.01   0.00  -0.00    -0.00   0.00   0.00
  10   6    -0.16  -0.11   0.02     0.13   0.09  -0.02    -0.00  -0.00   0.00
  11   6    -0.08   0.04  -0.00     0.05  -0.02   0.00    -0.00   0.00  -0.00
  12   6    -0.00   0.05  -0.01     0.00  -0.03   0.00    -0.00   0.00  -0.00
  13   6     0.03   0.02  -0.00    -0.02  -0.01   0.00     0.00   0.00  -0.00
  14   6     0.00   0.00  -0.00    -0.00  -0.00   0.00    -0.00  -0.00   0.00
  15   1     0.00  -0.00   0.00    -0.00  -0.00  -0.00    -0.01   0.00   0.00
  16   1     0.00  -0.00   0.00    -0.00  -0.00   0.00    -0.00   0.00  -0.00
  17   1    -0.00  -0.00   0.00     0.00   0.00  -0.00    -0.00  -0.00   0.00
  18   1    -0.00   0.00  -0.00     0.00  -0.00   0.00     0.00   0.00  -0.00
  19   1    -0.00   0.00  -0.00     0.00  -0.00   0.00    -0.00   0.00   0.00
  20   1    -0.00   0.00   0.00    -0.00   0.00   0.00    -0.00   0.01   0.01
  21   1    -0.00   0.00  -0.00    -0.00   0.00  -0.00    -0.00   0.01  -0.01
  22   1    -0.05   0.03  -0.00    -0.10   0.05  -0.00    -0.84   0.42  -0.01
  23   1     0.01  -0.15   0.02     0.01  -0.16   0.02    -0.01   0.17  -0.02
  24   1    -0.47  -0.33   0.06    -0.59  -0.42   0.07     0.07   0.05  -0.01
  25   1     0.54   0.37  -0.07    -0.46  -0.31   0.06     0.02   0.01  -0.00
  26   1     0.25  -0.12   0.00    -0.16   0.08  -0.00     0.01  -0.00   0.00
  27   1     0.02  -0.17   0.02    -0.01   0.09  -0.01     0.00  -0.01   0.00
  28   1    -0.11  -0.08   0.01     0.06   0.04  -0.01    -0.01  -0.01   0.00
                     76                     77                     78
                        a                      a                      a 
 Frequencies --  3191.9234              3205.6159              3224.9049
 Red. masses --     1.9531                 2.0355                 1.3735
 Frc consts  --     0.0000                 0.0000                 0.0000
 IR Inten    --    77.3200                96.0610                40.9407
 Raman Activ --     0.0000                 0.0000                 0.0000
 Depolar     --     0.0000                 0.0000                 0.0000
 Atom AN      X      Y      Z        X      Y      Z        X      Y      Z
   1   7     0.19   0.17  -0.08     0.18  -0.14   0.17     0.10  -0.05  -0.12
   2   6     0.00   0.00  -0.00     0.01  -0.01   0.01     0.00  -0.01  -0.01
   3   6    -0.00   0.00   0.00    -0.00   0.00  -0.00    -0.00  -0.00   0.00
   4   8    -0.00  -0.00  -0.00    -0.00  -0.00  -0.00    -0.00  -0.00  -0.00
   5   6     0.00   0.00  -0.00     0.00   0.00   0.00    -0.00  -0.00  -0.00
   6   6    -0.00   0.00   0.00    -0.00   0.00  -0.00    -0.00   0.00   0.00
   7   6    -0.00   0.00  -0.00    -0.00   0.00   0.00    -0.00  -0.00  -0.00
   8   6     0.00   0.00  -0.00     0.00   0.00  -0.00     0.00   0.00   0.00
   9   6    -0.00  -0.00   0.00    -0.00  -0.00   0.00     0.00   0.00   0.00
  10   6     0.00   0.00  -0.00     0.00   0.00  -0.00    -0.00  -0.00   0.00
  11   6     0.00  -0.00  -0.00     0.00  -0.00   0.00     0.00  -0.00  -0.00
  12   6    -0.00  -0.00   0.00    -0.00   0.00  -0.00    -0.00   0.00   0.00
  13   6     0.00   0.00  -0.00     0.00   0.00  -0.00     0.00   0.00  -0.00
  14   6    -0.00  -0.00   0.00    -0.00   0.00  -0.00     0.00   0.00   0.00
  15   1    -0.14   0.09  -0.01    -0.56   0.25   0.02    -0.67   0.31  -0.01
  16   1     0.05  -0.06   0.15    -0.11   0.31  -0.66     0.11  -0.26   0.53
  17   1    -0.64  -0.67   0.15    -0.00  -0.03   0.02     0.18   0.18  -0.05
  18   1     0.00  -0.01   0.01    -0.00   0.01  -0.02     0.00  -0.01   0.01
  19   1    -0.01   0.00   0.00    -0.01   0.01  -0.00    -0.02   0.01   0.00
  20   1     0.00  -0.00  -0.00     0.00  -0.00  -0.00     0.00   0.00   0.00
  21   1     0.00  -0.00   0.00     0.00  -0.00   0.00    -0.00  -0.00  -0.00
  22   1     0.00  -0.00   0.00     0.01  -0.00  -0.00     0.00  -0.00   0.00
  23   1     0.00  -0.00   0.00     0.00  -0.00  -0.00    -0.00   0.00  -0.00
  24   1    -0.00  -0.00   0.00    -0.00  -0.00   0.00    -0.00  -0.00   0.00
  25   1    -0.00  -0.00   0.00    -0.00  -0.00   0.00    -0.00  -0.00   0.00
  26   1    -0.00   0.00   0.00    -0.00   0.00   0.00    -0.00   0.00   0.00
  27   1     0.00   0.00  -0.00     0.00  -0.00   0.00     0.00  -0.00   0.00
  28   1    -0.00  -0.00   0.00    -0.01  -0.00   0.00    -0.00  -0.00   0.00
