 Entering Gaussian System
 *********************************************
 Gaussian 98:
 frequency output generated by the xtb code
 *********************************************
                         Standard orientation:
 --------------------------------------------------------------------
  Center     Atomic     Atomic              Coordinates (Angstroms)
  Number     Number      Type              X           Y           Z
 --------------------------------------------------------------------
    1          7             0       -0.235163   -0.211200   -0.630639
    2          6             0        0.516060   -0.396122    0.645439
    3          6             0        2.025559   -0.480800    0.437434
    4          6             0        2.644254    0.824786   -0.063301
    5          6             0        4.155033    0.734978   -0.223976
    6         17             0       -3.701791   -0.188561   -0.007287
    7          1             0        0.013830    0.676928   -1.087051
    8          1             0       -1.259563   -0.203604   -0.475825
    9          1             0       -0.024630   -0.969222   -1.294348
   10          1             0        0.153877   -1.303049    1.146172
   11          1             0        0.283657    0.427151    1.331488
   12          1             0        2.251923   -1.286412   -0.270726
   13          1             0        2.518691   -0.775131    1.372833
   14          1             0        2.385651    1.637049    0.628399
   15          1             0        2.183902    1.108077   -1.017940
   16          1             0        4.586957    1.672155   -0.582319
   17          1             0        4.430877   -0.045985   -0.934975
   18          1             0        4.639686    0.492137    0.723513
 --------------------------------------------------------------------
     1 basis functions        1 primitive gaussians
     1 alpha electrons        1 beta electrons

 Harmonic frequencies (cm**-1), IR intensities (km*mol⁻¹),
 Raman scattering activities (A**4/amu), Raman depolarization ratios,
 reduced masses (AMU), force constants (mDyne/A) and normal coordinates:
                      1                      2                      3
                        a                      a                      a 
 Frequencies --  -124.2529                78.0911               107.3165
 Red. masses --    25.7985                12.8858                 8.4711
 Frc consts  --     0.0000                 0.0000                 0.0000
 IR Inten    --   129.2522                24.1334                 4.0777
 Raman Activ --     0.0000                 0.0000                 0.0000
 Depolar     --     0.0000                 0.0000                 0.0000
 Atom AN      X      Y      Z        X      Y      Z        X      Y      Z
   1   7     0.40  -0.03  -0.16     0.05  -0.51  -0.06    -0.10   0.07  -0.13
   2   6     0.19  -0.02  -0.04     0.06  -0.33  -0.04    -0.02   0.07  -0.16
   3   6     0.19   0.01   0.07     0.08  -0.09  -0.04    -0.03  -0.02  -0.19
   4   6     0.15   0.01   0.03    -0.16   0.04   0.01     0.03  -0.12  -0.37
   5   6     0.15   0.03   0.00    -0.14   0.37   0.08     0.14   0.06   0.51
   6  17    -0.78  -0.00   0.08     0.08   0.37   0.04    -0.01  -0.04   0.20
   7   1     0.13  -0.01  -0.03     0.15  -0.23  -0.12    -0.05   0.03  -0.03
   8   1     0.12   0.00  -0.08     0.02   0.05   0.01    -0.02  -0.00   0.00
   9   1     0.13  -0.01  -0.03    -0.12  -0.24   0.06    -0.03   0.03  -0.04
  10   1     0.04  -0.01  -0.02     0.05  -0.10   0.00    -0.01   0.03  -0.03
  11   1     0.03  -0.01  -0.02    -0.02  -0.09  -0.03     0.01   0.03  -0.05
  12   1     0.07  -0.01   0.03     0.06  -0.01  -0.02    -0.02  -0.04  -0.02
  13   1     0.05   0.02   0.03     0.03  -0.01  -0.01    -0.01   0.03  -0.04
  14   1     0.04   0.01   0.00    -0.11  -0.00  -0.00    -0.13   0.03  -0.23
  15   1     0.04  -0.01   0.01    -0.05  -0.01  -0.01     0.15  -0.16  -0.21
  16   1     0.04   0.01  -0.00    -0.09   0.13   0.02     0.05  -0.01   0.09
  17   1     0.04   0.01   0.00     0.02   0.12   0.03     0.19  -0.06   0.29
  18   1     0.05   0.01  -0.00    -0.04   0.14   0.03    -0.10   0.16   0.25
                      4                      5                      6
                        a                      a                      a 
 Frequencies --   123.2370               153.4127               248.1977
 Red. masses --    12.0267                 9.4251                 5.6468
 Frc consts  --     0.0000                 0.0000                 0.0000
 IR Inten    --    19.3821                12.9975                 7.7606
 Raman Activ --     0.0000                 0.0000                 0.0000
 Depolar     --     0.0000                 0.0000                 0.0000
 Atom AN      X      Y      Z        X      Y      Z        X      Y      Z
   1   7     0.04  -0.19  -0.50     0.34   0.23  -0.26    -0.17  -0.27  -0.00
   2   6    -0.19   0.21  -0.28    -0.11  -0.18  -0.05     0.01  -0.25  -0.09
   3   6    -0.15   0.14   0.04    -0.06  -0.05   0.33     0.06   0.27  -0.00
   4   6     0.06   0.12   0.26    -0.25  -0.13  -0.08     0.08   0.27   0.03
   5   6     0.03  -0.16   0.10    -0.24   0.04  -0.08     0.07  -0.13   0.03
   6  17     0.14  -0.06   0.29     0.20   0.04   0.12    -0.03   0.12   0.01
   7   1     0.06  -0.11  -0.23     0.06   0.15   0.08    -0.35   0.10   0.17
   8   1     0.01   0.01  -0.14     0.09  -0.05  -0.16    -0.05  -0.40  -0.00
   9   1    -0.01  -0.14  -0.04     0.23   0.17  -0.15     0.21   0.13  -0.15
  10   1    -0.08   0.11  -0.02    -0.07  -0.09  -0.12     0.11  -0.15  -0.08
  11   1    -0.09   0.12  -0.16    -0.10  -0.11   0.03    -0.10  -0.15   0.03
  12   1    -0.01   0.05   0.01     0.06  -0.08   0.19     0.09   0.09   0.01
  13   1    -0.10   0.01   0.04    -0.06   0.11   0.15     0.00   0.10   0.01
  14   1     0.08   0.01   0.13    -0.10   0.02  -0.10     0.07   0.09   0.01
  15   1     0.01   0.12   0.10    -0.08  -0.15  -0.05     0.03   0.09   0.01
  16   1     0.06  -0.05   0.07    -0.11   0.00  -0.09     0.09  -0.13  -0.14
  17   1    -0.06  -0.02  -0.02    -0.04  -0.03   0.03    -0.04  -0.17   0.13
  18   1     0.02  -0.13   0.00    -0.06   0.10  -0.01     0.01   0.07   0.04
                      7                      8                      9
                        a                      a                      a 
 Frequencies --   266.1794               298.4364               326.1635
 Red. masses --     1.9957                 5.3096                 8.3601
 Frc consts  --     0.0000                 0.0000                 0.0000
 IR Inten    --     0.6334                 1.1200                24.5448
 Raman Activ --     0.0000                 0.0000                 0.0000
 Depolar     --     0.0000                 0.0000                 0.0000
 Atom AN      X      Y      Z        X      Y      Z        X      Y      Z
   1   7    -0.00   0.13  -0.02    -0.01   0.16   0.06     0.39  -0.08   0.08
   2   6     0.00   0.00  -0.03    -0.00  -0.27  -0.02     0.09   0.11   0.21
   3   6    -0.00  -0.08  -0.06     0.03   0.30   0.06    -0.07   0.05  -0.33
   4   6     0.02   0.01   0.21    -0.02   0.25  -0.15    -0.27   0.19  -0.09
   5   6    -0.01  -0.00  -0.06    -0.03  -0.27   0.04    -0.31  -0.22   0.15
   6  17    -0.00  -0.05  -0.01    -0.01  -0.08  -0.01     0.05   0.01  -0.00
   7   1     0.12  -0.03  -0.06     0.30  -0.08  -0.07     0.10  -0.01   0.04
   8   1     0.00   0.18   0.02     0.01   0.38   0.06     0.10  -0.08  -0.09
   9   1    -0.13  -0.04   0.04    -0.30  -0.08   0.07     0.23  -0.01   0.05
  10   1    -0.02   0.01  -0.02     0.08  -0.18  -0.14     0.01   0.06   0.11
  11   1     0.03   0.00  -0.00    -0.09  -0.20   0.11     0.06   0.07   0.02
  12   1    -0.02   0.02  -0.08     0.10   0.07   0.07    -0.13   0.09  -0.22
  13   1     0.00  -0.10  -0.04     0.00   0.17   0.05     0.11  -0.10  -0.20
  14   1     0.04  -0.03   0.11     0.02   0.12  -0.09    -0.07   0.02   0.02
  15   1    -0.03   0.07   0.09     0.04   0.04  -0.07    -0.04   0.12  -0.02
  16   1    -0.08  -0.16  -0.52     0.12  -0.12   0.06     0.03  -0.12   0.03
  17   1    -0.03  -0.34   0.35    -0.07  -0.09   0.00    -0.13  -0.12   0.08
  18   1     0.09   0.50   0.06    -0.08  -0.16   0.03    -0.16  -0.09   0.07
                     10                     11                     12
                        a                      a                      a 
 Frequencies --   476.1347               777.5825               824.9892
 Red. masses --     8.1585                 2.2501                 3.1474
 Frc consts  --     0.0000                 0.0000                 0.0000
 IR Inten    --     8.0462                15.8097                21.9370
 Raman Activ --     0.0000                 0.0000                 0.0000
 Depolar     --     0.0000                 0.0000                 0.0000
 Atom AN      X      Y      Z        X      Y      Z        X      Y      Z
   1   7     0.15  -0.07   0.03    -0.02   0.02  -0.10    -0.08  -0.07  -0.02
   2   6    -0.41  -0.14   0.28     0.05   0.07   0.02    -0.13  -0.27   0.04
   3   6    -0.39   0.12  -0.10     0.09   0.05   0.19     0.04  -0.14  -0.00
   4   6     0.21  -0.03  -0.08     0.02   0.03   0.21     0.00   0.23   0.05
   5   6     0.32   0.12  -0.08    -0.03   0.00   0.02     0.10   0.05   0.01
   6  17     0.02  -0.00   0.01    -0.00   0.00  -0.00     0.00  -0.01   0.00
   7   1     0.18  -0.03   0.07    -0.10  -0.01  -0.11     0.22   0.08   0.32
   8   1     0.01   0.03  -0.19     0.00  -0.03   0.05    -0.04   0.12  -0.13
   9   1     0.14  -0.02   0.04    -0.04  -0.04   0.01    -0.07   0.17  -0.23
  10   1    -0.05  -0.12  -0.01     0.04  -0.05  -0.10    -0.20   0.20   0.37
  11   1    -0.22  -0.12   0.14    -0.08  -0.06   0.07     0.17   0.24  -0.28
  12   1    -0.23   0.06  -0.10    -0.13   0.25  -0.27     0.13   0.01  -0.01
  13   1    -0.04  -0.08  -0.10     0.10  -0.38  -0.11    -0.00  -0.01   0.01
  14   1     0.09   0.01  -0.03    -0.20   0.25  -0.31    -0.11   0.13  -0.11
  15   1     0.11   0.03  -0.03     0.12  -0.44  -0.13     0.11  -0.07  -0.08
  16   1     0.01   0.07  -0.02    -0.02  -0.02  -0.07     0.12  -0.05  -0.06
  17   1     0.15   0.06  -0.03    -0.20   0.00  -0.08    -0.15  -0.03  -0.03
  18   1     0.12   0.08  -0.03     0.16  -0.06  -0.10     0.10  -0.06  -0.05
                     13                     14                     15
                        a                      a                      a 
 Frequencies --   877.6236               898.9485               938.3730
 Red. masses --     5.3831                 4.4821                 5.8955
 Frc consts  --     0.0000                 0.0000                 0.0000
 IR Inten    --     1.4966                19.4238                22.6002
 Raman Activ --     0.0000                 0.0000                 0.0000
 Depolar     --     0.0000                 0.0000                 0.0000
 Atom AN      X      Y      Z        X      Y      Z        X      Y      Z
   1   7     0.15  -0.01   0.27    -0.22   0.15  -0.07     0.32   0.04   0.13
   2   6     0.05   0.05  -0.25    -0.12   0.02   0.17    -0.09  -0.07  -0.15
   3   6    -0.25   0.08  -0.30     0.21  -0.28  -0.06    -0.23  -0.24   0.09
   4   6     0.02  -0.08   0.17    -0.02   0.19  -0.03    -0.09   0.24  -0.06
   5   6    -0.02  -0.02   0.13     0.09   0.11   0.02     0.22   0.15  -0.09
   6  17     0.00   0.00  -0.00     0.00   0.00   0.01    -0.00   0.00  -0.01
   7   1     0.03  -0.03   0.02    -0.01  -0.09  -0.25    -0.24   0.00  -0.15
   8   1     0.04  -0.04   0.05    -0.12  -0.07  -0.35     0.15  -0.10   0.43
   9   1     0.09  -0.04   0.12     0.29  -0.15   0.30    -0.14  -0.05   0.04
  10   1     0.08  -0.01  -0.06    -0.14  -0.03  -0.10    -0.21   0.03  -0.08
  11   1     0.09  -0.02   0.00     0.11  -0.09   0.21     0.03   0.00  -0.04
  12   1     0.13  -0.11   0.14     0.14  -0.13   0.08    -0.06  -0.06   0.02
  13   1    -0.27   0.24   0.09     0.04   0.06   0.04    -0.12  -0.09   0.04
  14   1    -0.22  -0.01  -0.05    -0.15  -0.01   0.01    -0.05   0.05  -0.01
  15   1     0.27  -0.07  -0.10     0.03   0.03  -0.03    -0.08   0.03   0.00
  16   1    -0.16   0.01  -0.12     0.23  -0.09  -0.05     0.35  -0.09  -0.01
  17   1    -0.24   0.03  -0.10    -0.20  -0.06   0.01    -0.06  -0.07   0.05
  18   1     0.33  -0.02  -0.15     0.03  -0.08  -0.03    -0.09  -0.07   0.03
                     16                     17                     18
                        a                      a                      a 
 Frequencies --   977.3627              1010.5010              1069.5507
 Red. masses --     4.5385                 3.9162                 8.4509
 Frc consts  --     0.0000                 0.0000                 0.0000
 IR Inten    --     5.2863                 0.6740                16.6780
 Raman Activ --     0.0000                 0.0000                 0.0000
 Depolar     --     0.0000                 0.0000                 0.0000
 Atom AN      X      Y      Z        X      Y      Z        X      Y      Z
   1   7     0.01  -0.01  -0.34     0.05   0.17  -0.16    -0.13   0.02  -0.23
   2   6     0.10   0.02   0.38    -0.02  -0.30   0.21     0.48  -0.06   0.22
   3   6     0.01  -0.02  -0.04    -0.06   0.06  -0.03    -0.40   0.07  -0.04
   4   6    -0.03  -0.02  -0.08    -0.01   0.08  -0.00    -0.24  -0.02   0.13
   5   6     0.04   0.05   0.13    -0.04  -0.21   0.05     0.24   0.02  -0.10
   6  17     0.00  -0.00  -0.01     0.00   0.00  -0.00     0.00  -0.00   0.00
   7   1    -0.14   0.05  -0.05    -0.24  -0.02  -0.28     0.02   0.00  -0.04
   8   1     0.05   0.01   0.21     0.04  -0.10   0.13    -0.04   0.02  -0.12
   9   1    -0.24   0.05  -0.22    -0.02  -0.09   0.10     0.00   0.01  -0.05
  10   1     0.07  -0.04   0.05    -0.33   0.08   0.10     0.23  -0.03   0.09
  11   1    -0.17  -0.01   0.05     0.29   0.05   0.00     0.26  -0.02   0.10
  12   1    -0.22  -0.19   0.13     0.18   0.11  -0.05    -0.01   0.02   0.02
  13   1     0.23   0.19  -0.07     0.07   0.09  -0.03    -0.28  -0.01   0.07
  14   1    -0.19  -0.17   0.11     0.15   0.12  -0.06    -0.06   0.06  -0.04
  15   1     0.16   0.17  -0.04     0.09   0.06  -0.03    -0.15  -0.12   0.04
  16   1     0.02  -0.04  -0.10    -0.36   0.11   0.03     0.16  -0.02   0.02
  17   1    -0.25  -0.01  -0.05     0.21   0.10  -0.06     0.12  -0.02   0.03
  18   1     0.23  -0.05  -0.10     0.15   0.11  -0.03    -0.04  -0.01   0.03
                     19                     20                     21
                        a                      a                      a 
 Frequencies --  1098.4021              1143.8576              1165.7643
 Red. masses --     8.4321                 7.4117                 6.9432
 Frc consts  --     0.0000                 0.0000                 0.0000
 IR Inten    --     2.8044                 6.0686                 7.5311
 Raman Activ --     0.0000                 0.0000                 0.0000
 Depolar     --     0.0000                 0.0000                 0.0000
 Atom AN      X      Y      Z        X      Y      Z        X      Y      Z
   1   7     0.01  -0.01   0.11     0.10   0.07  -0.06     0.06  -0.15  -0.09
   2   6    -0.10   0.06  -0.15    -0.25  -0.09   0.17    -0.16   0.31   0.21
   3   6     0.16   0.08   0.05     0.18   0.33  -0.30     0.14  -0.30  -0.27
   4   6    -0.59  -0.03   0.02     0.03  -0.38   0.23    -0.04   0.27   0.18
   5   6     0.46  -0.18   0.03     0.00   0.15  -0.12     0.02  -0.17  -0.11
   6  17    -0.00   0.00   0.00     0.00   0.00  -0.00     0.00  -0.00  -0.00
   7   1     0.03  -0.01   0.03    -0.10   0.02  -0.07     0.00   0.04   0.13
   8   1    -0.01   0.01  -0.03     0.05  -0.03   0.11     0.04   0.06   0.11
   9   1     0.04  -0.00   0.03    -0.06  -0.03   0.01    -0.13   0.06  -0.17
  10   1    -0.02   0.01  -0.04    -0.06   0.02   0.13     0.05  -0.05  -0.11
  11   1    -0.10   0.01  -0.06    -0.05   0.04  -0.02    -0.17  -0.08   0.20
  12   1     0.04   0.09  -0.06     0.27   0.13  -0.05     0.25  -0.12   0.06
  13   1     0.24   0.08  -0.08    -0.01   0.18  -0.02    -0.18   0.05   0.09
  14   1    -0.22  -0.08   0.07    -0.13  -0.12   0.03    -0.04   0.19  -0.11
  15   1    -0.18   0.03   0.03    -0.12  -0.26   0.07     0.02  -0.12  -0.03
  16   1    -0.04   0.02  -0.02     0.24  -0.06   0.02    -0.13   0.06   0.07
  17   1     0.20   0.04  -0.05    -0.05  -0.08   0.07     0.25   0.03  -0.01
  18   1     0.28   0.03  -0.05    -0.20  -0.07   0.05    -0.06   0.09   0.04
                     22                     23                     24
                        a                      a                      a 
 Frequencies --  1228.3984              1245.3779              1282.9667
 Red. masses --     3.9336                 2.9604                 1.9184
 Frc consts  --     0.0000                 0.0000                 0.0000
 IR Inten    --     7.3503                 8.4292                 0.4839
 Raman Activ --     0.0000                 0.0000                 0.0000
 Depolar     --     0.0000                 0.0000                 0.0000
 Atom AN      X      Y      Z        X      Y      Z        X      Y      Z
   1   7     0.03  -0.21  -0.06     0.05   0.18  -0.02     0.01   0.01   0.03
   2   6    -0.07   0.19   0.08    -0.07  -0.09   0.10    -0.01  -0.00  -0.05
   3   6     0.02   0.06   0.05     0.10  -0.10  -0.04    -0.06  -0.08  -0.17
   4   6    -0.05  -0.16  -0.26    -0.03   0.06  -0.23    -0.03  -0.01   0.10
   5   6     0.03   0.10   0.22     0.03  -0.01   0.18     0.02   0.07   0.15
   6  17     0.00  -0.00  -0.00     0.00   0.00  -0.00    -0.00  -0.00   0.00
   7   1     0.02   0.03   0.16    -0.09   0.00  -0.14    -0.01   0.00  -0.00
   8   1     0.02   0.09   0.04     0.01  -0.06   0.00    -0.00   0.01  -0.03
   9   1    -0.09   0.05  -0.16     0.01  -0.06   0.11    -0.01  -0.01   0.01
  10   1    -0.21   0.00  -0.21     0.38  -0.03   0.30     0.04  -0.02  -0.02
  11   1     0.30  -0.09   0.30    -0.36   0.07  -0.21     0.01   0.01  -0.03
  12   1     0.26   0.21  -0.12     0.20   0.05  -0.05    -0.18  -0.22   0.12
  13   1    -0.17  -0.12   0.06    -0.34  -0.22   0.12     0.29   0.28  -0.11
  14   1     0.23  -0.05   0.04     0.15   0.00   0.01     0.48   0.32  -0.18
  15   1    -0.20   0.07   0.06    -0.22   0.03   0.05    -0.39  -0.28   0.12
  16   1     0.02  -0.04  -0.10    -0.07  -0.01  -0.07     0.03  -0.02  -0.03
  17   1    -0.23   0.01  -0.03    -0.12   0.04  -0.05    -0.14   0.01  -0.01
  18   1     0.19  -0.07  -0.07     0.18  -0.02  -0.05     0.12  -0.04  -0.04
                     25                     26                     27
                        a                      a                      a 
 Frequencies --  1310.9992              1327.9372              1370.2442
 Red. masses --     3.5202                 3.8539                 2.8350
 Frc consts  --     0.0000                 0.0000                 0.0000
 IR Inten    --     5.9779                 5.2817               154.7590
 Raman Activ --     0.0000                 0.0000                 0.0000
 Depolar     --     0.0000                 0.0000                 0.0000
 Atom AN      X      Y      Z        X      Y      Z        X      Y      Z
   1   7     0.02  -0.04   0.08     0.05   0.01  -0.13    -0.25   0.06  -0.19
   2   6     0.15  -0.11   0.07    -0.39  -0.02  -0.14     0.04  -0.03   0.04
   3   6     0.21   0.22  -0.15     0.12   0.07   0.05     0.13   0.08  -0.07
   4   6     0.16   0.15  -0.06     0.12   0.13  -0.04    -0.10  -0.05   0.02
   5   6     0.03  -0.11   0.05     0.01  -0.08   0.01     0.01   0.02   0.00
   6  17    -0.00  -0.00   0.00     0.00   0.00  -0.00    -0.00   0.00  -0.01
   7   1    -0.05  -0.01  -0.02     0.01   0.05   0.06     0.48  -0.08   0.08
   8   1    -0.02   0.04  -0.13     0.04  -0.01   0.15     0.06  -0.17   0.58
   9   1    -0.04   0.03  -0.04     0.02  -0.06   0.05     0.39   0.02   0.10
  10   1    -0.40   0.06  -0.14     0.40  -0.05   0.24    -0.13   0.03  -0.03
  11   1    -0.08   0.01  -0.07     0.51  -0.05   0.22    -0.07  -0.01  -0.01
  12   1    -0.34  -0.19   0.12    -0.23  -0.11   0.07    -0.10  -0.07   0.04
  13   1    -0.30  -0.13   0.09     0.01  -0.06  -0.00    -0.12  -0.08   0.03
  14   1    -0.23  -0.11   0.07    -0.19  -0.09   0.05     0.11   0.05  -0.02
  15   1    -0.35  -0.20   0.10    -0.17  -0.09   0.05     0.04   0.02  -0.02
  16   1    -0.14   0.04  -0.00    -0.10   0.03   0.01     0.01  -0.00  -0.00
  17   1    -0.01   0.02  -0.04     0.01   0.01  -0.03    -0.01  -0.01   0.01
  18   1     0.03   0.03   0.01     0.00   0.03   0.02     0.02  -0.02  -0.01
                     28                     29                     30
                        a                      a                      a 
 Frequencies --  1378.1109              1398.9969              1441.2343
 Red. masses --     4.6709                 1.6670                 3.1799
 Frc consts  --     0.0000                 0.0000                 0.0000
 IR Inten    --    25.5557                68.6149                 2.6027
 Raman Activ --     0.0000                 0.0000                 0.0000
 Depolar     --     0.0000                 0.0000                 0.0000
 Atom AN      X      Y      Z        X      Y      Z        X      Y      Z
   1   7     0.10   0.03   0.04    -0.02  -0.18  -0.02    -0.00  -0.00  -0.01
   2   6    -0.11  -0.04   0.00    -0.02  -0.05   0.00     0.01  -0.01  -0.01
   3   6     0.34   0.15  -0.08     0.07   0.04  -0.02    -0.01   0.01  -0.00
   4   6    -0.35  -0.15   0.10    -0.09  -0.04   0.03     0.07   0.04  -0.02
   5   6     0.00   0.08  -0.04     0.00   0.02  -0.02    -0.43  -0.00   0.05
   6  17     0.00   0.00   0.00    -0.00  -0.01  -0.00    -0.00  -0.00  -0.00
   7   1    -0.07   0.01  -0.02    -0.39   0.06  -0.04     0.00   0.01   0.01
   8   1    -0.02  -0.14  -0.19     0.02   0.72   0.12     0.00   0.01   0.01
   9   1    -0.24  -0.04  -0.03     0.45   0.07   0.03     0.01  -0.01   0.01
  10   1     0.01  -0.01   0.02     0.02  -0.01   0.04    -0.02   0.01   0.01
  11   1     0.13   0.00   0.04    -0.01   0.02  -0.05     0.00  -0.01   0.01
  12   1    -0.31  -0.16   0.08    -0.07  -0.05   0.04    -0.01   0.00  -0.00
  13   1    -0.26  -0.15   0.10    -0.05  -0.05   0.02    -0.01   0.00   0.00
  14   1     0.31   0.16  -0.07     0.08   0.05  -0.03    -0.04  -0.05   0.05
  15   1     0.34   0.16  -0.12     0.10   0.05  -0.03    -0.05  -0.07   0.01
  16   1     0.10  -0.02  -0.00     0.03  -0.01   0.01     0.47  -0.23   0.02
  17   1     0.05  -0.02   0.05    -0.00  -0.01   0.01     0.48   0.14   0.05
  18   1     0.02  -0.04  -0.03    -0.00  -0.00  -0.00     0.45   0.06  -0.23
                     31                     32                     33
                        a                      a                      a 
 Frequencies --  1452.6639              1483.3749              1501.5057
 Red. masses --     1.9727                 1.8486                 1.9119
 Frc consts  --     0.0000                 0.0000                 0.0000
 IR Inten    --    78.7756                11.4110                 3.5272
 Raman Activ --     0.0000                 0.0000                 0.0000
 Depolar     --     0.0000                 0.0000                 0.0000
 Atom AN      X      Y      Z        X      Y      Z        X      Y      Z
   1   7    -0.04  -0.02   0.25    -0.01   0.00  -0.02     0.01   0.00   0.01
   2   6    -0.11   0.01   0.03    -0.12  -0.01   0.25     0.01   0.02  -0.02
   3   6     0.02   0.01   0.00    -0.01   0.01   0.00    -0.14   0.23  -0.05
   4   6     0.02  -0.02   0.00     0.00   0.02  -0.01    -0.03  -0.02   0.02
   5   6    -0.01   0.00   0.01    -0.01  -0.01   0.01     0.01  -0.03   0.04
   6  17     0.00   0.00   0.00     0.00   0.00   0.00     0.00   0.00  -0.00
   7   1     0.14  -0.33  -0.56     0.01   0.04   0.09    -0.01   0.01   0.01
   8   1    -0.01  -0.03   0.01    -0.00  -0.01   0.02    -0.00  -0.02  -0.02
   9   1     0.11   0.45  -0.47    -0.00  -0.06   0.07    -0.03  -0.01   0.00
  10   1     0.10  -0.06  -0.02     0.17  -0.37  -0.53    -0.03   0.03   0.03
  11   1     0.11   0.05  -0.01     0.23   0.45  -0.44    -0.02  -0.03   0.04
  12   1     0.01  -0.01   0.01     0.04  -0.01   0.03     0.34  -0.30   0.47
  13   1     0.00  -0.02  -0.00     0.01  -0.04  -0.01     0.20  -0.54  -0.29
  14   1    -0.04   0.03  -0.05    -0.01  -0.03   0.03     0.01   0.01  -0.01
  15   1    -0.03   0.05   0.03     0.01  -0.03  -0.01     0.02   0.02  -0.00
  16   1     0.01  -0.01  -0.00     0.02  -0.01  -0.01     0.06  -0.06  -0.09
  17   1     0.02   0.00   0.00     0.01   0.02  -0.02    -0.01   0.12  -0.14
  18   1     0.02  -0.01  -0.01    -0.00   0.02   0.01    -0.06   0.09   0.06
                     34                     35                     36
                        a                      a                      a 
 Frequencies --  1506.9160              1510.5431              1520.8727
 Red. masses --     1.5241                 1.5051                 2.0022
 Frc consts  --     0.0000                 0.0000                 0.0000
 IR Inten    --     4.7543                 4.6634                 0.6418
 Raman Activ --     0.0000                 0.0000                 0.0000
 Depolar     --     0.0000                 0.0000                 0.0000
 Atom AN      X      Y      Z        X      Y      Z        X      Y      Z
   1   7     0.00   0.00   0.00     0.00  -0.00  -0.01    -0.01  -0.01   0.02
   2   6    -0.00   0.00   0.01    -0.00   0.00   0.01     0.00   0.01  -0.01
   3   6    -0.02   0.03  -0.00    -0.03   0.03  -0.01    -0.05   0.01   0.00
   4   6    -0.00  -0.02  -0.04     0.07  -0.03   0.01    -0.13   0.25  -0.07
   5   6    -0.02  -0.05  -0.20    -0.02   0.19  -0.03     0.02   0.07  -0.02
   6  17     0.00   0.00   0.00    -0.00  -0.00   0.00     0.00  -0.00   0.00
   7   1    -0.00   0.00   0.00    -0.01   0.02   0.03     0.01  -0.03  -0.06
   8   1    -0.00  -0.01  -0.01    -0.00   0.01  -0.00    -0.00   0.01  -0.00
   9   1    -0.01  -0.00   0.00    -0.01  -0.02   0.02     0.02   0.04  -0.04
  10   1     0.00  -0.00  -0.01     0.00  -0.01  -0.02     0.01   0.01   0.02
  11   1     0.00   0.01  -0.01     0.00   0.01  -0.02     0.00  -0.01   0.02
  12   1     0.07  -0.04   0.07     0.07  -0.07   0.09     0.05  -0.01   0.04
  13   1     0.02  -0.10  -0.04     0.05  -0.11  -0.06     0.04  -0.03  -0.03
  14   1     0.01   0.01  -0.02    -0.14   0.10  -0.16     0.30  -0.31   0.47
  15   1    -0.03   0.03   0.01    -0.10   0.18   0.09     0.19  -0.54  -0.25
  16   1     0.06   0.23   0.66    -0.26   0.09  -0.09    -0.12   0.06  -0.01
  17   1    -0.26  -0.34   0.25     0.25  -0.29   0.43     0.04  -0.12   0.15
  18   1     0.30   0.30  -0.09     0.09  -0.59  -0.20     0.02  -0.19  -0.06
                     37                     38                     39
                        a                      a                      a 
 Frequencies --  2865.1338              2909.4305              2935.5844
 Red. masses --     2.0025                 1.9138                 1.9658
 Frc consts  --     0.0000                 0.0000                 0.0000
 IR Inten    --  1974.3251                28.0076                30.4365
 Raman Activ --     0.0000                 0.0000                 0.0000
 Depolar     --     0.0000                 0.0000                 0.0000
 Atom AN      X      Y      Z        X      Y      Z        X      Y      Z
   1   7     0.27   0.00  -0.06     0.01  -0.00  -0.00     0.00  -0.00  -0.00
   2   6     0.00  -0.00   0.01    -0.00  -0.00  -0.00     0.01  -0.02  -0.01
   3   6    -0.01   0.01  -0.00    -0.01  -0.02  -0.07     0.05   0.08   0.27
   4   6    -0.00  -0.00  -0.01     0.05   0.06   0.27     0.02   0.01   0.08
   5   6    -0.00  -0.00   0.00    -0.00  -0.00  -0.02    -0.00  -0.00  -0.01
   6  17    -0.01   0.00   0.00    -0.00  -0.00   0.00    -0.00  -0.00  -0.00
   7   1     0.01  -0.03   0.01    -0.00   0.01  -0.00    -0.00   0.00  -0.00
   8   1    -0.94   0.00   0.17    -0.02   0.00   0.00    -0.01   0.00   0.00
   9   1     0.01   0.02   0.01    -0.00   0.00   0.00    -0.00  -0.00  -0.00
  10   1    -0.00   0.00   0.00     0.00   0.00  -0.00     0.00  -0.01  -0.00
  11   1    -0.00  -0.00   0.00     0.00  -0.00  -0.00    -0.03   0.10   0.08
  12   1     0.00  -0.01  -0.01    -0.04   0.13   0.11     0.14  -0.46  -0.39
  13   1     0.01  -0.00   0.02     0.09  -0.06   0.16    -0.30   0.18  -0.56
  14   1    -0.00   0.02   0.01     0.14  -0.42  -0.34     0.03  -0.09  -0.07
  15   1     0.01  -0.00   0.01    -0.30   0.19  -0.63    -0.09   0.06  -0.20
  16   1     0.00   0.01  -0.00    -0.00  -0.01  -0.00    -0.00  -0.00  -0.00
  17   1     0.00  -0.00  -0.00    -0.02   0.04   0.03    -0.01   0.02   0.02
  18   1     0.00  -0.00   0.00     0.03  -0.02   0.05     0.01  -0.01   0.03
                     40                     41                     42
                        a                      a                      a 
 Frequencies --  2943.8538              2952.0310              2964.1272
 Red. masses --     1.4955                 1.8803                 1.6092
 Frc consts  --     0.0000                 0.0000                 0.0000
 IR Inten    --    25.1990                 0.6384                23.1830
 Raman Activ --     0.0000                 0.0000                 0.0000
 Depolar     --     0.0000                 0.0000                 0.0000
 Atom AN      X      Y      Z        X      Y      Z        X      Y      Z
   1   7     0.00   0.00  -0.00    -0.00   0.00   0.00     0.01   0.00  -0.00
   2   6    -0.00  -0.02   0.00    -0.04  -0.27  -0.00    -0.02  -0.11   0.02
   3   6     0.03  -0.03   0.02    -0.05   0.06  -0.03     0.10  -0.16   0.02
   4   6    -0.10   0.18  -0.00    -0.00   0.01  -0.01     0.02  -0.05   0.00
   5   6    -0.00  -0.02   0.00     0.00  -0.01   0.00    -0.00   0.04  -0.00
   6  17    -0.00  -0.00   0.00     0.00  -0.00   0.00    -0.00   0.00   0.00
   7   1     0.00  -0.01   0.01    -0.01  -0.01   0.01    -0.00  -0.01   0.00
   8   1    -0.01   0.00   0.00     0.01   0.00  -0.00    -0.02   0.00   0.00
   9   1     0.00   0.00  -0.00     0.00  -0.01  -0.01     0.00   0.00   0.00
  10   1     0.02   0.05  -0.03     0.24   0.59  -0.33     0.12   0.29  -0.16
  11   1    -0.01   0.03   0.02    -0.12   0.37   0.33    -0.03   0.10   0.09
  12   1    -0.02   0.10   0.10     0.04  -0.17  -0.17    -0.12   0.46   0.44
  13   1    -0.08   0.04  -0.15     0.13  -0.07   0.27    -0.24   0.12  -0.50
  14   1     0.15  -0.54  -0.50     0.00   0.00  -0.00    -0.04   0.12   0.12
  15   1     0.22  -0.11   0.52     0.01  -0.01   0.03    -0.05   0.03  -0.12
  16   1     0.02   0.04  -0.02     0.00   0.01  -0.00    -0.03  -0.07   0.03
  17   1    -0.02   0.04   0.04    -0.00   0.01   0.01     0.02  -0.05  -0.05
  18   1    -0.02   0.00  -0.03    -0.01   0.00  -0.01     0.02  -0.01   0.04
                     43                     44                     45
                        a                      a                      a 
 Frequencies --  2981.0332              2994.8862              2997.8128
 Red. masses --     1.5557                 1.9062                 1.9374
 Frc consts  --     0.0000                 0.0000                 0.0000
 IR Inten    --     5.6878                33.6080                38.8651
 Raman Activ --     0.0000                 0.0000                 0.0000
 Depolar     --     0.0000                 0.0000                 0.0000
 Atom AN      X      Y      Z        X      Y      Z        X      Y      Z
   1   7    -0.00   0.00  -0.00     0.00   0.00  -0.00     0.00   0.00   0.00
   2   6     0.09  -0.04  -0.20     0.00   0.01  -0.00     0.00  -0.00  -0.00
   3   6     0.01  -0.02  -0.03    -0.01   0.02  -0.00    -0.00  -0.00  -0.01
   4   6    -0.00  -0.00  -0.01    -0.01   0.03  -0.00    -0.00  -0.01  -0.03
   5   6    -0.00   0.00   0.01     0.05   0.27  -0.06    -0.02  -0.06  -0.28
   6  17     0.00  -0.00   0.00    -0.00  -0.00   0.00     0.00   0.00   0.00
   7   1     0.00   0.01  -0.01    -0.00  -0.00   0.00     0.00  -0.00  -0.00
   8   1    -0.01   0.00  -0.00    -0.00   0.00   0.00    -0.00  -0.00  -0.00
   9   1     0.00  -0.02  -0.01    -0.00  -0.00  -0.00     0.00  -0.00  -0.00
  10   1    -0.16  -0.47   0.22    -0.01  -0.02   0.01    -0.00  -0.01   0.00
  11   1    -0.16   0.62   0.48     0.00  -0.01  -0.01    -0.00   0.01   0.01
  12   1    -0.03   0.09   0.09     0.01  -0.05  -0.05    -0.00   0.02   0.02
  13   1     0.01  -0.01   0.01     0.02  -0.01   0.05     0.01  -0.01   0.01
  14   1    -0.00   0.02   0.01     0.02  -0.06  -0.05    -0.01   0.05   0.04
  15   1     0.00  -0.00   0.01     0.02  -0.01   0.05     0.02  -0.02   0.05
  16   1     0.00   0.00   0.00    -0.34  -0.75   0.29    -0.05  -0.11  -0.00
  17   1     0.01  -0.02  -0.02     0.09  -0.21  -0.24    -0.17   0.50   0.42
  18   1    -0.00   0.00  -0.01     0.09  -0.00   0.16     0.29  -0.16   0.57
                     46                     47                     48
                        a                      a                      a 
 Frequencies --  3012.3485              3233.2359              3242.7085
 Red. masses --     1.3038                 2.0496                 1.4841
 Frc consts  --     0.0000                 0.0000                 0.0000
 IR Inten    --    22.7721                55.8892                19.2649
 Raman Activ --     0.0000                 0.0000                 0.0000
 Depolar     --     0.0000                 0.0000                 0.0000
 Atom AN      X      Y      Z        X      Y      Z        X      Y      Z
   1   7     0.00  -0.00  -0.00     0.01   0.28   0.03     0.07   0.01  -0.18
   2   6     0.00  -0.00  -0.00     0.00   0.01   0.00     0.00   0.00  -0.01
   3   6     0.00  -0.01   0.00     0.00  -0.00  -0.00    -0.00   0.00   0.00
   4   6     0.01  -0.01   0.00     0.00  -0.00   0.00     0.00  -0.00   0.00
   5   6     0.15  -0.06   0.02     0.00  -0.00   0.00    -0.00  -0.00  -0.00
   6  17    -0.00   0.00  -0.00     0.00   0.00   0.00    -0.00   0.00  -0.00
   7   1    -0.00   0.00  -0.00    -0.18  -0.60   0.31    -0.16  -0.59   0.27
   8   1    -0.01  -0.00   0.00     0.01   0.02   0.00     0.06   0.00  -0.02
   9   1    -0.00   0.00   0.00     0.14  -0.48  -0.42    -0.14   0.55   0.44
  10   1    -0.00  -0.00   0.00    -0.01  -0.01   0.01    -0.01  -0.02   0.01
  11   1    -0.00   0.01   0.00     0.00  -0.01  -0.01    -0.00   0.01   0.01
  12   1    -0.00   0.02   0.02     0.00   0.00   0.00    -0.00  -0.00  -0.00
  13   1    -0.01   0.01  -0.02    -0.00   0.00  -0.00     0.00  -0.00   0.00
  14   1    -0.01   0.03   0.03    -0.00   0.00   0.00     0.00   0.00   0.00
  15   1    -0.01   0.01  -0.04    -0.00   0.00  -0.01    -0.00   0.00  -0.01
  16   1    -0.13  -0.35   0.13     0.00   0.00  -0.00     0.00   0.00  -0.00
  17   1    -0.13   0.43   0.40    -0.00   0.00   0.00    -0.00   0.00   0.00
  18   1    -0.27   0.14  -0.60    -0.00   0.00  -0.00    -0.00  -0.00  -0.00
