 Entering Gaussian System
 *********************************************
 Gaussian 98:
 frequency output generated by the xtb code
 *********************************************
                         Standard orientation:
 --------------------------------------------------------------------
  Center     Atomic     Atomic              Coordinates (Angstroms)
  Number     Number      Type              X           Y           Z
 --------------------------------------------------------------------
    1          7             0       -1.172405   -2.504865   -0.620542
    2          6             0       -1.129126   -1.196994    0.094016
    3          6             0       -0.399643   -0.121919   -0.705828
    4          6             0       -0.321214    1.198482   -0.017711
    5          6             0        0.334420    2.280668   -0.506655
    6          6             0        0.262319    3.428750    0.336863
    7          6             0       -0.448478    3.217145    1.465156
    8         16             0       -1.048476    1.597208    1.518791
    9         17             0        2.147908   -3.422804   -1.275472
   10          1             0       -1.649867   -3.234422   -0.068239
   11          1             0       -0.216148   -2.834841   -0.822584
   12          1             0       -1.662168   -2.415574   -1.520580
   13          1             0       -0.641743   -1.322295    1.067905
   14          1             0       -2.148064   -0.861398    0.319209
   15          1             0       -0.891076    0.009572   -1.675887
   16          1             0        0.614714   -0.464885   -0.936941
   17          1             0        0.860597    2.269443   -1.448767
   18          1             0        0.730703    4.371097    0.093650
   19          1             0       -0.627002    3.944038    2.234936
 --------------------------------------------------------------------
     1 basis functions        1 primitive gaussians
     1 alpha electrons        1 beta electrons

 Harmonic frequencies (cm**-1), IR intensities (km*mol⁻¹),
 Raman scattering activities (A**4/amu), Raman depolarization ratios,
 reduced masses (AMU), force constants (mDyne/A) and normal coordinates:
                      1                      2                      3
                        a                      a                      a 
 Frequencies --  -138.1205               -60.0880                60.7374
 Red. masses --    21.8569                17.5632                24.3271
 Frc consts  --     0.0000                 0.0000                 0.0000
 IR Inten    --   146.4557                 7.3009                19.6205
 Raman Activ --     0.0000                 0.0000                 0.0000
 Depolar     --     0.0000                 0.0000                 0.0000
 Atom AN      X      Y      Z        X      Y      Z        X      Y      Z
   1   7     0.58  -0.14  -0.06    -0.08   0.05  -0.20    -0.25  -0.07   0.06
   2   6     0.19  -0.12  -0.07    -0.19   0.06  -0.20    -0.20  -0.06   0.03
   3   6     0.04   0.01  -0.04     0.23  -0.04   0.04     0.03  -0.19   0.06
   4   6     0.01  -0.01  -0.01     0.03   0.00  -0.03     0.07  -0.16  -0.00
   5   6     0.02  -0.00   0.01    -0.27   0.12  -0.16     0.16  -0.22  -0.01
   6   6     0.00  -0.01   0.01    -0.28   0.10  -0.12     0.18  -0.18  -0.06
   7   6    -0.01  -0.01   0.00     0.01  -0.04   0.03     0.11  -0.10  -0.09
   8  16    -0.01  -0.03  -0.02     0.46  -0.23   0.21     0.02  -0.10  -0.10
   9  17    -0.61   0.23   0.14    -0.08   0.04   0.25    -0.05   0.73   0.09
  10   1     0.19  -0.06  -0.03    -0.08   0.03  -0.09    -0.02  -0.03   0.03
  11   1     0.20   0.01  -0.00    -0.01  -0.01   0.03    -0.06   0.02  -0.02
  12   1     0.17  -0.07  -0.03     0.06   0.02  -0.10    -0.11  -0.03   0.03
  13   1     0.04  -0.00  -0.01    -0.16   0.01  -0.01    -0.09  -0.02   0.02
  14   1     0.03  -0.09  -0.04    -0.07   0.05  -0.17    -0.06   0.02  -0.03
  15   1    -0.01   0.00  -0.00     0.19  -0.02  -0.05     0.05  -0.05  -0.00
  16   1     0.01   0.03  -0.04     0.09  -0.04   0.14     0.01  -0.09   0.06
  17   1     0.01   0.00   0.00    -0.13   0.06  -0.08     0.06  -0.08   0.00
  18   1    -0.00  -0.00   0.00    -0.13   0.05  -0.06     0.07  -0.06  -0.02
  19   1    -0.01  -0.00  -0.00     0.03  -0.03   0.03     0.03  -0.02  -0.04
                      4                      5                      6
                        a                      a                      a 
 Frequencies --    76.3933               121.0430               157.2465
 Red. masses --    12.4227                16.1843                10.1504
 Frc consts  --     0.0000                 0.0000                 0.0000
 IR Inten    --     2.3819                 3.6374                13.8210
 Raman Activ --     0.0000                 0.0000                 0.0000
 Depolar     --     0.0000                 0.0000                 0.0000
 Atom AN      X      Y      Z        X      Y      Z        X      Y      Z
   1   7    -0.09   0.04   0.02    -0.20   0.13   0.22     0.21  -0.04   0.44
   2   6     0.17  -0.03   0.13     0.32   0.16   0.09    -0.34   0.26  -0.10
   3   6     0.51  -0.14   0.28     0.07   0.08  -0.24     0.11   0.02  -0.02
   4   6     0.21  -0.04   0.12     0.12   0.05  -0.20     0.01   0.06  -0.11
   5   6     0.13  -0.01   0.09     0.03   0.17  -0.03     0.04   0.09   0.01
   6   6    -0.15   0.08  -0.05    -0.10   0.04   0.14     0.04   0.01   0.13
   7   6    -0.30   0.12  -0.14    -0.10  -0.19   0.09     0.01  -0.09   0.09
   8  16    -0.14   0.07  -0.06     0.09  -0.42  -0.26    -0.09  -0.11  -0.18
   9  17    -0.18  -0.07  -0.25    -0.14   0.09   0.15     0.02  -0.10  -0.18
  10   1    -0.00   0.00   0.02    -0.07   0.08   0.11     0.16  -0.01   0.21
  11   1    -0.05  -0.00  -0.08    -0.09  -0.04   0.01     0.09   0.08   0.11
  12   1    -0.08   0.05   0.04    -0.11   0.05   0.09     0.02  -0.17   0.12
  13   1     0.01  -0.06   0.05     0.21   0.04  -0.03    -0.27   0.20   0.07
  14   1     0.07   0.06   0.01     0.13   0.09   0.15    -0.14   0.07  -0.24
  15   1     0.26  -0.08   0.02    -0.06   0.00  -0.03     0.15  -0.01  -0.07
  16   1     0.17  -0.06   0.20     0.01   0.03  -0.14     0.04  -0.05   0.12
  17   1     0.08  -0.01   0.05     0.01   0.10  -0.01     0.02   0.05   0.01
  18   1    -0.07   0.03  -0.03    -0.05   0.03   0.08     0.02   0.01   0.07
  19   1    -0.15   0.05  -0.07    -0.06  -0.09   0.05     0.01  -0.05   0.05
                      7                      8                      9
                        a                      a                      a 
 Frequencies --   227.6984               274.9133               325.3645
 Red. masses --    11.6214                 3.5144                10.6147
 Frc consts  --     0.0000                 0.0000                 0.0000
 IR Inten    --     0.7371                 0.8507                 8.8248
 Raman Activ --     0.0000                 0.0000                 0.0000
 Depolar     --     0.0000                 0.0000                 0.0000
 Atom AN      X      Y      Z        X      Y      Z        X      Y      Z
   1   7    -0.02   0.02  -0.04    -0.10  -0.15  -0.10     0.21   0.49  -0.18
   2   6     0.18  -0.07   0.11     0.06  -0.06  -0.19    -0.15   0.12   0.36
   3   6     0.24  -0.10   0.14     0.04   0.03  -0.10    -0.16  -0.02   0.25
   4   6    -0.33   0.10  -0.17    -0.09   0.03  -0.02    -0.03   0.02  -0.04
   5   6    -0.31   0.08  -0.17    -0.07   0.04   0.01     0.01  -0.04  -0.10
   6   6     0.14  -0.06   0.06     0.01   0.04   0.03    -0.00  -0.08  -0.07
   7   6     0.40  -0.13   0.21     0.04   0.05   0.05    -0.02  -0.13  -0.08
   8  16    -0.28   0.11  -0.13     0.05   0.08   0.11     0.03  -0.23  -0.11
   9  17    -0.00   0.02   0.01     0.01  -0.04   0.11     0.02  -0.07   0.03
  10   1    -0.06   0.01  -0.04     0.42  -0.14   0.23     0.25  -0.04  -0.11
  11   1    -0.02  -0.04   0.00    -0.04   0.18  -0.46     0.08   0.30  -0.22
  12   1     0.02   0.06  -0.02    -0.50  -0.18   0.22    -0.08   0.19   0.03
  13   1     0.06  -0.06   0.02     0.05  -0.02  -0.07    -0.04  -0.00   0.10
  14   1     0.07   0.01   0.05     0.03  -0.02  -0.02    -0.05  -0.00   0.10
  15   1     0.19  -0.15  -0.03     0.05   0.01  -0.05    -0.05  -0.05   0.07
  16   1     0.12   0.03   0.19     0.03   0.03   0.01    -0.05  -0.04   0.08
  17   1    -0.12   0.03  -0.07    -0.02   0.01   0.00     0.01  -0.02  -0.03
  18   1     0.10  -0.04   0.05     0.01   0.01   0.00    -0.00  -0.02  -0.00
  19   1     0.21  -0.07   0.11     0.00   0.02   0.01    -0.01  -0.04  -0.02
                     10                     11                     12
                        a                      a                      a 
 Frequencies --   361.9063               428.0666               529.9717
 Red. masses --    14.0996                12.7331                 9.7452
 Frc consts  --     0.0000                 0.0000                 0.0000
 IR Inten    --     5.4086                 0.5583                 0.1033
 Raman Activ --     0.0000                 0.0000                 0.0000
 Depolar     --     0.0000                 0.0000                 0.0000
 Atom AN      X      Y      Z        X      Y      Z        X      Y      Z
   1   7    -0.06  -0.29  -0.10    -0.00  -0.03   0.01     0.00   0.00   0.00
   2   6    -0.18  -0.33   0.16     0.03  -0.03   0.02     0.00  -0.00   0.01
   3   6    -0.18  -0.12   0.24    -0.01  -0.02  -0.01    -0.04  -0.00  -0.03
   4   6     0.15   0.14  -0.15    -0.55   0.19  -0.32    -0.32   0.11  -0.19
   5   6     0.08   0.32   0.02     0.11  -0.02   0.07     0.43  -0.15   0.25
   6   6    -0.03   0.25   0.19     0.27  -0.08   0.17    -0.42   0.15  -0.23
   7   6    -0.03   0.07   0.16    -0.37   0.14  -0.20     0.29  -0.10   0.17
   8  16     0.20   0.05  -0.37     0.28  -0.08   0.14     0.01   0.01   0.00
   9  17     0.01   0.00   0.00    -0.00   0.01  -0.01    -0.00   0.00  -0.00
  10   1    -0.00  -0.11  -0.07    -0.05   0.01  -0.02    -0.01   0.00  -0.01
  11   1    -0.00  -0.04  -0.03    -0.00  -0.04   0.03    -0.00  -0.01   0.00
  12   1    -0.01  -0.05  -0.03     0.04   0.02  -0.02     0.01   0.01  -0.00
  13   1    -0.06  -0.14   0.04     0.02  -0.01   0.00     0.01   0.00  -0.00
  14   1    -0.06  -0.14   0.05     0.01  -0.01   0.02     0.00  -0.01   0.01
  15   1    -0.07  -0.06   0.07     0.10  -0.13  -0.07     0.04  -0.07  -0.04
  16   1    -0.07  -0.07   0.05     0.05   0.06   0.14     0.02   0.04   0.07
  17   1     0.04   0.16   0.01     0.06  -0.01   0.04     0.27  -0.09   0.15
  18   1    -0.02   0.09   0.09     0.14  -0.05   0.08    -0.25   0.09  -0.14
  19   1    -0.04  -0.02   0.08    -0.15   0.05  -0.08     0.03  -0.01   0.02
                     13                     14                     15
                        a                      a                      a 
 Frequencies --   574.1174               678.2473               733.0255
 Red. masses --    14.7948                18.2732                14.2352
 Frc consts  --     0.0000                 0.0000                 0.0000
 IR Inten    --     6.1820                 6.6875                 5.0398
 Raman Activ --     0.0000                 0.0000                 0.0000
 Depolar     --     0.0000                 0.0000                 0.0000
 Atom AN      X      Y      Z        X      Y      Z        X      Y      Z
   1   7    -0.06  -0.19  -0.02    -0.01  -0.01   0.00     0.00   0.05   0.02
   2   6     0.02  -0.05  -0.06     0.07   0.05  -0.11    -0.02  -0.02   0.03
   3   6    -0.03   0.37   0.31    -0.03   0.28   0.24     0.02  -0.15  -0.13
   4   6     0.01   0.37   0.15    -0.23  -0.03   0.38    -0.11  -0.15   0.11
   5   6     0.17   0.16  -0.17    -0.18  -0.19   0.21    -0.20   0.06   0.40
   6   6     0.15   0.12  -0.20    -0.06  -0.14   0.01     0.23   0.51  -0.10
   7   6     0.09  -0.19  -0.27    -0.03   0.02   0.07     0.21   0.28  -0.18
   8  16    -0.21  -0.35   0.15     0.30   0.01  -0.53    -0.09  -0.37  -0.07
   9  17    -0.00   0.01  -0.00     0.00   0.00  -0.00     0.00  -0.00  -0.00
  10   1    -0.04   0.01   0.05    -0.02   0.06   0.07     0.01  -0.02  -0.03
  11   1    -0.03  -0.09   0.01    -0.02  -0.06   0.01     0.01   0.04   0.00
  12   1    -0.02  -0.10  -0.00    -0.02  -0.06   0.01     0.01   0.04   0.00
  13   1    -0.01  -0.06  -0.02     0.02  -0.00  -0.03     0.00   0.01   0.01
  14   1    -0.01  -0.05  -0.01     0.01  -0.01  -0.02    -0.00   0.01   0.01
  15   1     0.01   0.13   0.08     0.03   0.15   0.06    -0.00  -0.04  -0.03
  16   1     0.00   0.14   0.09     0.02   0.16   0.08     0.00  -0.04  -0.03
  17   1     0.03  -0.04  -0.06    -0.08  -0.14   0.05    -0.08  -0.07   0.10
  18   1     0.01   0.07   0.01     0.00  -0.07  -0.06     0.11   0.10  -0.14
  19   1     0.03  -0.05  -0.08    -0.03  -0.03   0.04     0.01   0.03  -0.01
                     16                     17                     18
                        a                      a                      a 
 Frequencies --   750.7927               786.3588               826.3530
 Red. masses --     2.5048                 2.2279                12.7447
 Frc consts  --     0.0000                 0.0000                 0.0000
 IR Inten    --    18.6356                23.5128                10.2776
 Raman Activ --     0.0000                 0.0000                 0.0000
 Depolar     --     0.0000                 0.0000                 0.0000
 Atom AN      X      Y      Z        X      Y      Z        X      Y      Z
   1   7    -0.01  -0.00   0.00     0.01  -0.02   0.01     0.00  -0.01  -0.02
   2   6     0.01  -0.00   0.00     0.19  -0.06   0.09     0.01   0.01  -0.01
   3   6    -0.01   0.00  -0.01     0.18  -0.05   0.08    -0.01   0.08   0.08
   4   6     0.02  -0.01   0.02    -0.12   0.04  -0.05     0.07   0.07  -0.09
   5   6     0.01  -0.01   0.01    -0.04   0.01  -0.01     0.07  -0.09  -0.22
   6   6    -0.12   0.05  -0.07    -0.01   0.00  -0.01    -0.10  -0.22   0.04
   7   6    -0.28   0.10  -0.16     0.01  -0.01   0.00     0.07   0.66   0.30
   8  16     0.02  -0.01   0.01     0.02   0.00   0.00    -0.11  -0.35  -0.02
   9  17     0.00   0.00   0.00    -0.00   0.01   0.01     0.00   0.00   0.00
  10   1     0.01  -0.01   0.00    -0.06   0.01  -0.03    -0.01   0.02   0.03
  11   1     0.01   0.02   0.01    -0.07  -0.13  -0.15    -0.01  -0.02   0.00
  12   1    -0.01  -0.01   0.00    -0.09   0.18   0.07    -0.01  -0.03  -0.00
  13   1     0.01  -0.00  -0.00    -0.40   0.03   0.26    -0.00  -0.01  -0.00
  14   1     0.00   0.00   0.01    -0.02   0.10  -0.47    -0.00  -0.01  -0.01
  15   1     0.00  -0.00  -0.00    -0.34  -0.02   0.21    -0.01   0.02   0.02
  16   1     0.00   0.01   0.00     0.00   0.13  -0.37    -0.00   0.02   0.01
  17   1     0.20  -0.07   0.11     0.09  -0.04   0.06     0.07   0.03  -0.03
  18   1     0.19  -0.07   0.11     0.05  -0.02   0.03     0.04  -0.12  -0.13
  19   1     0.72  -0.25   0.41    -0.02  -0.00  -0.01     0.13   0.35  -0.04
                     19                     20                     21
                        a                      a                      a 
 Frequencies --   842.1912               874.5119               875.6690
 Red. masses --     3.0050                 3.5827                 2.7660
 Frc consts  --     0.0000                 0.0000                 0.0000
 IR Inten    --    14.1476                 1.8321                11.9821
 Raman Activ --     0.0000                 0.0000                 0.0000
 Depolar     --     0.0000                 0.0000                 0.0000
 Atom AN      X      Y      Z        X      Y      Z        X      Y      Z
   1   7     0.02   0.01  -0.01     0.05  -0.00   0.02    -0.18   0.03  -0.07
   2   6     0.05  -0.02   0.02     0.01  -0.00  -0.00    -0.06   0.02  -0.00
   3   6    -0.01  -0.00   0.01    -0.07   0.01  -0.03     0.26  -0.05   0.09
   4   6    -0.04   0.02  -0.03     0.04  -0.02   0.02    -0.11   0.05  -0.04
   5   6     0.29  -0.10   0.16    -0.24   0.09  -0.13    -0.04   0.01  -0.01
   6   6     0.14  -0.06   0.08     0.31  -0.10   0.17     0.09  -0.04   0.06
   7   6    -0.11   0.06  -0.06    -0.05   0.01  -0.03    -0.03  -0.00  -0.01
   8  16    -0.05   0.00  -0.02    -0.01   0.01  -0.00     0.00   0.01  -0.01
   9  17     0.00   0.00   0.01     0.00   0.00   0.00    -0.00  -0.01  -0.01
  10   1    -0.01   0.02   0.01    -0.05   0.03  -0.00     0.18  -0.10   0.03
  11   1    -0.02  -0.06  -0.04    -0.04  -0.11  -0.08     0.14   0.38   0.29
  12   1    -0.04   0.05   0.03    -0.04   0.10   0.04     0.15  -0.38  -0.16
  13   1    -0.06   0.02   0.05     0.00   0.07   0.01     0.01  -0.26  -0.05
  14   1    -0.01  -0.01  -0.08    -0.02  -0.07  -0.02     0.09   0.25   0.11
  15   1    -0.02  -0.04   0.00     0.06  -0.00  -0.04    -0.21   0.03   0.17
  16   1     0.01   0.03  -0.00    -0.01  -0.03   0.07     0.02   0.06  -0.27
  17   1    -0.57   0.21  -0.32     0.41  -0.15   0.23     0.06  -0.03   0.03
  18   1    -0.40   0.14  -0.23    -0.56   0.20  -0.31    -0.19   0.06  -0.11
  19   1     0.25  -0.07   0.14     0.07  -0.03   0.05     0.03  -0.01   0.02
                     22                     23                     24
                        a                      a                      a 
 Frequencies --   921.8736              1015.3463              1064.1561
 Red. masses --     5.5462                10.2536                 4.7915
 Frc consts  --     0.0000                 0.0000                 0.0000
 IR Inten    --    35.9173                 5.8573                 0.8103
 Raman Activ --     0.0000                 0.0000                 0.0000
 Depolar     --     0.0000                 0.0000                 0.0000
 Atom AN      X      Y      Z        X      Y      Z        X      Y      Z
   1   7    -0.14  -0.35   0.09    -0.07   0.38   0.37     0.07  -0.04   0.03
   2   6    -0.07   0.06   0.24     0.00  -0.60  -0.34    -0.13   0.07  -0.07
   3   6     0.13   0.22  -0.26    -0.01  -0.02  -0.05     0.18  -0.13   0.04
   4   6    -0.01   0.07   0.12    -0.02   0.07   0.10    -0.14   0.08   0.04
   5   6     0.00  -0.01  -0.00     0.06   0.03  -0.08     0.12  -0.18  -0.30
   6   6    -0.02  -0.08  -0.01    -0.00  -0.00   0.01     0.04   0.22   0.06
   7   6    -0.01   0.01   0.02    -0.01   0.01   0.02    -0.03   0.15   0.14
   8  16     0.02  -0.01  -0.04     0.01  -0.01  -0.02    -0.00  -0.01  -0.01
   9  17    -0.00  -0.01   0.00    -0.00  -0.00  -0.00     0.00  -0.00   0.00
  10   1     0.04  -0.47  -0.41     0.02  -0.05  -0.07    -0.03  -0.01  -0.03
  11   1     0.06   0.23  -0.06     0.03   0.25   0.06    -0.02  -0.07  -0.06
  12   1     0.09   0.28  -0.01     0.05   0.24   0.07    -0.03   0.10   0.04
  13   1    -0.00   0.15   0.07    -0.02  -0.10  -0.08     0.12   0.08  -0.08
  14   1    -0.01   0.06   0.04     0.02  -0.11  -0.09    -0.02  -0.05   0.12
  15   1     0.10   0.10  -0.09     0.05   0.07  -0.03    -0.05   0.21   0.09
  16   1     0.07   0.12  -0.01     0.04   0.12  -0.00    -0.06  -0.23  -0.14
  17   1    -0.02  -0.03  -0.01     0.01  -0.01  -0.03    -0.10  -0.47  -0.16
  18   1    -0.02  -0.02  -0.02    -0.03   0.03   0.06    -0.07   0.16   0.21
  19   1     0.02   0.03  -0.01     0.02   0.03  -0.02    -0.17  -0.20   0.23
                     25                     26                     27
                        a                      a                      a 
 Frequencies --  1065.8616              1081.2940              1117.4365
 Red. masses --     4.7543                 2.1318                 8.2862
 Frc consts  --     0.0000                 0.0000                 0.0000
 IR Inten    --     5.7652                 5.6272                19.8646
 Raman Activ --     0.0000                 0.0000                 0.0000
 Depolar     --     0.0000                 0.0000                 0.0000
 Atom AN      X      Y      Z        X      Y      Z        X      Y      Z
   1   7    -0.11   0.01  -0.07     0.01  -0.00  -0.05     0.09   0.12  -0.10
   2   6     0.25   0.01   0.08     0.00   0.04   0.06    -0.28  -0.28   0.38
   3   6    -0.31   0.02  -0.11    -0.01  -0.10  -0.10     0.26   0.28  -0.41
   4   6     0.14  -0.06   0.11    -0.05   0.03   0.15     0.02   0.08   0.06
   5   6     0.05  -0.12  -0.21     0.00   0.05   0.02    -0.01   0.01   0.01
   6   6     0.03   0.16   0.04    -0.04   0.01   0.07    -0.01  -0.05  -0.02
   7   6    -0.01   0.10   0.09    -0.01  -0.10  -0.05    -0.02   0.01   0.03
   8  16    -0.01  -0.01   0.01     0.04  -0.01  -0.08     0.01   0.01  -0.00
   9  17    -0.00  -0.00  -0.00     0.00   0.00  -0.00     0.00   0.00  -0.00
  10   1     0.05  -0.01   0.03    -0.00   0.04   0.03    -0.03   0.20   0.17
  11   1     0.03   0.12   0.09    -0.00  -0.03   0.00    -0.03  -0.15   0.03
  12   1     0.05  -0.16  -0.08    -0.01  -0.05  -0.01    -0.07  -0.14   0.01
  13   1    -0.16  -0.05   0.12    -0.02  -0.00   0.02    -0.14  -0.25   0.11
  14   1     0.06   0.15  -0.20    -0.00   0.02  -0.01    -0.11  -0.17   0.11
  15   1     0.06  -0.39  -0.15    -0.01  -0.09  -0.03     0.06  -0.01  -0.11
  16   1     0.07   0.29   0.23     0.00  -0.03  -0.00     0.08   0.08  -0.09
  17   1    -0.03  -0.27  -0.08    -0.06  -0.23  -0.03    -0.04  -0.16  -0.01
  18   1    -0.02   0.09   0.11    -0.20   0.22   0.51     0.03  -0.05  -0.07
  19   1    -0.17  -0.15   0.15     0.37   0.46  -0.38    -0.04  -0.04   0.04
                     28                     29                     30
                        a                      a                      a 
 Frequencies --  1188.3897              1192.5794              1202.5305
 Red. masses --     7.9592                 6.2982                 3.8133
 Frc consts  --     0.0000                 0.0000                 0.0000
 IR Inten    --    14.6794                17.0561                 5.8619
 Raman Activ --     0.0000                 0.0000                 0.0000
 Depolar     --     0.0000                 0.0000                 0.0000
 Atom AN      X      Y      Z        X      Y      Z        X      Y      Z
   1   7    -0.03   0.02  -0.03     0.09  -0.01  -0.02    -0.22   0.09  -0.13
   2   6     0.10   0.03  -0.02    -0.12   0.06   0.04     0.30  -0.11   0.19
   3   6    -0.05  -0.33  -0.15     0.02  -0.23  -0.15    -0.01   0.03  -0.05
   4   6    -0.08   0.39   0.38    -0.21   0.05   0.46    -0.11  -0.02   0.03
   5   6     0.12   0.32  -0.01     0.10   0.00  -0.17     0.00  -0.06  -0.03
   6   6    -0.01  -0.12  -0.05     0.03  -0.11  -0.12     0.01  -0.02  -0.02
   7   6    -0.10  -0.11   0.12     0.10   0.16  -0.07     0.05   0.06  -0.04
   8  16     0.02  -0.01  -0.05     0.01  -0.05  -0.05    -0.00  -0.01  -0.01
   9  17    -0.00  -0.00  -0.00     0.00   0.00   0.00    -0.00  -0.00  -0.00
  10   1     0.02   0.01   0.01    -0.03   0.05   0.02     0.10   0.01   0.08
  11   1     0.01   0.03   0.03    -0.01  -0.09  -0.05     0.02   0.15   0.17
  12   1     0.01  -0.04  -0.02    -0.03   0.01   0.02     0.05  -0.21  -0.11
  13   1     0.02   0.10   0.01     0.03  -0.06  -0.03    -0.07   0.33   0.18
  14   1     0.01  -0.00  -0.07     0.02   0.13   0.07    -0.08  -0.35  -0.20
  15   1    -0.04  -0.17  -0.04    -0.02  -0.08  -0.03     0.14   0.35  -0.03
  16   1    -0.07  -0.28  -0.01     0.05   0.11  -0.05    -0.10  -0.31   0.03
  17   1    -0.05  -0.20  -0.04     0.17   0.54   0.03     0.05   0.18   0.02
  18   1     0.14  -0.20  -0.37    -0.11   0.11   0.26    -0.06   0.06   0.14
  19   1     0.03   0.04  -0.02    -0.12  -0.14   0.12    -0.04  -0.05   0.04
                     31                     32                     33
                        a                      a                      a 
 Frequencies --  1252.4725              1283.5006              1318.5453
 Red. masses --     1.9313                 4.3166                 7.1818
 Frc consts  --     0.0000                 0.0000                 0.0000
 IR Inten    --     6.7945                 9.2418                 1.7793
 Raman Activ --     0.0000                 0.0000                 0.0000
 Depolar     --     0.0000                 0.0000                 0.0000
 Atom AN      X      Y      Z        X      Y      Z        X      Y      Z
   1   7     0.08  -0.03   0.07     0.06  -0.03  -0.13     0.05  -0.03  -0.10
   2   6     0.14  -0.01   0.04    -0.09  -0.16   0.16    -0.08  -0.23   0.03
   3   6    -0.18   0.08  -0.09    -0.11  -0.27  -0.01    -0.04  -0.03   0.05
   4   6    -0.04   0.02  -0.02    -0.04  -0.06   0.01     0.12   0.11  -0.15
   5   6    -0.00  -0.01   0.02     0.07  -0.03  -0.15    -0.07   0.27   0.29
   6   6    -0.00  -0.02  -0.01     0.02   0.21   0.10    -0.04  -0.39  -0.18
   7   6     0.01   0.01  -0.01    -0.10  -0.14   0.09     0.14   0.20  -0.13
   8  16    -0.00  -0.00  -0.00     0.01   0.01  -0.00    -0.02  -0.02   0.02
   9  17     0.00  -0.00  -0.00    -0.00   0.00  -0.00     0.00  -0.00  -0.00
  10   1    -0.02  -0.02  -0.03    -0.04   0.13   0.10    -0.03   0.09   0.06
  11   1    -0.00  -0.05  -0.07     0.03  -0.02   0.03     0.04   0.02   0.07
  12   1     0.01   0.05   0.03    -0.06  -0.02   0.01    -0.07   0.03   0.03
  13   1    -0.20  -0.52   0.06     0.06   0.25   0.04     0.09   0.31  -0.00
  14   1     0.16   0.45  -0.08     0.09   0.33  -0.00     0.11   0.33  -0.00
  15   1     0.17   0.33  -0.09     0.17   0.48  -0.02     0.03   0.03  -0.01
  16   1    -0.16  -0.42   0.12     0.12   0.37   0.00    -0.00   0.03  -0.01
  17   1    -0.00   0.01   0.01     0.03   0.01  -0.04    -0.10  -0.22   0.04
  18   1    -0.01   0.01   0.02     0.10  -0.04  -0.20    -0.13   0.01   0.23
  19   1    -0.00  -0.01   0.01     0.09   0.11  -0.08    -0.12  -0.16   0.12
                     34                     35                     36
                        a                      a                      a 
 Frequencies --  1351.4362              1369.0913              1399.4922
 Red. masses --     5.0288                 2.7310                 1.6780
 Frc consts  --     0.0000                 0.0000                 0.0000
 IR Inten    --    14.0788               135.6235                66.9898
 Raman Activ --     0.0000                 0.0000                 0.0000
 Depolar     --     0.0000                 0.0000                 0.0000
 Atom AN      X      Y      Z        X      Y      Z        X      Y      Z
   1   7    -0.06   0.09   0.12    -0.08   0.29   0.07    -0.01  -0.04   0.17
   2   6     0.07   0.26   0.01    -0.08  -0.16   0.03    -0.04  -0.11   0.05
   3   6    -0.09  -0.35  -0.03     0.02   0.10   0.02     0.03   0.07  -0.01
   4   6     0.05   0.04  -0.08    -0.01  -0.01   0.01    -0.00   0.01   0.00
   5   6     0.01   0.22   0.12    -0.00  -0.04  -0.02    -0.01  -0.04  -0.01
   6   6    -0.01  -0.18  -0.09     0.00   0.04   0.02    -0.00   0.02   0.01
   7   6     0.05   0.07  -0.03    -0.01  -0.02   0.01    -0.00  -0.00  -0.00
   8  16    -0.01  -0.01   0.02     0.00   0.00  -0.00     0.00   0.00  -0.00
   9  17    -0.00   0.00   0.00     0.00   0.01   0.00     0.00  -0.00   0.01
  10   1     0.08  -0.11  -0.06     0.39  -0.33  -0.13    -0.29   0.20   0.04
  11   1    -0.11  -0.12  -0.19    -0.23  -0.55  -0.08    -0.05   0.26  -0.67
  12   1     0.18  -0.12  -0.10     0.20  -0.22  -0.14     0.38  -0.25  -0.22
  13   1    -0.07  -0.29   0.00     0.10   0.19  -0.03     0.06   0.14  -0.00
  14   1    -0.11  -0.30  -0.01     0.06   0.22  -0.04     0.03   0.09  -0.01
  15   1     0.07   0.35   0.01    -0.01  -0.08   0.00    -0.05  -0.05   0.02
  16   1     0.13   0.34   0.03    -0.03  -0.06  -0.01    -0.01  -0.06   0.02
  17   1    -0.06  -0.15   0.00     0.01   0.02   0.00    -0.01   0.02  -0.01
  18   1    -0.04  -0.01   0.07     0.02  -0.00  -0.02    -0.00   0.00  -0.01
  19   1    -0.04  -0.06   0.05     0.02   0.02  -0.01     0.01   0.00   0.00
                     37                     38                     39
                        a                      a                      a 
 Frequencies --  1444.3121              1471.7432              1484.9116
 Red. masses --     1.9230                 2.2715                 2.1829
 Frc consts  --     0.0000                 0.0000                 0.0000
 IR Inten    --    86.0806                 9.3879                 8.3371
 Raman Activ --     0.0000                 0.0000                 0.0000
 Depolar     --     0.0000                 0.0000                 0.0000
 Atom AN      X      Y      Z        X      Y      Z        X      Y      Z
   1   7    -0.18  -0.17  -0.09     0.01   0.01  -0.01     0.02   0.02   0.00
   2   6    -0.03   0.01  -0.03    -0.01  -0.04   0.01     0.11  -0.04  -0.25
   3   6     0.02   0.01  -0.02     0.11  -0.04  -0.25     0.01   0.00  -0.02
   4   6     0.00   0.01   0.00     0.04   0.08  -0.02    -0.03  -0.08   0.01
   5   6    -0.00  -0.01  -0.00    -0.03  -0.07   0.01     0.03   0.07  -0.01
   6   6    -0.00   0.00   0.01    -0.05   0.00   0.09     0.05  -0.00  -0.08
   7   6     0.00   0.00  -0.01     0.05   0.01  -0.08    -0.04  -0.01   0.07
   8  16     0.00   0.00  -0.00     0.00  -0.00  -0.00    -0.00  -0.00   0.00
   9  17    -0.00  -0.00   0.00    -0.00   0.00  -0.00     0.00   0.00   0.00
  10   1     0.40   0.13   0.53    -0.01  -0.01  -0.02    -0.02  -0.03  -0.06
  11   1    -0.03  -0.01  -0.03     0.01  -0.01   0.05    -0.01  -0.04  -0.03
  12   1     0.40   0.51  -0.18    -0.05  -0.01   0.03    -0.02  -0.08  -0.00
  13   1    -0.06  -0.02   0.02     0.06   0.02  -0.03    -0.55   0.20   0.29
  14   1     0.01   0.02   0.09     0.00   0.03  -0.06     0.15  -0.00   0.65
  15   1    -0.04  -0.01   0.01    -0.55   0.16   0.29    -0.06   0.02   0.03
  16   1     0.01  -0.01   0.03     0.14  -0.04   0.66     0.02   0.00   0.07
  17   1     0.00   0.00   0.00     0.00   0.01   0.01     0.00  -0.00  -0.01
  18   1     0.00  -0.00   0.00    -0.00  -0.02  -0.01     0.00   0.01   0.00
  19   1     0.00  -0.00  -0.00    -0.00  -0.02  -0.01     0.00   0.02   0.01
                     40                     41                     42
                        a                      a                      a 
 Frequencies --  1490.5568              1583.1498              2929.8362
 Red. masses --    11.0476                11.4726                 1.9553
 Frc consts  --     0.0000                 0.0000                 0.0000
 IR Inten    --    18.5621                 0.5046              1292.5972
 Raman Activ --     0.0000                 0.0000                 0.0000
 Depolar     --     0.0000                 0.0000                 0.0000
 Atom AN      X      Y      Z        X      Y      Z        X      Y      Z
   1   7     0.00   0.01   0.00     0.00   0.00   0.00     0.22  -0.06  -0.04
   2   6     0.03   0.01  -0.05     0.00  -0.00  -0.01    -0.10   0.03  -0.02
   3   6    -0.04  -0.13  -0.00    -0.03  -0.12  -0.03     0.08  -0.03   0.07
   4   6     0.14   0.41   0.01     0.24   0.51  -0.10     0.00   0.00   0.00
   5   6    -0.12  -0.32   0.02    -0.25  -0.44   0.17     0.00  -0.00  -0.00
   6   6    -0.28   0.02   0.50     0.23   0.06  -0.36     0.00   0.00  -0.00
   7   6     0.26   0.06  -0.42    -0.20  -0.08   0.30    -0.00   0.00   0.00
   8  16     0.01  -0.00  -0.01     0.00  -0.01  -0.01     0.00  -0.00  -0.00
   9  17    -0.00   0.00   0.00    -0.00   0.00  -0.00    -0.01   0.00   0.00
  10   1    -0.00  -0.01  -0.02    -0.00  -0.00  -0.00     0.00  -0.02   0.02
  11   1    -0.00  -0.01  -0.01    -0.00  -0.00   0.00    -0.76   0.25   0.15
  12   1    -0.00  -0.02  -0.00    -0.00  -0.00   0.00    -0.00  -0.00  -0.03
  13   1    -0.11   0.03   0.06    -0.01   0.01   0.00     0.06  -0.02   0.14
  14   1     0.03  -0.01   0.12     0.00   0.00   0.01     0.30  -0.09  -0.06
  15   1     0.11  -0.02  -0.06     0.02   0.01  -0.01    -0.14   0.04  -0.29
  16   1    -0.02   0.03  -0.13     0.01   0.02  -0.01    -0.17   0.05   0.05
  17   1    -0.01   0.00   0.03    -0.01   0.12   0.09    -0.00   0.00   0.00
  18   1    -0.00  -0.09  -0.05    -0.01   0.11   0.08    -0.00  -0.00   0.00
  19   1     0.00  -0.09  -0.05     0.00   0.06   0.04    -0.00  -0.00  -0.00
                     43                     44                     45
                        a                      a                      a 
 Frequencies --  2932.4887              2958.4234              2967.9466
 Red. masses --     1.9421                 1.9062                 1.6113
 Frc consts  --     0.0000                 0.0000                 0.0000
 IR Inten    --   308.9715                49.5924                22.0572
 Raman Activ --     0.0000                 0.0000                 0.0000
 Depolar     --     0.0000                 0.0000                 0.0000
 Atom AN      X      Y      Z        X      Y      Z        X      Y      Z
   1   7    -0.12   0.03   0.02    -0.07   0.02   0.01    -0.02   0.01   0.00
   2   6    -0.02   0.01  -0.02    -0.23   0.08  -0.08    -0.08   0.02  -0.08
   3   6     0.21  -0.07   0.14    -0.01   0.00  -0.10    -0.15   0.05   0.13
   4   6     0.00   0.00   0.00    -0.00  -0.00  -0.00    -0.00   0.01   0.01
   5   6    -0.00  -0.00  -0.00    -0.00   0.00   0.00     0.00  -0.00  -0.00
   6   6    -0.00  -0.00   0.00     0.00  -0.00  -0.00    -0.00  -0.00   0.00
   7   6     0.00  -0.00  -0.00    -0.00   0.00   0.00     0.00  -0.00  -0.00
   8  16     0.00  -0.00   0.00    -0.00  -0.00   0.00     0.00  -0.00  -0.00
   9  17     0.01  -0.00  -0.00     0.00  -0.00  -0.00     0.00  -0.00  -0.00
  10   1    -0.00   0.01  -0.01     0.00   0.01  -0.01    -0.00  -0.00  -0.00
  11   1     0.40  -0.13  -0.08     0.23  -0.07  -0.05     0.08  -0.03  -0.02
  12   1    -0.00  -0.00   0.01    -0.00   0.00   0.00    -0.00  -0.00  -0.00
  13   1     0.06  -0.01   0.11     0.19  -0.05   0.40     0.17  -0.04   0.32
  14   1     0.04  -0.02  -0.01     0.65  -0.22  -0.15     0.10  -0.03  -0.03
  15   1    -0.31   0.09  -0.63     0.18  -0.05   0.33    -0.21   0.06  -0.34
  16   1    -0.43   0.14   0.12    -0.15   0.05   0.02     0.74  -0.24  -0.14
  17   1     0.00   0.00   0.00     0.00  -0.00  -0.00    -0.01   0.00   0.01
  18   1     0.00   0.00  -0.00    -0.00  -0.00   0.00     0.00   0.00  -0.00
  19   1    -0.00   0.00   0.00    -0.00  -0.00  -0.00    -0.00   0.00   0.00
                     46                     47                     48
                        a                      a                      a 
 Frequencies --  2986.5441              3081.9922              3096.2619
 Red. masses --     1.5396                 1.8254                 1.8846
 Frc consts  --     0.0000                 0.0000                 0.0000
 IR Inten    --    10.8345                12.6682                13.2390
 Raman Activ --     0.0000                 0.0000                 0.0000
 Depolar     --     0.0000                 0.0000                 0.0000
 Atom AN      X      Y      Z        X      Y      Z        X      Y      Z
   1   7     0.03  -0.01  -0.00     0.00  -0.00  -0.00     0.00   0.00  -0.00
   2   6     0.05  -0.02  -0.20     0.00   0.00   0.00    -0.00   0.00   0.00
   3   6     0.03  -0.01  -0.05     0.00  -0.00  -0.00    -0.00  -0.00   0.00
   4   6     0.00  -0.00  -0.00     0.00  -0.00  -0.00     0.00   0.01   0.00
   5   6    -0.00   0.00   0.00     0.04   0.00  -0.07    -0.13  -0.00   0.23
   6   6    -0.00  -0.00  -0.00    -0.11  -0.22   0.06    -0.04  -0.08   0.02
   7   6    -0.00  -0.00   0.00    -0.00   0.01   0.01    -0.00   0.01   0.01
   8  16    -0.00   0.00   0.00     0.00   0.00   0.00     0.00   0.00  -0.00
   9  17    -0.00   0.00   0.00     0.00  -0.00   0.00     0.00   0.00  -0.00
  10   1     0.00  -0.00  -0.00    -0.00  -0.00   0.00    -0.00  -0.00   0.00
  11   1    -0.09   0.03   0.02    -0.00   0.00   0.00    -0.00   0.00   0.00
  12   1    -0.01   0.00  -0.02    -0.00   0.00  -0.00    -0.00   0.00  -0.00
  13   1     0.37  -0.09   0.65    -0.00  -0.00  -0.00    -0.00   0.00  -0.00
  14   1    -0.54   0.18   0.08    -0.00   0.00   0.00     0.00  -0.00  -0.00
  15   1     0.07  -0.02   0.13     0.00  -0.00   0.00    -0.01   0.00  -0.01
  16   1    -0.17   0.05   0.03    -0.01   0.00   0.00     0.01  -0.00  -0.00
  17   1     0.00  -0.00  -0.01    -0.16   0.00   0.28     0.44  -0.01  -0.79
  18   1     0.00   0.00   0.00     0.39   0.79  -0.21     0.13   0.27  -0.07
  19   1    -0.00  -0.00   0.00     0.02  -0.06  -0.07     0.01  -0.04  -0.04
                     49                     50                     51
                        a                      a                      a 
 Frequencies --  3143.3445              3205.3111              3246.5189
 Red. masses --     1.8888                 1.8043                 1.7271
 Frc consts  --     0.0000                 0.0000                 0.0000
 IR Inten    --     3.1477                49.8774                34.2218
 Raman Activ --     0.0000                 0.0000                 0.0000
 Depolar     --     0.0000                 0.0000                 0.0000
 Atom AN      X      Y      Z        X      Y      Z        X      Y      Z
   1   7    -0.00   0.00  -0.00    -0.09  -0.17   0.15    -0.11   0.01  -0.21
   2   6    -0.00   0.00  -0.00    -0.00  -0.00   0.00    -0.00  -0.00  -0.01
   3   6    -0.00  -0.00   0.00     0.00   0.00   0.00     0.00   0.00   0.00
   4   6     0.00  -0.00  -0.00    -0.00   0.00   0.00     0.00   0.00  -0.00
   5   6     0.00  -0.00  -0.01    -0.00  -0.00   0.00    -0.00   0.00   0.00
   6   6     0.02   0.03  -0.01    -0.00  -0.00   0.00    -0.00  -0.00   0.00
   7   6    -0.05   0.18   0.21    -0.00   0.00   0.00     0.00  -0.00  -0.00
   8  16    -0.00  -0.00   0.00     0.00   0.00   0.00     0.00   0.00   0.00
   9  17     0.00   0.00  -0.00     0.00  -0.00  -0.00     0.00  -0.00   0.00
  10   1    -0.00  -0.00   0.00     0.44   0.67  -0.53     0.02   0.05  -0.06
  11   1     0.00  -0.00  -0.00    -0.05  -0.00   0.02    -0.05   0.02  -0.01
  12   1     0.00  -0.00   0.00    -0.04  -0.01  -0.04     0.46  -0.10   0.85
  13   1     0.00  -0.00   0.00    -0.00   0.00  -0.00     0.01  -0.00   0.02
  14   1    -0.00  -0.00  -0.00    -0.00   0.00   0.00    -0.00   0.00   0.00
  15   1    -0.00   0.00  -0.00    -0.00   0.00  -0.00    -0.00  -0.00  -0.00
  16   1     0.00  -0.00  -0.00     0.00  -0.00  -0.00    -0.00   0.00  -0.00
  17   1    -0.01   0.00   0.02     0.00   0.00  -0.00     0.00  -0.00  -0.00
  18   1    -0.04  -0.09   0.02     0.00   0.00  -0.00     0.00   0.00  -0.00
  19   1     0.16  -0.64  -0.69     0.00  -0.00  -0.00    -0.00   0.00   0.00
