 Entering Gaussian System
 *********************************************
 Gaussian 98:
 frequency output generated by the xtb code
 *********************************************
                         Standard orientation:
 --------------------------------------------------------------------
  Center     Atomic     Atomic              Coordinates (Angstroms)
  Number     Number      Type              X           Y           Z
 --------------------------------------------------------------------
    1          7             0        6.331843   -2.532221    1.629582
    2          6             0        7.367245   -1.672737    0.989237
    3          6             0        6.955883   -1.228867   -0.413262
    4          6             0        5.806788   -0.281721   -0.404270
    5          6             0        5.895104    1.079128   -0.489883
    6          6             0        4.650348    1.739715   -0.458519
    7          6             0        3.571524    0.889561   -0.344674
    8          6             0        2.196716    1.259478   -0.297670
    9          6             0        1.683332    2.547871   -0.351510
   10          6             0        0.292723    2.609748   -0.289426
   11          6             0       -0.325794    1.369802   -0.186211
   12          6             0       -1.719665    1.122559   -0.111306
   13          6             0       -2.732020    2.074634   -0.120054
   14          6             0       -4.015432    1.538411   -0.037569
   15          6             0       -4.047239    0.154021    0.037904
   16          6             0       -5.219323   -0.648253    0.127259
   17          6             0       -5.258850   -2.023742    0.198522
   18          6             0       -6.564203   -2.550725    0.278167
   19          6             0       -7.536008   -1.598680    0.269709
   20         16             0       -6.847940   -0.030064    0.162644
   21         16             0       -2.425803   -0.459997    0.005979
   22         16             0        0.888390    0.129025   -0.163593
   23         16             0        4.149726   -0.750412   -0.265313
   24          1             0        5.413405   -2.068546    1.580875
   25          1             0        6.543045   -2.731160    2.620122
   26          1             0        6.243057   -3.434781    1.138164
   27          1             0        8.319773   -2.216672    0.961145
   28          1             0        7.545052   -0.788307    1.612615
   29          1             0        6.687026   -2.106547   -1.010870
   30          1             0        7.800703   -0.761633   -0.932966
   31          1             0        6.837517    1.599023   -0.579407
   32          1             0        4.551283    2.812456   -0.523671
   33          1             0        2.307317    3.424257   -0.436334
   34          1             0       -0.256353    3.538031   -0.322295
   35          1             0       -2.540654    3.134483   -0.185017
   36          1             0       -4.912169    2.139316   -0.032997
   37          1             0       -4.368384   -2.633927    0.191880
   38          1             0       -6.770998   -3.610084    0.339290
   39          1             0       -8.593319   -1.784315    0.321773
 --------------------------------------------------------------------
     1 basis functions        1 primitive gaussians
     1 alpha electrons        1 beta electrons

 Harmonic frequencies (cm**-1), IR intensities (km*mol⁻¹),
 Raman scattering activities (A**4/amu), Raman depolarization ratios,
 reduced masses (AMU), force constants (mDyne/A) and normal coordinates:
                      1                      2                      3
                        a                      a                      a 
 Frequencies --   -43.0278               -25.3333                32.6598
 Red. masses --    17.5259                19.2938                15.8797
 Frc consts  --     0.0000                 0.0000                 0.0000
 IR Inten    --     2.2058                 3.2808                 8.3213
 Raman Activ --     0.0000                 0.0000                 0.0000
 Depolar     --     0.0000                 0.0000                 0.0000
 Atom AN      X      Y      Z        X      Y      Z        X      Y      Z
   1   7     0.07  -0.10  -0.10    -0.07   0.03  -0.10     0.36   0.16   0.03
   2   6     0.05  -0.08  -0.10    -0.04   0.00  -0.08     0.24   0.22  -0.02
   3   6    -0.01   0.02  -0.05    -0.00  -0.02  -0.10     0.16   0.15  -0.02
   4   6    -0.01   0.02   0.06    -0.00  -0.01  -0.14     0.09   0.07  -0.01
   5   6     0.01   0.04   0.29    -0.02  -0.03  -0.39    -0.00   0.07  -0.00
   6   6     0.01   0.04   0.29    -0.01  -0.02  -0.32    -0.04  -0.01   0.01
   7   6    -0.00   0.02   0.06     0.00   0.00   0.00     0.01  -0.07   0.01
   8   6    -0.01   0.02   0.02     0.01   0.01   0.11    -0.00  -0.13   0.03
   9   6    -0.01   0.02   0.06     0.01   0.01   0.20    -0.02  -0.13   0.11
  10   6    -0.01   0.01   0.03     0.01   0.01   0.21    -0.01  -0.14   0.10
  11   6    -0.01   0.01  -0.01     0.01   0.01   0.13    -0.01  -0.15   0.02
  12   6    -0.01   0.00  -0.04     0.01   0.01   0.09    -0.02  -0.12   0.01
  13   6    -0.01  -0.00  -0.14     0.00   0.00   0.04     0.02  -0.08   0.04
  14   6    -0.01  -0.01  -0.13     0.00  -0.00  -0.01     0.00  -0.02   0.03
  15   6    -0.00  -0.00  -0.01     0.00  -0.00   0.00    -0.06  -0.02  -0.01
  16   6    -0.00   0.00   0.07     0.01  -0.00  -0.01    -0.11   0.05  -0.01
  17   6     0.02   0.02   0.38     0.01   0.01   0.17    -0.20   0.05   0.00
  18   6     0.02   0.01   0.35     0.01   0.00   0.12    -0.23   0.13  -0.00
  19   6    -0.00  -0.01   0.01     0.00  -0.01  -0.12    -0.17   0.19  -0.02
  20  16    -0.02  -0.03  -0.46    -0.01  -0.03  -0.46    -0.12   0.24  -0.05
  21  16     0.00   0.01   0.15     0.01   0.01   0.12    -0.15  -0.16  -0.06
  22  16    -0.01   0.01  -0.07     0.01   0.00   0.10     0.00  -0.24  -0.10
  23  16    -0.03   0.00  -0.31     0.03   0.03   0.42     0.19  -0.06  -0.00
  24   1     0.02  -0.02   0.01    -0.02   0.01  -0.05     0.08   0.02   0.02
  25   1     0.04  -0.05  -0.04    -0.03   0.02  -0.02     0.11   0.05   0.01
  26   1     0.00  -0.01  -0.05    -0.01   0.00  -0.02     0.12   0.04   0.01
  27   1     0.01  -0.03  -0.05    -0.01  -0.00  -0.02     0.08   0.09  -0.01
  28   1     0.03  -0.03  -0.02    -0.01   0.00  -0.03     0.05   0.07  -0.01
  29   1    -0.01   0.02  -0.03     0.00  -0.01  -0.03     0.06   0.03   0.00
  30   1    -0.01   0.01  -0.02     0.00  -0.01  -0.03     0.03   0.06  -0.02
  31   1     0.00   0.01   0.13    -0.01  -0.01  -0.18    -0.01   0.04  -0.00
  32   1     0.00   0.01   0.13    -0.01  -0.01  -0.15    -0.03  -0.00   0.00
  33   1    -0.00   0.01   0.03     0.00   0.00   0.07    -0.01  -0.03   0.05
  34   1    -0.00   0.00   0.02     0.00   0.00   0.08    -0.00  -0.04   0.05
  35   1    -0.01  -0.00  -0.06     0.00   0.00   0.01     0.02  -0.02   0.02
  36   1    -0.00  -0.00  -0.06     0.00  -0.00  -0.01     0.01   0.01   0.02
  37   1     0.01   0.01   0.18     0.01   0.00   0.10    -0.07  -0.00   0.00
  38   1     0.01   0.01   0.16     0.01   0.00   0.07    -0.09   0.04   0.00
  39   1    -0.00  -0.00  -0.03    -0.00  -0.01  -0.07    -0.05   0.07  -0.01
                      4                      5                      6
                        a                      a                      a 
 Frequencies --    38.9156                47.1589                50.8610
 Red. masses --    22.2710                15.3529                14.8524
 Frc consts  --     0.0000                 0.0000                 0.0000
 IR Inten    --     3.5490                 4.9059                35.4682
 Raman Activ --     0.0000                 0.0000                 0.0000
 Depolar     --     0.0000                 0.0000                 0.0000
 Atom AN      X      Y      Z        X      Y      Z        X      Y      Z
   1   7    -0.15   0.08   0.13    -0.22   0.11   0.04    -0.50   0.12  -0.19
   2   6    -0.09   0.03   0.14    -0.11   0.06   0.13    -0.20  -0.01   0.09
   3   6    -0.02  -0.04   0.10     0.04   0.03   0.08     0.11   0.12   0.04
   4   6    -0.01  -0.03   0.01     0.03   0.01  -0.02     0.10   0.10  -0.05
   5   6     0.01  -0.03  -0.00     0.02   0.02   0.02     0.05   0.10   0.01
   6   6     0.01  -0.02  -0.03     0.01   0.00  -0.03     0.03   0.06   0.02
   7   6     0.00  -0.00  -0.04     0.02  -0.01  -0.10     0.05   0.02   0.00
   8   6     0.01   0.01  -0.01     0.01  -0.02  -0.12     0.04  -0.03   0.02
   9   6     0.03   0.03   0.31     0.00  -0.03  -0.21     0.01  -0.04   0.05
  10   6     0.03   0.04   0.30     0.00  -0.04  -0.13     0.01  -0.08   0.05
  11   6     0.01   0.02  -0.04     0.02  -0.03   0.03     0.04  -0.10   0.03
  12   6     0.01   0.01  -0.07     0.02  -0.02   0.15     0.04  -0.11  -0.01
  13   6     0.01   0.01   0.05     0.04  -0.00   0.42     0.05  -0.10  -0.18
  14   6     0.01   0.01   0.07     0.04   0.00   0.41     0.04  -0.07  -0.18
  15   6     0.02   0.00  -0.02     0.02  -0.01   0.13     0.02  -0.06  -0.01
  16   6     0.03  -0.01   0.03     0.00  -0.00   0.05    -0.01  -0.02   0.01
  17   6     0.04  -0.00   0.09    -0.01   0.00   0.14    -0.08  -0.02  -0.03
  18   6     0.05  -0.01   0.15    -0.02   0.02   0.06    -0.11   0.05  -0.04
  19   6     0.04  -0.02   0.13    -0.02   0.02  -0.11    -0.06   0.10   0.01
  20  16     0.03  -0.03   0.08     0.01   0.02  -0.29     0.04   0.11   0.10
  21  16     0.02   0.01  -0.31     0.00  -0.06  -0.24     0.03  -0.14   0.31
  22  16    -0.02  -0.02  -0.67     0.05  -0.03   0.14     0.12  -0.11  -0.00
  23  16    -0.03  -0.02  -0.03     0.04  -0.02  -0.25     0.18   0.05  -0.14
  24   1    -0.04   0.02  -0.00    -0.06   0.03  -0.06    -0.12   0.05  -0.18
  25   1    -0.07   0.05   0.05    -0.11   0.06   0.03    -0.25   0.07  -0.02
  26   1    -0.02   0.01   0.06    -0.03   0.01   0.04    -0.09   0.02  -0.03
  27   1    -0.03   0.01   0.06    -0.03   0.01   0.07    -0.08  -0.04   0.07
  28   1    -0.03   0.02   0.03    -0.04   0.02   0.04    -0.06  -0.02   0.05
  29   1     0.00  -0.02   0.04     0.03   0.00   0.02     0.06   0.05  -0.03
  30   1     0.00  -0.02   0.03     0.02   0.01   0.04     0.06   0.05   0.07
  31   1     0.00  -0.01   0.00     0.01   0.01   0.03     0.01   0.04   0.01
  32   1     0.01  -0.01  -0.02     0.00   0.00   0.00    -0.00   0.02   0.02
  33   1     0.01   0.01   0.17    -0.00  -0.01  -0.10    -0.00  -0.01   0.02
  34   1     0.01   0.02   0.16    -0.00  -0.01  -0.06    -0.00  -0.03   0.02
  35   1     0.00   0.01   0.03     0.02   0.00   0.19     0.02  -0.03  -0.09
  36   1     0.00   0.00   0.05     0.01   0.01   0.18     0.01  -0.02  -0.09
  37   1     0.01   0.00   0.03    -0.00  -0.00   0.08    -0.03  -0.02  -0.02
  38   1     0.02  -0.00   0.06    -0.01   0.01   0.03    -0.05   0.02  -0.02
  39   1     0.01  -0.01   0.05    -0.01   0.01  -0.06    -0.02   0.04   0.01
                      7                      8                      9
                        a                      a                      a 
 Frequencies --    63.2439                77.7025                85.7547
 Red. masses --    20.6693                16.3428                16.7833
 Frc consts  --     0.0000                 0.0000                 0.0000
 IR Inten    --     5.0857                20.5821                 4.3384
 Raman Activ --     0.0000                 0.0000                 0.0000
 Depolar     --     0.0000                 0.0000                 0.0000
 Atom AN      X      Y      Z        X      Y      Z        X      Y      Z
   1   7    -0.08  -0.26  -0.24    -0.13   0.45   0.07     0.04   0.05   0.20
   2   6    -0.03  -0.16  -0.05     0.04   0.03  -0.19    -0.02  -0.09  -0.09
   3   6     0.04   0.10   0.02    -0.05  -0.11  -0.20    -0.21  -0.17  -0.06
   4   6     0.05   0.11   0.11    -0.03  -0.08  -0.12    -0.10  -0.03   0.00
   5   6     0.02   0.10   0.03     0.00  -0.08   0.02     0.03  -0.04  -0.00
   6   6     0.01   0.09   0.04     0.02  -0.06   0.17     0.09   0.08  -0.01
   7   6     0.02   0.08   0.11     0.01  -0.04   0.16     0.02   0.17  -0.03
   8   6     0.01   0.04   0.05     0.01  -0.02   0.20     0.03   0.18  -0.03
   9   6    -0.03   0.02  -0.07     0.03  -0.02   0.13    -0.05   0.14   0.00
  10   6    -0.03  -0.03  -0.16     0.03  -0.01   0.05    -0.06   0.03   0.02
  11   6    -0.00  -0.04  -0.12     0.01  -0.00   0.05     0.03  -0.02   0.01
  12   6     0.00  -0.06  -0.15     0.01   0.00  -0.06     0.05  -0.12   0.03
  13   6     0.01  -0.05  -0.01     0.01   0.01  -0.05     0.02  -0.16   0.03
  14   6     0.01  -0.05   0.02     0.01   0.01  -0.11     0.05  -0.20   0.04
  15   6    -0.00  -0.05  -0.09     0.01   0.00  -0.16     0.08  -0.20   0.03
  16   6    -0.02  -0.02  -0.00     0.01   0.00  -0.10     0.03  -0.13   0.01
  17   6    -0.06  -0.02   0.09     0.02   0.01  -0.03    -0.15  -0.12  -0.01
  18   6    -0.07   0.03   0.21     0.03   0.00   0.10    -0.23   0.06  -0.04
  19   6    -0.04   0.06   0.19     0.03  -0.00   0.15    -0.10   0.19  -0.05
  20  16     0.01   0.06   0.08     0.02  -0.00   0.03     0.18   0.16  -0.04
  21  16    -0.02  -0.11  -0.50     0.00  -0.00  -0.36     0.17  -0.25   0.06
  22  16     0.07   0.01   0.07     0.00  -0.01   0.36     0.20   0.13  -0.07
  23  16     0.10   0.16   0.39    -0.05  -0.11  -0.08    -0.23   0.21  -0.01
  24   1    -0.01  -0.05  -0.03    -0.01   0.17  -0.05     0.03   0.05   0.15
  25   1    -0.02  -0.13  -0.08    -0.06   0.20   0.04     0.09  -0.01   0.03
  26   1    -0.04  -0.04  -0.12    -0.07   0.08   0.10    -0.07   0.02   0.05
  27   1    -0.01  -0.05  -0.04    -0.03  -0.05  -0.05    -0.02  -0.05  -0.06
  28   1    -0.00  -0.08   0.03     0.09   0.03  -0.11     0.05  -0.01  -0.06
  29   1     0.02   0.06  -0.04    -0.04  -0.05  -0.03    -0.12  -0.06   0.02
  30   1     0.02   0.05   0.04    -0.03  -0.06  -0.10    -0.07  -0.09  -0.07
  31   1     0.00   0.03  -0.01     0.00  -0.03   0.00     0.02  -0.04  -0.00
  32   1    -0.00   0.02  -0.01     0.01  -0.01   0.08     0.05   0.03  -0.01
  33   1    -0.02   0.01  -0.02     0.01  -0.01   0.03    -0.03   0.05   0.00
  34   1    -0.02  -0.01  -0.07     0.01  -0.00  -0.01    -0.04  -0.00   0.01
  35   1     0.00  -0.01   0.03     0.00   0.00   0.01    -0.00  -0.04   0.01
  36   1     0.00  -0.01   0.04     0.00   0.00  -0.02     0.01  -0.06   0.01
  37   1    -0.02  -0.01   0.03     0.01   0.00  -0.02    -0.07  -0.07   0.00
  38   1    -0.03   0.01   0.08     0.01   0.00   0.05    -0.11   0.02  -0.01
  39   1    -0.01   0.03   0.07     0.01  -0.00   0.07    -0.04   0.09  -0.02
                     10                     11                     12
                        a                      a                      a 
 Frequencies --   107.6322               132.6639               150.2209
 Red. masses --    15.3427                19.0419                10.6274
 Frc consts  --     0.0000                 0.0000                 0.0000
 IR Inten    --    11.6150                 4.5297                 0.2630
 Raman Activ --     0.0000                 0.0000                 0.0000
 Depolar     --     0.0000                 0.0000                 0.0000
 Atom AN      X      Y      Z        X      Y      Z        X      Y      Z
   1   7    -0.13   0.30  -0.02     0.02   0.03  -0.16    -0.07   0.08   0.05
   2   6     0.14  -0.20  -0.23    -0.01   0.17  -0.01     0.12  -0.20  -0.02
   3   6     0.01  -0.02  -0.13     0.03   0.09  -0.04     0.09   0.12   0.09
   4   6     0.04   0.02   0.11    -0.07  -0.03  -0.03     0.05   0.07   0.17
   5   6     0.02   0.02   0.12    -0.13  -0.03   0.04    -0.05   0.07   0.04
   6   6     0.01  -0.00   0.13    -0.15  -0.08   0.12    -0.11  -0.03  -0.15
   7   6     0.01  -0.02   0.10    -0.11  -0.13   0.12    -0.06  -0.09  -0.19
   8   6     0.00  -0.04  -0.05    -0.09  -0.08   0.06    -0.07  -0.09  -0.15
   9   6     0.00  -0.04  -0.10     0.02  -0.04  -0.01     0.01  -0.05  -0.06
  10   6     0.00  -0.04  -0.17     0.02   0.08  -0.11     0.02   0.05   0.13
  11   6    -0.01  -0.03  -0.16    -0.05   0.13  -0.11    -0.04   0.09   0.17
  12   6    -0.01  -0.00  -0.04    -0.03   0.10  -0.08    -0.03   0.09   0.17
  13   6     0.01   0.02   0.04    -0.10   0.02  -0.03    -0.08   0.04   0.11
  14   6     0.00   0.06   0.17    -0.03  -0.12   0.07    -0.05  -0.06  -0.09
  15   6    -0.02   0.06   0.18     0.13  -0.13   0.09     0.03  -0.07  -0.16
  16   6    -0.02   0.04   0.13     0.15  -0.13   0.09     0.05  -0.08  -0.18
  17   6     0.03   0.04   0.04    -0.01  -0.13   0.06    -0.02  -0.08  -0.12
  18   6     0.04  -0.02  -0.13    -0.08   0.04  -0.04    -0.04   0.01   0.09
  19   6     0.00  -0.06  -0.17     0.04   0.16  -0.09     0.01   0.07   0.17
  20  16    -0.08  -0.04  -0.00     0.40   0.12  -0.01     0.16   0.03  -0.06
  21  16    -0.06   0.04   0.17     0.29   0.05   0.01     0.12   0.07   0.02
  22  16    -0.02  -0.07  -0.33    -0.30   0.04  -0.06    -0.21   0.00   0.03
  23  16     0.07  -0.00   0.34    -0.07  -0.20   0.14     0.10  -0.07  -0.06
  24   1     0.02   0.20   0.03    -0.03  -0.06  -0.17     0.05   0.18   0.23
  25   1    -0.01   0.06  -0.02    -0.08   0.09  -0.01     0.09  -0.16  -0.05
  26   1    -0.18   0.09   0.00     0.12  -0.03   0.01    -0.25   0.11  -0.12
  27   1    -0.03  -0.18  -0.13     0.02   0.09   0.03    -0.02  -0.15  -0.07
  28   1     0.19  -0.08  -0.08    -0.06   0.06   0.00     0.15  -0.10   0.02
  29   1    -0.04   0.02  -0.06     0.05   0.02  -0.01     0.04   0.07  -0.03
  30   1    -0.01  -0.01  -0.05    -0.00   0.06  -0.00     0.03   0.07   0.06
  31   1     0.00   0.01   0.03    -0.05   0.00   0.00    -0.02   0.04   0.03
  32   1    -0.00  -0.00   0.03    -0.06  -0.03   0.04    -0.05  -0.01  -0.07
  33   1     0.00  -0.01  -0.02     0.03  -0.03   0.01     0.01  -0.03  -0.04
  34   1     0.00  -0.01  -0.05     0.02   0.03  -0.04     0.02   0.02   0.06
  35   1     0.01   0.00  -0.00    -0.05   0.01  -0.02    -0.04   0.01   0.05
  36   1     0.01   0.02   0.07    -0.03  -0.07   0.03    -0.03  -0.04  -0.05
  37   1     0.01   0.02   0.03    -0.02  -0.07   0.03    -0.02  -0.04  -0.05
  38   1     0.02  -0.01  -0.06    -0.06   0.02  -0.02    -0.03   0.01   0.05
  39   1     0.00  -0.03  -0.08     0.00   0.08  -0.05     0.00   0.04   0.09
                     13                     14                     15
                        a                      a                      a 
 Frequencies --   173.6062               176.5334               212.4076
 Red. masses --    14.6200                12.6590                 9.3106
 Frc consts  --     0.0000                 0.0000                 0.0000
 IR Inten    --     2.6938                 3.3017                 4.9105
 Raman Activ --     0.0000                 0.0000                 0.0000
 Depolar     --     0.0000                 0.0000                 0.0000
 Atom AN      X      Y      Z        X      Y      Z        X      Y      Z
   1   7    -0.03  -0.00   0.02    -0.04  -0.00   0.10    -0.06   0.03  -0.06
   2   6    -0.14   0.11  -0.01    -0.01  -0.05   0.07    -0.16   0.25   0.08
   3   6    -0.17   0.10  -0.00     0.08   0.02   0.07     0.03  -0.02  -0.06
   4   6    -0.17   0.09  -0.01     0.07   0.01  -0.06    -0.00  -0.08  -0.26
   5   6    -0.17   0.09  -0.01     0.03   0.01  -0.12     0.04  -0.07  -0.08
   6   6    -0.17   0.07   0.00     0.01  -0.02  -0.10     0.07  -0.04   0.20
   7   6    -0.11   0.00   0.01     0.02  -0.03  -0.01     0.06  -0.03   0.22
   8   6    -0.10  -0.08   0.03     0.02  -0.01   0.14     0.07   0.01   0.13
   9   6    -0.10  -0.10   0.03     0.04   0.00   0.18     0.08   0.01  -0.01
  10   6    -0.08  -0.16   0.01     0.03   0.04   0.04     0.06   0.02  -0.18
  11   6     0.02  -0.20  -0.00    -0.02   0.06  -0.09     0.03   0.04  -0.12
  12   6     0.05  -0.14  -0.02    -0.03   0.04  -0.24     0.02   0.04   0.02
  13   6     0.17  -0.02  -0.03    -0.07   0.00  -0.22    -0.01   0.01   0.11
  14   6     0.14   0.10  -0.01    -0.05  -0.03   0.04    -0.00  -0.02   0.08
  15   6     0.09   0.11   0.01    -0.01  -0.02   0.19    -0.02  -0.02  -0.03
  16   6     0.12   0.12   0.03    -0.01  -0.03   0.31    -0.04  -0.03  -0.15
  17   6     0.21   0.12   0.01    -0.04  -0.03   0.23    -0.07  -0.03  -0.15
  18   6     0.24   0.08  -0.03    -0.07  -0.03  -0.13    -0.06  -0.02   0.07
  19   6     0.20   0.05  -0.04    -0.06  -0.02  -0.29    -0.06  -0.02   0.18
  20  16     0.22   0.14   0.00    -0.02  -0.02   0.14    -0.10  -0.06  -0.10
  21  16    -0.02  -0.12  -0.02     0.02   0.04  -0.20     0.04   0.05   0.16
  22  16     0.02  -0.30   0.04    -0.05   0.07   0.21     0.05   0.05  -0.14
  23  16    -0.22   0.05  -0.00     0.12  -0.04  -0.22     0.05  -0.09   0.06
  24   1     0.01   0.05   0.21     0.04   0.10   0.26     0.01   0.09   0.29
  25   1     0.12  -0.16  -0.05     0.12  -0.19  -0.04     0.15  -0.27  -0.11
  26   1    -0.12   0.08  -0.12    -0.19   0.10  -0.12    -0.18   0.15  -0.24
  27   1    -0.03   0.05  -0.02    -0.02  -0.04   0.01    -0.01   0.13   0.09
  28   1    -0.05   0.03   0.00     0.02  -0.03   0.03    -0.14   0.10   0.01
  29   1    -0.05   0.03   0.00     0.04   0.01   0.00     0.05  -0.04   0.01
  30   1    -0.05   0.03  -0.00     0.04   0.01   0.05     0.02  -0.01  -0.01
  31   1    -0.05   0.02  -0.00     0.00   0.01  -0.04     0.01  -0.03  -0.05
  32   1    -0.06   0.02   0.01    -0.00  -0.00  -0.03     0.03  -0.01   0.10
  33   1    -0.03  -0.03   0.01     0.02  -0.00   0.07     0.03   0.00   0.01
  34   1    -0.04  -0.06   0.00     0.02   0.02   0.00     0.02   0.01  -0.08
  35   1     0.08  -0.01  -0.01    -0.03   0.00  -0.10    -0.01   0.01   0.05
  36   1     0.05   0.04   0.00    -0.02  -0.01   0.04    -0.00  -0.00   0.03
  37   1     0.07   0.05   0.01    -0.02  -0.01   0.10    -0.02  -0.01  -0.07
  38   1     0.08   0.02  -0.01    -0.03  -0.01  -0.08    -0.02  -0.01   0.04
  39   1     0.06  -0.00  -0.02    -0.02  -0.00  -0.16    -0.02  -0.00   0.09
                     16                     17                     18
                        a                      a                      a 
 Frequencies --   238.5632               262.0274               288.6766
 Red. masses --    16.1502                13.4318                18.4080
 Frc consts  --     0.0000                 0.0000                 0.0000
 IR Inten    --     9.5156                 2.5379                 3.2157
 Raman Activ --     0.0000                 0.0000                 0.0000
 Depolar     --     0.0000                 0.0000                 0.0000
 Atom AN      X      Y      Z        X      Y      Z        X      Y      Z
   1   7    -0.01   0.15  -0.28    -0.02  -0.01   0.01     0.00   0.03  -0.07
   2   6     0.13   0.16   0.05    -0.18   0.14  -0.05     0.09   0.01   0.08
   3   6     0.15   0.13   0.06    -0.15  -0.12  -0.13     0.18  -0.10   0.02
   4   6    -0.13  -0.20   0.14     0.03   0.07  -0.12     0.10  -0.15  -0.10
   5   6    -0.05  -0.22   0.13     0.06   0.08   0.10     0.15  -0.15  -0.03
   6   6     0.02  -0.12  -0.02     0.04   0.04   0.16     0.18  -0.04   0.07
   7   6    -0.03  -0.04  -0.11     0.05  -0.01  -0.04     0.05   0.10   0.05
   8   6     0.03   0.13  -0.16     0.02  -0.11  -0.25    -0.01   0.10  -0.01
   9   6     0.01   0.13  -0.09     0.06  -0.10  -0.24    -0.20   0.04  -0.04
  10   6     0.02   0.07   0.11     0.09  -0.02   0.15    -0.22  -0.07   0.01
  11   6     0.07   0.03   0.12     0.03   0.02   0.28    -0.17  -0.08   0.06
  12   6     0.08  -0.07   0.06     0.01   0.09   0.22    -0.19  -0.04   0.08
  13   6     0.10  -0.06  -0.03    -0.03   0.04   0.02    -0.17   0.00   0.04
  14   6     0.08  -0.01  -0.10    -0.03  -0.02  -0.24    -0.19   0.06  -0.06
  15   6     0.01  -0.01  -0.03    -0.01  -0.02  -0.12    -0.11   0.06  -0.05
  16   6    -0.04   0.05   0.08    -0.00  -0.03   0.11     0.08  -0.08   0.01
  17   6    -0.02   0.05   0.10    -0.04  -0.03   0.21     0.12  -0.08   0.05
  18   6    -0.00  -0.00  -0.02    -0.06  -0.02  -0.03     0.09   0.02  -0.00
  19   6    -0.04  -0.04  -0.10    -0.05  -0.02  -0.21     0.16   0.10  -0.06
  20  16    -0.15  -0.02   0.09    -0.01  -0.03   0.17     0.40   0.09   0.02
  21  16     0.02  -0.11  -0.09     0.05   0.10  -0.17    -0.41  -0.02  -0.00
  22  16     0.20   0.17   0.01    -0.04  -0.11  -0.06    -0.03   0.05  -0.05
  23  16    -0.34  -0.20   0.12     0.17   0.07   0.19     0.06   0.06   0.01
  24   1     0.02   0.10  -0.04    -0.02  -0.03   0.08     0.02   0.04  -0.00
  25   1    -0.03  -0.08  -0.10     0.05  -0.04  -0.02    -0.01  -0.05  -0.03
  26   1    -0.05   0.10  -0.18    -0.01   0.01  -0.03    -0.03   0.04  -0.06
  27   1     0.04   0.05   0.04    -0.02   0.09   0.03     0.03   0.01   0.06
  28   1     0.01   0.04   0.03    -0.12   0.08  -0.05    -0.00   0.01   0.02
  29   1     0.15   0.03  -0.01    -0.12  -0.06   0.02     0.09  -0.05   0.01
  30   1     0.00   0.14   0.04    -0.03  -0.12  -0.09     0.05  -0.01   0.01
  31   1     0.00  -0.09   0.06     0.02   0.03   0.03     0.05  -0.05  -0.02
  32   1     0.02  -0.03  -0.02     0.00   0.01   0.07     0.09  -0.01   0.03
  33   1    -0.01   0.04  -0.05     0.03  -0.04  -0.12    -0.09   0.03  -0.02
  34   1    -0.01   0.01   0.06     0.04   0.00   0.08    -0.07  -0.03   0.00
  35   1     0.04  -0.02  -0.01    -0.02   0.02   0.02    -0.04  -0.00   0.02
  36   1     0.03   0.01  -0.04    -0.01  -0.01  -0.11    -0.06   0.01  -0.03
  37   1     0.00   0.02   0.04    -0.01  -0.01   0.09     0.03  -0.03   0.02
  38   1     0.01  -0.00  -0.02    -0.02  -0.01  -0.03    -0.00   0.01  -0.01
  39   1    -0.01  -0.02  -0.06    -0.02  -0.00  -0.11     0.04   0.04  -0.03
                     19                     20                     21
                        a                      a                      a 
 Frequencies --   307.8426               322.2337               350.8319
 Red. masses --    17.3446                16.9960                14.0999
 Frc consts  --     0.0000                 0.0000                 0.0000
 IR Inten    --     1.9851                 0.5439                13.0311
 Raman Activ --     0.0000                 0.0000                 0.0000
 Depolar     --     0.0000                 0.0000                 0.0000
 Atom AN      X      Y      Z        X      Y      Z        X      Y      Z
   1   7     0.00  -0.07   0.17    -0.02   0.01  -0.03     0.01   0.09  -0.24
   2   6    -0.02  -0.13  -0.01    -0.07   0.08  -0.02     0.12   0.11   0.08
   3   6     0.09   0.06  -0.01    -0.05  -0.14  -0.08    -0.09  -0.23   0.07
   4   6     0.06   0.04  -0.16     0.10   0.03  -0.03     0.07  -0.03   0.23
   5   6    -0.08   0.05  -0.16     0.05   0.04   0.14     0.12  -0.04   0.11
   6   6    -0.12  -0.04   0.10    -0.02  -0.06   0.04     0.12   0.00  -0.18
   7   6    -0.08  -0.08   0.19    -0.02  -0.08  -0.16     0.04   0.08  -0.10
   8   6    -0.05   0.09   0.11    -0.03   0.02  -0.24    -0.03  -0.09   0.15
   9   6    -0.06   0.11  -0.05    -0.03   0.05  -0.06     0.00  -0.08   0.18
  10   6    -0.07   0.13  -0.12    -0.03   0.12   0.21    -0.01   0.02  -0.16
  11   6    -0.04   0.12   0.03    -0.07   0.11   0.05    -0.07   0.05  -0.15
  12   6     0.04  -0.15   0.20    -0.03  -0.14  -0.19    -0.02  -0.02   0.05
  13   6     0.10  -0.12   0.15     0.01  -0.12  -0.21    -0.02  -0.03   0.16
  14   6     0.08  -0.06  -0.18     0.02  -0.03   0.20     0.01  -0.08  -0.08
  15   6     0.04  -0.04  -0.17     0.02  -0.01   0.23     0.06  -0.07  -0.16
  16   6    -0.03   0.12  -0.01    -0.02   0.08   0.03    -0.03   0.09  -0.06
  17   6     0.08   0.14   0.12     0.07   0.08  -0.15     0.05   0.10   0.07
  18   6     0.12   0.05   0.00     0.11   0.04  -0.03     0.08   0.04   0.02
  19   6     0.05  -0.02  -0.15     0.09   0.02   0.17     0.03  -0.02  -0.11
  20  16    -0.13   0.09   0.12    -0.04   0.09  -0.15    -0.13   0.08   0.09
  21  16     0.03  -0.34   0.00    -0.07  -0.29  -0.00     0.16  -0.14   0.06
  22  16    -0.16   0.28  -0.13    -0.18   0.24   0.10    -0.31  -0.05   0.03
  23  16     0.15  -0.14  -0.05     0.26  -0.09   0.12     0.03   0.19  -0.06
  24   1    -0.00  -0.03   0.04    -0.01  -0.00   0.03     0.02   0.06  -0.08
  25   1     0.02   0.03   0.05     0.02  -0.03  -0.02    -0.06  -0.07  -0.07
  26   1    -0.00  -0.05   0.09    -0.01   0.02  -0.04    -0.01   0.07  -0.15
  27   1    -0.02  -0.06  -0.03     0.00   0.06   0.04     0.05   0.06   0.07
  28   1     0.04  -0.05   0.01    -0.07   0.05  -0.03    -0.02   0.05   0.01
  29   1     0.06   0.03  -0.05    -0.09  -0.06   0.04    -0.15  -0.11   0.14
  30   1     0.05   0.04   0.06    -0.01  -0.12  -0.08    -0.05  -0.17  -0.12
  31   1    -0.04   0.04  -0.08     0.00   0.03   0.07     0.04  -0.02   0.06
  32   1    -0.05  -0.01   0.06    -0.02  -0.02   0.01     0.06   0.00  -0.10
  33   1    -0.02   0.03  -0.02    -0.01   0.01  -0.03     0.02  -0.03   0.09
  34   1    -0.01   0.04  -0.06     0.01   0.05   0.11     0.01   0.01  -0.09
  35   1     0.05  -0.04   0.08     0.02  -0.04  -0.12    -0.00  -0.01   0.09
  36   1     0.02  -0.02  -0.09     0.01  -0.01   0.10    -0.01  -0.04  -0.04
  37   1     0.04   0.06   0.05     0.03   0.04  -0.07     0.03   0.05   0.03
  38   1     0.05   0.01  -0.01     0.04   0.01  -0.00     0.04   0.01   0.01
  39   1     0.02  -0.03  -0.08     0.03  -0.01   0.09     0.01  -0.03  -0.05
                     22                     23                     24
                        a                      a                      a 
 Frequencies --   359.7213               400.2887               404.8767
 Red. masses --    18.8101                19.1310                11.8448
 Frc consts  --     0.0000                 0.0000                 0.0000
 IR Inten    --     1.1033                 1.9635                 7.6833
 Raman Activ --     0.0000                 0.0000                 0.0000
 Depolar     --     0.0000                 0.0000                 0.0000
 Atom AN      X      Y      Z        X      Y      Z        X      Y      Z
   1   7    -0.01   0.01  -0.04    -0.01  -0.00  -0.00     0.02   0.04  -0.17
   2   6    -0.09   0.09  -0.06    -0.01   0.01   0.00     0.18   0.00   0.12
   3   6    -0.19  -0.02  -0.04     0.01  -0.07  -0.03    -0.13  -0.14   0.18
   4   6    -0.01   0.14   0.19     0.08   0.02  -0.02     0.03   0.08   0.19
   5   6    -0.08   0.13   0.15    -0.03   0.02   0.07    -0.07   0.06  -0.22
   6   6    -0.16  -0.06  -0.16    -0.10  -0.08  -0.01    -0.11  -0.01   0.01
   7   6    -0.03  -0.19  -0.11    -0.09  -0.07  -0.06    -0.05  -0.03   0.31
   8   6     0.08   0.08   0.08    -0.05   0.20  -0.04    -0.02   0.06   0.19
   9   6     0.10   0.10   0.15    -0.30   0.14   0.05    -0.05   0.04  -0.18
  10   6     0.07   0.03  -0.12    -0.31  -0.13   0.01    -0.04  -0.00  -0.02
  11   6     0.05   0.02  -0.14    -0.08  -0.21  -0.04     0.03  -0.01   0.26
  12   6     0.03  -0.05   0.02    -0.11   0.12  -0.04     0.03   0.01   0.20
  13   6     0.06  -0.02   0.12    -0.17   0.09   0.03     0.04   0.01  -0.13
  14   6    -0.01   0.09  -0.05    -0.09  -0.10   0.02     0.03   0.03  -0.06
  15   6    -0.11   0.08  -0.12     0.09  -0.10  -0.04     0.01   0.04   0.21
  16   6     0.02  -0.11  -0.05    -0.02   0.07  -0.04     0.02  -0.00   0.20
  17   6    -0.02  -0.12   0.06     0.03   0.09   0.01    -0.03  -0.02  -0.06
  18   6    -0.06  -0.04   0.03     0.07   0.03   0.02    -0.04  -0.01  -0.11
  19   6    -0.01   0.02  -0.08     0.02  -0.02  -0.03    -0.02   0.00   0.17
  20  16     0.21  -0.06   0.06    -0.16   0.08   0.03     0.01  -0.05  -0.13
  21  16    -0.34   0.01   0.06     0.37   0.19   0.00     0.00   0.04  -0.14
  22  16     0.26   0.21   0.01     0.33  -0.05   0.02     0.07   0.01  -0.16
  23  16     0.17  -0.30   0.00     0.20  -0.20   0.03     0.06  -0.06  -0.15
  24   1    -0.01  -0.01   0.01    -0.00  -0.00   0.01     0.03   0.06  -0.09
  25   1     0.01  -0.00  -0.02     0.00  -0.01  -0.00    -0.08  -0.05  -0.04
  26   1     0.01   0.01  -0.02    -0.00   0.00  -0.01    -0.00   0.04  -0.10
  27   1    -0.01   0.05  -0.01     0.00   0.01   0.02     0.04  -0.01   0.01
  28   1    -0.05   0.04  -0.03    -0.02   0.01  -0.01     0.07  -0.01   0.05
  29   1    -0.16  -0.01   0.04    -0.04  -0.03   0.02    -0.17  -0.08   0.16
  30   1    -0.06  -0.08  -0.09     0.01  -0.06  -0.03    -0.06  -0.16  -0.09
  31   1    -0.03   0.06   0.07    -0.02   0.03   0.03    -0.04   0.03  -0.12
  32   1    -0.10  -0.03  -0.09    -0.05  -0.03  -0.01    -0.05  -0.00   0.00
  33   1     0.02   0.04   0.08    -0.14   0.08   0.03    -0.02   0.01  -0.11
  34   1     0.02   0.01  -0.06    -0.15  -0.07   0.01    -0.02  -0.01  -0.02
  35   1     0.03  -0.01   0.06    -0.09   0.03   0.02     0.01   0.00  -0.08
  36   1     0.01   0.06  -0.03    -0.05  -0.07   0.01     0.01   0.01  -0.04
  37   1    -0.02  -0.05   0.03     0.02   0.04   0.00    -0.01  -0.01  -0.03
  38   1    -0.04  -0.01   0.01     0.03   0.01   0.01    -0.01  -0.01  -0.05
  39   1    -0.01   0.03  -0.04     0.01  -0.03  -0.01    -0.01   0.01   0.08
                     25                     26                     27
                        a                      a                      a 
 Frequencies --   427.7943               438.5325               469.5424
 Red. masses --    12.2922                13.5536                11.4583
 Frc consts  --     0.0000                 0.0000                 0.0000
 IR Inten    --     1.6919                 0.3437                 2.8358
 Raman Activ --     0.0000                 0.0000                 0.0000
 Depolar     --     0.0000                 0.0000                 0.0000
 Atom AN      X      Y      Z        X      Y      Z        X      Y      Z
   1   7    -0.02  -0.02   0.07     0.01   0.01  -0.04     0.02   0.01  -0.05
   2   6    -0.15   0.04  -0.12     0.02   0.01   0.01     0.13  -0.04   0.10
   3   6    -0.01   0.12  -0.11    -0.13   0.07   0.08    -0.05  -0.04   0.13
   4   6    -0.06  -0.00   0.06    -0.08   0.08   0.15    -0.02   0.04  -0.12
   5   6     0.06  -0.01   0.17    -0.02   0.05  -0.18    -0.08   0.05  -0.20
   6   6     0.08   0.00  -0.15     0.01   0.05   0.04    -0.06   0.05   0.24
   7   6     0.09  -0.01  -0.09     0.10  -0.03   0.19    -0.03  -0.03  -0.05
   8   6     0.11  -0.03   0.17     0.13  -0.06  -0.01    -0.00  -0.04  -0.37
   9   6     0.11  -0.05   0.09     0.19  -0.07  -0.16     0.09   0.01   0.12
  10   6     0.08  -0.05  -0.18     0.19  -0.03   0.12     0.09   0.01   0.07
  11   6    -0.03   0.02   0.06    -0.00   0.04   0.07     0.01  -0.00  -0.34
  12   6    -0.08   0.06   0.28    -0.10   0.05  -0.16    -0.01   0.01  -0.10
  13   6    -0.21  -0.05   0.02    -0.29  -0.09  -0.04    -0.05  -0.02   0.25
  14   6    -0.18  -0.14  -0.17    -0.24  -0.18   0.17    -0.07  -0.06  -0.19
  15   6    -0.02  -0.10   0.19    -0.06  -0.15  -0.07    -0.03  -0.04  -0.11
  16   6    -0.04   0.05   0.31    -0.09   0.01  -0.22    -0.01   0.01   0.27
  17   6     0.08   0.05  -0.04     0.12   0.05  -0.00     0.03   0.00   0.08
  18   6     0.11   0.02  -0.19     0.17   0.03   0.13     0.03  -0.01  -0.23
  19   6     0.12   0.03   0.24     0.15   0.01  -0.18     0.05   0.02   0.22
  20  16    -0.07   0.15  -0.17    -0.07   0.22   0.10    -0.02   0.05  -0.12
  21  16    -0.02  -0.07  -0.12    -0.07  -0.07   0.07    -0.04  -0.01   0.05
  22  16     0.09   0.00  -0.06     0.19   0.02  -0.03     0.10   0.00   0.14
  23  16    -0.05  -0.05   0.02    -0.09  -0.07  -0.07    -0.05   0.02   0.03
  24   1    -0.02  -0.04   0.06     0.00   0.01  -0.03     0.02   0.03  -0.06
  25   1     0.06   0.04   0.01    -0.02  -0.00  -0.01    -0.06  -0.02  -0.00
  26   1     0.00  -0.03   0.06     0.01   0.00  -0.01     0.00   0.02  -0.04
  27   1    -0.03   0.03  -0.02    -0.00  -0.01  -0.04     0.02  -0.04  -0.02
  28   1    -0.06   0.02  -0.04     0.03  -0.01   0.02     0.08  -0.04   0.05
  29   1     0.06   0.07  -0.10    -0.07   0.02   0.03    -0.05  -0.04   0.09
  30   1     0.00   0.10   0.04    -0.05   0.01  -0.01    -0.02  -0.06  -0.01
  31   1     0.03  -0.02   0.09    -0.00  -0.01  -0.10    -0.03   0.02  -0.10
  32   1     0.02  -0.00  -0.08    -0.02   0.01   0.02    -0.03   0.02   0.14
  33   1     0.03  -0.01   0.04     0.06  -0.03  -0.09     0.03   0.00   0.11
  34   1     0.04  -0.01  -0.10     0.08   0.01   0.06     0.03   0.01   0.07
  35   1    -0.09  -0.01  -0.01    -0.12  -0.02  -0.02    -0.02   0.00   0.16
  36   1    -0.07  -0.07  -0.11    -0.09  -0.08   0.10    -0.02  -0.02  -0.08
  37   1     0.04   0.04  -0.03     0.06   0.05   0.01     0.02   0.01   0.02
  38   1     0.03   0.00  -0.10     0.05   0.01   0.08     0.00  -0.01  -0.14
  39   1     0.04  -0.01   0.10     0.05  -0.03  -0.07     0.02  -0.00   0.07
                     28                     29                     30
                        a                      a                      a 
 Frequencies --   500.0273               518.1893               539.0957
 Red. masses --    11.4311                11.7618                10.1738
 Frc consts  --     0.0000                 0.0000                 0.0000
 IR Inten    --     2.3623                 2.2665                 0.1141
 Raman Activ --     0.0000                 0.0000                 0.0000
 Depolar     --     0.0000                 0.0000                 0.0000
 Atom AN      X      Y      Z        X      Y      Z        X      Y      Z
   1   7     0.02  -0.00  -0.04     0.02  -0.00  -0.02     0.00  -0.00   0.00
   2   6     0.14  -0.06   0.11     0.13  -0.06   0.11     0.02  -0.01   0.02
   3   6     0.01  -0.06   0.11     0.06  -0.09   0.07     0.03  -0.03  -0.00
   4   6    -0.00   0.00  -0.32     0.02  -0.03  -0.44     0.01  -0.02  -0.14
   5   6    -0.10   0.05   0.01    -0.11   0.05   0.26    -0.03   0.01   0.15
   6   6    -0.11   0.04   0.14    -0.16   0.01  -0.12    -0.06  -0.01  -0.15
   7   6    -0.08  -0.04  -0.26    -0.11  -0.03  -0.16    -0.03   0.01   0.13
   8   6    -0.02  -0.02  -0.11    -0.02   0.02   0.35    -0.01   0.01   0.15
   9   6     0.09   0.03   0.23     0.07   0.03  -0.14     0.01   0.00  -0.21
  10   6     0.07   0.00  -0.22     0.09   0.03   0.01     0.03   0.03   0.21
  11   6     0.04   0.02   0.01     0.07   0.04   0.22     0.01  -0.00  -0.19
  12   6     0.03   0.04   0.36     0.02   0.00  -0.23     0.01  -0.01  -0.19
  13   6    -0.05  -0.04  -0.18    -0.03  -0.04   0.01     0.01  -0.00   0.26
  14   6    -0.04  -0.04   0.02    -0.03  -0.04   0.10    -0.02  -0.03  -0.28
  15   6    -0.02  -0.02   0.28    -0.04  -0.05  -0.22    -0.00  -0.00   0.21
  16   6    -0.03  -0.02  -0.13    -0.03  -0.02  -0.00     0.00   0.01   0.29
  17   6     0.01  -0.02  -0.17     0.03  -0.01   0.16    -0.01  -0.03  -0.35
  18   6     0.04   0.01   0.25     0.02  -0.02  -0.19     0.02   0.01   0.32
  19   6     0.03  -0.00  -0.20     0.05   0.01   0.13     0.01  -0.01  -0.21
  20  16    -0.01   0.05   0.06    -0.02   0.06  -0.02    -0.01   0.02  -0.02
  21  16    -0.06  -0.00  -0.12    -0.06   0.02   0.07    -0.02   0.01  -0.00
  22  16     0.09  -0.02   0.01     0.09  -0.05  -0.09     0.02  -0.02   0.01
  23  16    -0.05   0.08   0.09    -0.05   0.13   0.08    -0.01   0.05  -0.01
  24   1     0.02   0.03  -0.06     0.02   0.03  -0.04     0.00   0.01  -0.01
  25   1    -0.06  -0.03  -0.00    -0.05  -0.03   0.00    -0.01  -0.01   0.00
  26   1    -0.00   0.01  -0.03    -0.00   0.01  -0.03    -0.00   0.00  -0.00
  27   1     0.02  -0.05  -0.01     0.02  -0.05   0.00     0.01  -0.01   0.01
  28   1     0.09  -0.04   0.05     0.07  -0.04   0.05     0.01  -0.00   0.01
  29   1    -0.01  -0.05   0.09     0.01  -0.06   0.07     0.01  -0.02   0.01
  30   1     0.01  -0.07  -0.01     0.03  -0.08  -0.01     0.01  -0.02  -0.00
  31   1    -0.04   0.04   0.03    -0.04   0.05   0.18    -0.01   0.02   0.09
  32   1    -0.04   0.01   0.09    -0.05   0.00  -0.04    -0.02  -0.01  -0.08
  33   1     0.04   0.01   0.14     0.03  -0.01  -0.12     0.01  -0.01  -0.12
  34   1     0.02   0.00  -0.11     0.02   0.01  -0.03     0.01   0.01   0.12
  35   1    -0.03  -0.01  -0.14    -0.02  -0.01   0.04     0.00   0.00   0.15
  36   1    -0.01  -0.01  -0.03    -0.01  -0.01   0.09    -0.01  -0.01  -0.16
  37   1     0.01   0.00  -0.08     0.02   0.01   0.09    -0.01  -0.01  -0.22
  38   1     0.01   0.01   0.15    -0.00  -0.01  -0.11     0.01   0.01   0.17
  39   1     0.01  -0.01  -0.06     0.01  -0.00   0.03     0.00  -0.00  -0.05
                     31                     32                     33
                        a                      a                      a 
 Frequencies --   555.2164               566.3588               572.5204
 Red. masses --    11.2743                11.1545                15.1275
 Frc consts  --     0.0000                 0.0000                 0.0000
 IR Inten    --     0.5539                 0.3139                 0.7943
 Raman Activ --     0.0000                 0.0000                 0.0000
 Depolar     --     0.0000                 0.0000                 0.0000
 Atom AN      X      Y      Z        X      Y      Z        X      Y      Z
   1   7    -0.00   0.01  -0.01     0.00   0.00  -0.01     0.03   0.00  -0.03
   2   6    -0.02   0.02  -0.01     0.00   0.00   0.00     0.06  -0.00   0.06
   3   6    -0.06   0.05   0.03    -0.04   0.03   0.03    -0.22   0.16   0.18
   4   6    -0.03   0.03   0.15    -0.03   0.02   0.02    -0.16   0.11  -0.34
   5   6     0.05  -0.00  -0.23     0.03   0.01  -0.09     0.15   0.12   0.11
   6   6     0.08   0.03   0.30     0.05   0.02   0.14     0.16   0.12  -0.12
   7   6     0.03  -0.03  -0.52     0.02  -0.02  -0.35     0.22   0.02   0.09
   8   6     0.05   0.01   0.24     0.05   0.02   0.40     0.16  -0.06  -0.05
   9   6    -0.02  -0.03   0.04    -0.02  -0.04  -0.25    -0.04  -0.15   0.02
  10   6    -0.04  -0.04  -0.12    -0.00  -0.01   0.27    -0.06  -0.15   0.01
  11   6    -0.02   0.00   0.33    -0.05  -0.04  -0.43    -0.16  -0.06   0.01
  12   6    -0.04  -0.02  -0.30    -0.02   0.01   0.20    -0.15  -0.00   0.04
  13   6     0.00   0.03   0.10    -0.01   0.02   0.01    -0.04   0.12  -0.04
  14   6     0.00   0.03  -0.05    -0.01   0.02  -0.08    -0.03   0.13   0.03
  15   6     0.02   0.02  -0.08     0.03   0.03   0.25     0.09   0.10  -0.09
  16   6     0.03   0.03   0.23     0.00   0.00  -0.30     0.09   0.10   0.06
  17   6    -0.02   0.01  -0.15    -0.00   0.02   0.14    -0.05   0.10  -0.03
  18   6    -0.01   0.02   0.12    -0.01   0.01  -0.10    -0.05   0.08   0.02
  19   6    -0.03  -0.01  -0.08    -0.02   0.00   0.07    -0.13  -0.00  -0.00
  20  16     0.01  -0.04  -0.02     0.01  -0.03   0.03     0.08  -0.19  -0.00
  21  16     0.03  -0.02   0.05     0.02  -0.03  -0.05     0.13  -0.16   0.01
  22  16    -0.03   0.04  -0.07    -0.01   0.04   0.01    -0.05   0.20  -0.01
  23  16     0.01  -0.08   0.06    -0.01  -0.05   0.05    -0.08  -0.28   0.04
  24   1    -0.00  -0.01  -0.00     0.00  -0.00  -0.01     0.01   0.01  -0.05
  25   1    -0.00   0.01  -0.00    -0.01   0.00  -0.00    -0.05  -0.02  -0.00
  26   1     0.01  -0.00   0.00     0.00  -0.00  -0.00     0.02   0.01  -0.03
  27   1    -0.01   0.00  -0.02    -0.00  -0.01  -0.02    -0.02  -0.06  -0.13
  28   1     0.01  -0.00   0.00     0.02  -0.01   0.01     0.14  -0.07   0.08
  29   1    -0.02   0.02   0.00    -0.02   0.01   0.01    -0.07   0.01   0.09
  30   1    -0.02   0.02   0.00    -0.01   0.01   0.00    -0.06   0.00   0.02
  31   1     0.02  -0.02  -0.11     0.01  -0.01  -0.03     0.08  -0.02   0.09
  32   1     0.03   0.02   0.21     0.01   0.01   0.12     0.02   0.03  -0.06
  33   1    -0.02  -0.00  -0.04    -0.02  -0.01  -0.16    -0.04  -0.02   0.02
  34   1    -0.01  -0.01  -0.13     0.01   0.00   0.17     0.01  -0.03   0.01
  35   1     0.01   0.01   0.11     0.00   0.00  -0.05     0.02   0.03  -0.02
  36   1    -0.00   0.00   0.01    -0.01  -0.00  -0.09    -0.02   0.01   0.03
  37   1    -0.01  -0.01  -0.11    -0.00   0.01   0.12    -0.03   0.00  -0.02
  38   1     0.00   0.01   0.06     0.00   0.00  -0.05     0.01   0.02   0.00
  39   1    -0.01   0.00  -0.01    -0.01   0.00   0.01    -0.04   0.01  -0.00
                     34                     35                     36
                        a                      a                      a 
 Frequencies --   575.8515               604.2054               648.2962
 Red. masses --    11.0569                19.0244                20.7846
 Frc consts  --     0.0000                 0.0000                 0.0000
 IR Inten    --     0.7277                 2.3896                 2.9015
 Raman Activ --     0.0000                 0.0000                 0.0000
 Depolar     --     0.0000                 0.0000                 0.0000
 Atom AN      X      Y      Z        X      Y      Z        X      Y      Z
   1   7    -0.00   0.00   0.01    -0.01  -0.00   0.02     0.01   0.00  -0.01
   2   6    -0.01   0.00  -0.01    -0.00  -0.02  -0.01    -0.01   0.02  -0.00
   3   6     0.02  -0.01  -0.02     0.16  -0.13  -0.10    -0.10   0.08   0.06
   4   6     0.02  -0.01   0.04     0.10  -0.08   0.12    -0.05   0.03  -0.04
   5   6    -0.01  -0.01  -0.03    -0.17  -0.05  -0.01     0.11  -0.00  -0.00
   6   6    -0.01  -0.01   0.03    -0.17  -0.05   0.02     0.11   0.01  -0.01
   7   6    -0.02  -0.01  -0.08    -0.11  -0.07   0.01    -0.03   0.13  -0.01
   8   6    -0.01   0.01   0.13    -0.01  -0.05  -0.00    -0.11   0.19  -0.00
   9   6    -0.00   0.01  -0.10     0.13  -0.03  -0.00     0.00   0.31  -0.02
  10   6     0.01   0.02   0.11     0.12  -0.06  -0.00    -0.01   0.36  -0.02
  11   6     0.00  -0.01  -0.28    -0.08   0.02   0.00     0.12   0.22  -0.02
  12   6     0.03   0.02   0.36    -0.17   0.07   0.00     0.08   0.08  -0.01
  13   6    -0.00  -0.03  -0.24    -0.18   0.13  -0.00    -0.09  -0.06   0.01
  14   6     0.02   0.00   0.28    -0.18   0.14   0.00    -0.10  -0.03   0.01
  15   6    -0.03  -0.04  -0.53     0.10   0.14  -0.02     0.01   0.01   0.00
  16   6     0.01   0.01   0.42     0.11   0.19  -0.01     0.01   0.11  -0.01
  17   6    -0.00  -0.02  -0.15    -0.05   0.22  -0.01    -0.01   0.14  -0.01
  18   6     0.01  -0.00   0.10    -0.05   0.19  -0.01     0.01   0.13  -0.01
  19   6     0.01  -0.00  -0.06    -0.21   0.01   0.01    -0.10   0.02   0.00
  20  16    -0.01   0.02  -0.05     0.17  -0.34   0.01     0.11  -0.18   0.00
  21  16    -0.01   0.02   0.02     0.09  -0.34   0.02    -0.09  -0.13   0.01
  22  16     0.00  -0.02   0.02     0.21   0.05  -0.01    -0.02  -0.57   0.04
  23  16     0.01   0.02   0.00    -0.02   0.26  -0.03     0.09  -0.22   0.01
  24   1    -0.00  -0.00   0.00    -0.00   0.00   0.02    -0.00  -0.01  -0.01
  25   1     0.00   0.00   0.00     0.01   0.00   0.00    -0.00  -0.00  -0.00
  26   1    -0.00  -0.00   0.00    -0.02  -0.00   0.01     0.01   0.00  -0.01
  27   1     0.00   0.01   0.01     0.02   0.03   0.09    -0.02  -0.02  -0.06
  28   1    -0.01   0.01  -0.01    -0.08   0.04  -0.04     0.04  -0.02   0.02
  29   1     0.01  -0.00  -0.01     0.05  -0.02  -0.04    -0.03   0.02   0.02
  30   1     0.00   0.00  -0.00     0.05  -0.02  -0.01    -0.03   0.02   0.01
  31   1    -0.01   0.00  -0.01    -0.07   0.03  -0.02     0.05  -0.03   0.01
  32   1     0.00  -0.00   0.03    -0.05  -0.02   0.00     0.06   0.01  -0.00
  33   1     0.00  -0.00  -0.04     0.04  -0.02  -0.00     0.04   0.06  -0.01
  34   1     0.00   0.01   0.10     0.06  -0.00  -0.00    -0.04   0.08  -0.00
  35   1    -0.01  -0.01  -0.15    -0.03   0.03  -0.00    -0.06  -0.01   0.00
  36   1     0.01   0.01   0.19    -0.09  -0.01   0.01    -0.04  -0.02   0.00
  37   1    -0.00  -0.01  -0.15    -0.04   0.03  -0.00    -0.01   0.04  -0.00
  38   1    -0.00  -0.00   0.03     0.04   0.04  -0.00     0.04   0.03  -0.00
  39   1     0.00  -0.00  -0.01    -0.06   0.02   0.00    -0.03   0.01  -0.00
                     37                     38                     39
                        a                      a                      a 
 Frequencies --   683.5756               695.6764               719.6816
 Red. masses --    19.4519                16.6253                13.8567
 Frc consts  --     0.0000                 0.0000                 0.0000
 IR Inten    --     8.7684                52.4819                15.8811
 Raman Activ --     0.0000                 0.0000                 0.0000
 Depolar     --     0.0000                 0.0000                 0.0000
 Atom AN      X      Y      Z        X      Y      Z        X      Y      Z
   1   7     0.00   0.00  -0.00     0.03   0.05  -0.05     0.00   0.00  -0.00
   2   6    -0.00   0.00  -0.00    -0.07   0.08  -0.04     0.01  -0.01   0.00
   3   6    -0.01   0.00   0.00    -0.34   0.17   0.19    -0.00  -0.04  -0.00
   4   6    -0.00  -0.00  -0.00    -0.22  -0.14  -0.05    -0.06  -0.08   0.01
   5   6     0.01  -0.00   0.00     0.04  -0.24   0.02    -0.14  -0.06   0.01
   6   6    -0.00  -0.02   0.00     0.03  -0.39   0.02    -0.02   0.19  -0.01
   7   6     0.01  -0.03   0.00    -0.11  -0.19   0.03     0.05   0.10  -0.01
   8   6     0.01  -0.04   0.00    -0.07  -0.02   0.00    -0.03  -0.21   0.02
   9   6    -0.02  -0.07   0.01    -0.01  -0.01  -0.00    -0.18  -0.27   0.02
  10   6    -0.02  -0.08   0.01    -0.02   0.01  -0.00    -0.16   0.27  -0.01
  11   6     0.07  -0.09   0.00    -0.00   0.01  -0.00    -0.02   0.21  -0.01
  12   6     0.13  -0.17   0.00    -0.01  -0.01   0.00     0.06  -0.23   0.01
  13   6     0.01  -0.37   0.02    -0.00   0.00  -0.00    -0.05  -0.35   0.02
  14   6     0.02  -0.30   0.01    -0.02   0.02  -0.00    -0.29   0.21   0.00
  15   6     0.03  -0.18   0.01    -0.01   0.02   0.00    -0.17   0.20  -0.01
  16   6    -0.05   0.17  -0.01     0.00  -0.01  -0.00     0.03  -0.06   0.00
  17   6     0.02   0.27  -0.01    -0.00  -0.01   0.00     0.06  -0.08   0.00
  18   6     0.05   0.29  -0.02    -0.00  -0.01   0.00     0.01   0.04  -0.00
  19   6    -0.17   0.06   0.00     0.01  -0.01   0.00     0.00   0.05  -0.00
  20  16     0.18  -0.31   0.01    -0.00   0.02  -0.00    -0.05   0.00   0.00
  21  16    -0.14   0.45  -0.02     0.02  -0.01  -0.00     0.26   0.09  -0.02
  22  16    -0.09   0.17  -0.01     0.08   0.04  -0.01     0.22   0.01  -0.01
  23  16    -0.01   0.04  -0.00     0.38   0.40  -0.05     0.10  -0.05  -0.00
  24   1    -0.00  -0.00  -0.00    -0.02  -0.04  -0.01     0.00   0.00  -0.00
  25   1    -0.00   0.00  -0.00     0.01   0.01  -0.01    -0.01  -0.00  -0.00
  26   1     0.00   0.00  -0.00     0.06   0.02  -0.03    -0.00   0.00  -0.00
  27   1    -0.00  -0.00  -0.00    -0.07  -0.05  -0.19     0.01   0.00   0.01
  28   1     0.00  -0.00   0.00     0.13  -0.05   0.04    -0.01   0.01  -0.01
  29   1     0.00   0.00  -0.00     0.02   0.04   0.02     0.02  -0.01  -0.01
  30   1    -0.00   0.00   0.00    -0.13   0.16   0.09    -0.01   0.02   0.01
  31   1     0.00   0.00   0.00     0.02  -0.09   0.02    -0.02  -0.05   0.00
  32   1    -0.01  -0.01   0.00     0.02  -0.11   0.01     0.03   0.06  -0.00
  33   1    -0.02  -0.01   0.00     0.01  -0.01   0.00     0.02  -0.12   0.01
  34   1    -0.02  -0.03   0.00    -0.00   0.00   0.00     0.03   0.12  -0.01
  35   1    -0.03  -0.10   0.01     0.01  -0.00   0.00     0.09  -0.12   0.00
  36   1     0.01  -0.08   0.00    -0.00   0.01   0.00    -0.02   0.15  -0.01
  37   1     0.01   0.09  -0.00    -0.00  -0.00  -0.00     0.01  -0.04   0.00
  38   1     0.08   0.07  -0.01    -0.00  -0.00  -0.00    -0.03   0.02   0.00
  39   1    -0.04   0.02   0.00     0.00  -0.00  -0.01     0.00   0.00   0.00
                     40                     41                     42
                        a                      a                      a 
 Frequencies --   724.6446               729.6131               731.2487
 Red. masses --    14.5911                14.8482                15.1793
 Frc consts  --     0.0000                 0.0000                 0.0000
 IR Inten    --     1.9428                15.0286                15.7123
 Raman Activ --     0.0000                 0.0000                 0.0000
 Depolar     --     0.0000                 0.0000                 0.0000
 Atom AN      X      Y      Z        X      Y      Z        X      Y      Z
   1   7     0.01   0.01  -0.01     0.01   0.01  -0.01    -0.00  -0.01   0.01
   2   6     0.01  -0.01   0.00     0.00  -0.00  -0.00    -0.00   0.00  -0.00
   3   6    -0.05  -0.06   0.02    -0.05  -0.03   0.02     0.03   0.02  -0.01
   4   6    -0.16  -0.19   0.03    -0.11  -0.13   0.02     0.07   0.09  -0.01
   5   6    -0.33  -0.16   0.03    -0.23  -0.12   0.02     0.16   0.08  -0.01
   6   6    -0.06   0.35  -0.02    -0.04   0.22  -0.01     0.03  -0.16   0.01
   7   6     0.06   0.21  -0.02     0.01   0.16  -0.01    -0.00  -0.12   0.01
   8   6    -0.00  -0.13   0.01     0.03   0.15  -0.01    -0.03  -0.16   0.01
   9   6    -0.10  -0.18   0.02     0.16   0.20  -0.02    -0.17  -0.21   0.02
  10   6    -0.08   0.10  -0.00     0.16  -0.22   0.01    -0.15   0.21  -0.01
  11   6    -0.04   0.09  -0.00     0.03  -0.17   0.01    -0.05   0.17  -0.01
  12   6    -0.02   0.16  -0.01    -0.01  -0.02   0.00    -0.01   0.11  -0.01
  13   6     0.06   0.24  -0.02    -0.01  -0.01   0.00     0.05   0.18  -0.01
  14   6     0.26  -0.19  -0.00    -0.05   0.05  -0.00     0.18  -0.10  -0.00
  15   6     0.13  -0.18   0.01     0.01   0.04  -0.00     0.11  -0.11   0.00
  16   6    -0.06   0.08  -0.00     0.18  -0.20   0.00     0.17  -0.17   0.00
  17   6    -0.09   0.10  -0.00     0.29  -0.20  -0.00     0.27  -0.16  -0.00
  18   6    -0.01  -0.08   0.01     0.07   0.34  -0.02     0.08   0.34  -0.02
  19   6     0.01  -0.07   0.00    -0.07   0.21  -0.00    -0.08   0.20  -0.00
  20  16     0.09   0.01  -0.00    -0.27  -0.10   0.02    -0.26  -0.12   0.02
  21  16    -0.23  -0.04   0.01     0.02  -0.01  -0.00    -0.20  -0.05   0.01
  22  16     0.13   0.04  -0.01    -0.20   0.01   0.01     0.21  -0.01  -0.01
  23  16     0.29  -0.08  -0.01     0.23  -0.07  -0.01    -0.16   0.06   0.01
  24   1     0.00   0.01  -0.01     0.00   0.00  -0.01    -0.00  -0.00   0.00
  25   1    -0.01  -0.00  -0.00    -0.01  -0.00  -0.00     0.00   0.00   0.00
  26   1     0.00   0.01  -0.01     0.00   0.00  -0.01    -0.00  -0.00   0.00
  27   1     0.01   0.01   0.00     0.00   0.00  -0.01    -0.00  -0.00   0.00
  28   1    -0.00   0.01  -0.01     0.00   0.00  -0.01    -0.00  -0.00   0.00
  29   1     0.05  -0.02  -0.02     0.03  -0.01  -0.01    -0.02   0.01   0.01
  30   1    -0.04   0.05   0.03    -0.03   0.04   0.02     0.02  -0.03  -0.01
  31   1    -0.05  -0.12   0.01    -0.04  -0.08   0.01     0.03   0.06  -0.01
  32   1     0.07   0.11  -0.01     0.05   0.07  -0.01    -0.04  -0.05   0.00
  33   1     0.00  -0.07   0.00    -0.00   0.09  -0.01     0.00  -0.09   0.01
  34   1     0.02   0.05  -0.00    -0.01  -0.09   0.01     0.02   0.10  -0.01
  35   1    -0.06   0.08  -0.00     0.01  -0.01  -0.00    -0.03   0.06  -0.00
  36   1     0.03  -0.12   0.01    -0.01   0.01  -0.00     0.02  -0.08   0.00
  37   1    -0.01   0.06  -0.00     0.02  -0.14   0.00     0.02  -0.13   0.00
  38   1     0.03  -0.03  -0.00    -0.06   0.11  -0.01    -0.05   0.11  -0.01
  39   1    -0.00   0.00  -0.00    -0.01  -0.01  -0.01    -0.01  -0.01  -0.01
                     43                     44                     45
                        a                      a                      a 
 Frequencies --   750.6824               809.8457               815.7010
 Red. masses --     2.5388                 3.3327                 3.0427
 Frc consts  --     0.0000                 0.0000                 0.0000
 IR Inten    --    15.4654                 2.6872                38.8249
 Raman Activ --     0.0000                 0.0000                 0.0000
 Depolar     --     0.0000                 0.0000                 0.0000
 Atom AN      X      Y      Z        X      Y      Z        X      Y      Z
   1   7    -0.00  -0.00  -0.01    -0.00   0.00   0.00    -0.00  -0.01   0.00
   2   6     0.00  -0.00   0.00    -0.00   0.00   0.00     0.00   0.01   0.01
   3   6    -0.00   0.01   0.00     0.00  -0.00  -0.00     0.00   0.02  -0.00
   4   6    -0.00  -0.00  -0.01     0.00  -0.00  -0.01    -0.00  -0.01  -0.05
   5   6     0.00  -0.00   0.01     0.00   0.00   0.03     0.00  -0.00   0.13
   6   6     0.00  -0.00   0.01     0.01   0.01   0.14     0.02   0.02   0.34
   7   6    -0.00  -0.00  -0.00    -0.00  -0.00  -0.05    -0.01   0.00  -0.07
   8   6    -0.00   0.00  -0.00     0.00   0.01   0.10    -0.00  -0.00  -0.01
   9   6     0.00   0.00   0.01    -0.01  -0.02  -0.26     0.00   0.00   0.07
  10   6     0.00   0.00   0.01    -0.01  -0.02  -0.28     0.01   0.01   0.13
  11   6    -0.00  -0.00  -0.01     0.00   0.01   0.10    -0.00  -0.00  -0.03
  12   6    -0.00   0.00  -0.00    -0.00  -0.00  -0.06     0.00  -0.00  -0.01
  13   6     0.00   0.01   0.01     0.00   0.01   0.10     0.00   0.00   0.07
  14   6     0.00  -0.00   0.01     0.00   0.00   0.04     0.00   0.00   0.06
  15   6     0.00  -0.00  -0.01    -0.00  -0.00  -0.02    -0.00  -0.00  -0.03
  16   6     0.00  -0.00   0.05     0.00  -0.00   0.01    -0.00   0.00   0.02
  17   6     0.01  -0.01  -0.03     0.00  -0.00  -0.00    -0.00  -0.00  -0.02
  18   6    -0.00   0.00  -0.11     0.00   0.00  -0.00    -0.00  -0.00  -0.01
  19   6    -0.02  -0.02  -0.35    -0.00  -0.00  -0.00     0.00   0.00   0.02
  20  16    -0.00   0.00   0.03     0.00   0.00   0.00    -0.00  -0.00   0.00
  21  16    -0.00  -0.00   0.00    -0.00  -0.00  -0.01     0.00  -0.00  -0.01
  22  16    -0.00  -0.00   0.00     0.00   0.00   0.04     0.00   0.00  -0.01
  23  16     0.00   0.00   0.00    -0.00  -0.00  -0.02    -0.00  -0.00  -0.04
  24   1     0.00   0.00   0.00    -0.00  -0.00  -0.00    -0.00  -0.01   0.00
  25   1     0.00   0.00  -0.00    -0.00  -0.01   0.00    -0.00  -0.01   0.00
  26   1    -0.00  -0.00   0.00     0.01   0.00  -0.00     0.00  -0.00  -0.00
  27   1     0.00   0.00  -0.00    -0.00  -0.01  -0.00    -0.01  -0.01  -0.02
  28   1     0.00  -0.00   0.00     0.01  -0.00   0.00     0.02  -0.01   0.01
  29   1    -0.00   0.00   0.00     0.00  -0.00   0.00    -0.00  -0.00   0.01
  30   1    -0.00   0.00  -0.00     0.00  -0.00   0.00     0.00  -0.01  -0.01
  31   1    -0.00  -0.00  -0.01    -0.01  -0.01  -0.11    -0.02  -0.02  -0.36
  32   1     0.00  -0.00  -0.02    -0.01  -0.02  -0.26    -0.04  -0.05  -0.72
  33   1    -0.00  -0.00  -0.02     0.03   0.03   0.54    -0.01  -0.01  -0.19
  34   1    -0.00  -0.00  -0.02     0.03   0.04   0.61    -0.01  -0.02  -0.28
  35   1    -0.00   0.00  -0.01    -0.01  -0.01  -0.18    -0.01  -0.01  -0.15
  36   1    -0.00  -0.00  -0.01    -0.00  -0.01  -0.12    -0.01  -0.01  -0.14
  37   1     0.01   0.01   0.27     0.00   0.00   0.01     0.00   0.00   0.03
  38   1     0.01   0.01   0.24     0.00   0.00   0.00    -0.00   0.00   0.02
  39   1     0.03   0.04   0.85     0.00  -0.00   0.01    -0.00  -0.00  -0.05
                     46                     47                     48
                        a                      a                      a 
 Frequencies --   816.1850               822.4928               830.2027
 Red. masses --     3.2230                 3.5105                 3.4263
 Frc consts  --     0.0000                 0.0000                 0.0000
 IR Inten    --     8.8963                59.2623                 9.0210
 Raman Activ --     0.0000                 0.0000                 0.0000
 Depolar     --     0.0000                 0.0000                 0.0000
 Atom AN      X      Y      Z        X      Y      Z        X      Y      Z
   1   7    -0.00   0.00   0.01     0.18  -0.04  -0.01     0.00   0.00   0.00
   2   6    -0.00   0.01   0.00     0.08  -0.22   0.00    -0.00  -0.00  -0.00
   3   6     0.00   0.00  -0.00    -0.24  -0.13   0.05    -0.00  -0.00   0.00
   4   6     0.00  -0.00  -0.01    -0.12   0.05  -0.05     0.00   0.00   0.00
   5   6     0.00   0.00   0.04     0.07   0.10  -0.01     0.00   0.00   0.00
   6   6     0.01   0.01   0.12     0.01  -0.03   0.02     0.00   0.00   0.01
   7   6    -0.00   0.00  -0.03     0.02  -0.08  -0.00     0.00  -0.00  -0.00
   8   6     0.00   0.00   0.03     0.03   0.02  -0.00     0.00   0.00  -0.00
   9   6    -0.00  -0.01  -0.08    -0.01   0.01  -0.00     0.00   0.00   0.01
  10   6     0.00  -0.00  -0.01    -0.02   0.02   0.00     0.00   0.00   0.01
  11   6    -0.00  -0.00  -0.02    -0.00   0.01  -0.00    -0.00   0.00   0.00
  12   6     0.00   0.00   0.09     0.00  -0.00   0.00    -0.00  -0.00  -0.01
  13   6    -0.01  -0.02  -0.31    -0.00  -0.00  -0.00     0.00  -0.00   0.05
  14   6    -0.01  -0.01  -0.23    -0.00   0.00  -0.00    -0.00   0.00   0.02
  15   6     0.01   0.01   0.10     0.01   0.00   0.00     0.01   0.00   0.02
  16   6     0.00  -0.00  -0.04     0.01   0.00  -0.00     0.01  -0.01  -0.09
  17   6     0.00   0.00   0.04    -0.00   0.00   0.00     0.02   0.02   0.42
  18   6     0.00   0.00   0.01    -0.00  -0.00   0.00     0.00   0.00   0.07
  19   6    -0.01  -0.01  -0.02    -0.00  -0.00   0.00    -0.02  -0.03  -0.14
  20  16     0.00   0.00  -0.00    -0.00   0.00  -0.00     0.00   0.01  -0.04
  21  16     0.00   0.00   0.03    -0.00   0.00   0.00    -0.00   0.00  -0.01
  22  16     0.00   0.00   0.01    -0.01  -0.02   0.00     0.00  -0.00  -0.00
  23  16    -0.00  -0.00  -0.01     0.05   0.02  -0.01    -0.00  -0.00  -0.00
  24   1    -0.01  -0.01   0.00     0.25   0.39  -0.18    -0.00  -0.00  -0.00
  25   1     0.00  -0.01  -0.00    -0.15   0.03   0.05    -0.00  -0.00   0.00
  26   1     0.01   0.00  -0.01    -0.28  -0.03   0.08     0.00   0.00  -0.00
  27   1    -0.01  -0.01  -0.01     0.21   0.27   0.16    -0.00  -0.00   0.00
  28   1     0.01  -0.00   0.00    -0.35   0.07  -0.07     0.00   0.00  -0.00
  29   1    -0.00  -0.00   0.00     0.11   0.06  -0.20     0.00   0.00  -0.00
  30   1     0.00  -0.00  -0.00    -0.06   0.17   0.21     0.00   0.00   0.00
  31   1    -0.01  -0.01  -0.11     0.02   0.03   0.00    -0.00  -0.00  -0.01
  32   1    -0.01  -0.02  -0.24    -0.05  -0.02  -0.04    -0.00  -0.00  -0.02
  33   1     0.01   0.01   0.14    -0.01   0.01   0.01    -0.00  -0.00  -0.03
  34   1     0.00   0.00   0.06    -0.01   0.00  -0.00    -0.00  -0.00  -0.02
  35   1     0.03   0.03   0.64     0.00  -0.00   0.01    -0.00  -0.01  -0.10
  36   1     0.02   0.03   0.53    -0.00   0.00   0.01    -0.00  -0.00  -0.05
  37   1    -0.00  -0.01  -0.08    -0.00  -0.00  -0.00    -0.03  -0.04  -0.78
  38   1     0.00  -0.00  -0.02     0.00  -0.00   0.00    -0.00  -0.02  -0.28
  39   1     0.00  -0.00   0.05    -0.00  -0.00  -0.00     0.01   0.00   0.29
                     49                     50                     51
                        a                      a                      a 
 Frequencies --   830.4149               855.7062               862.3633
 Red. masses --    13.9640                 3.6559                 3.6070
 Frc consts  --     0.0000                 0.0000                 0.0000
 IR Inten    --    63.4152                 0.0163                 0.3723
 Raman Activ --     0.0000                 0.0000                 0.0000
 Depolar     --     0.0000                 0.0000                 0.0000
 Atom AN      X      Y      Z        X      Y      Z        X      Y      Z
   1   7     0.00  -0.00   0.00    -0.00   0.00  -0.00     0.00   0.00   0.00
   2   6    -0.00  -0.00  -0.00    -0.00   0.00  -0.00    -0.00  -0.00   0.00
   3   6    -0.00  -0.00   0.00     0.00  -0.00   0.00    -0.00  -0.00  -0.00
   4   6    -0.00   0.00  -0.00     0.00  -0.00   0.01    -0.00   0.00  -0.00
   5   6     0.00   0.00  -0.00    -0.01  -0.00  -0.06     0.00   0.00   0.03
   6   6     0.00  -0.00   0.00    -0.00   0.00   0.01    -0.00  -0.00  -0.01
   7   6    -0.00   0.00  -0.00     0.00  -0.00  -0.01     0.00  -0.00   0.00
   8   6    -0.01  -0.01   0.00     0.01   0.00   0.03     0.00  -0.00  -0.01
   9   6    -0.02  -0.01   0.00    -0.02  -0.02  -0.34     0.01   0.01   0.12
  10   6    -0.01  -0.01   0.00     0.01   0.02   0.30    -0.01  -0.01  -0.12
  11   6     0.03  -0.02   0.00     0.00  -0.00  -0.01    -0.00   0.00  -0.00
  12   6     0.03   0.09  -0.01     0.00   0.00   0.01     0.00  -0.00   0.01
  13   6     0.04   0.08  -0.01    -0.00  -0.01  -0.10    -0.01  -0.02  -0.30
  14   6     0.05  -0.02  -0.00     0.01   0.01   0.15     0.01   0.02   0.34
  15   6    -0.25  -0.01   0.01     0.00  -0.00  -0.02     0.00  -0.00  -0.03
  16   6    -0.33   0.07   0.01     0.00   0.00   0.00     0.00   0.00   0.00
  17   6    -0.10   0.00   0.02    -0.00   0.00   0.00    -0.00   0.00   0.01
  18   6     0.02  -0.03   0.00    -0.00  -0.00   0.01    -0.00  -0.00   0.01
  19   6     0.47   0.47  -0.05    -0.00  -0.00  -0.00     0.00   0.00  -0.01
  20  16    -0.05  -0.40   0.02    -0.00   0.00  -0.00    -0.00  -0.00  -0.00
  21  16     0.11  -0.08  -0.00    -0.00  -0.00  -0.00    -0.00   0.00  -0.00
  22  16    -0.01   0.03  -0.00    -0.00  -0.00   0.00     0.00  -0.00   0.00
  23  16     0.00  -0.00  -0.00     0.00   0.00   0.00    -0.00  -0.00  -0.00
  24   1     0.00   0.01  -0.00    -0.00  -0.00   0.00     0.00  -0.00  -0.00
  25   1    -0.00   0.00   0.00     0.00   0.00  -0.00    -0.00  -0.00   0.00
  26   1    -0.00   0.00   0.00     0.00   0.00   0.00     0.00   0.00  -0.00
  27   1     0.00   0.00   0.00    -0.00  -0.00   0.00    -0.00  -0.00  -0.00
  28   1    -0.00   0.00  -0.00     0.00   0.00  -0.00     0.00   0.00  -0.00
  29   1     0.00   0.00  -0.00     0.00  -0.00   0.00     0.00   0.00  -0.00
  30   1    -0.00   0.00   0.00    -0.00  -0.00  -0.00     0.00   0.00   0.00
  31   1     0.00  -0.00   0.00     0.01   0.01   0.13    -0.00  -0.00  -0.07
  32   1     0.00  -0.00  -0.00    -0.00   0.00   0.01    -0.00   0.00   0.01
  33   1    -0.01  -0.00   0.00     0.03   0.04   0.61    -0.01  -0.01  -0.21
  34   1    -0.01  -0.01   0.00    -0.02  -0.03  -0.52     0.01   0.01   0.23
  35   1    -0.03   0.03   0.00     0.01   0.01   0.15     0.02   0.03   0.52
  36   1     0.04   0.04   0.00    -0.01  -0.02  -0.28    -0.03  -0.03  -0.62
  37   1     0.03   0.09  -0.04    -0.00  -0.00  -0.01    -0.00  -0.00  -0.02
  38   1    -0.17   0.03  -0.01    -0.00  -0.00  -0.01    -0.00  -0.00  -0.03
  39   1     0.11   0.31  -0.01     0.00   0.00   0.01     0.00   0.00   0.01
                     52                     53                     54
                        a                      a                      a 
 Frequencies --   864.5287               869.4803               876.8587
 Red. masses --    13.7015                 3.5318                 5.5937
 Frc consts  --     0.0000                 0.0000                 0.0000
 IR Inten    --    15.8849                 1.6193                 7.9192
 Raman Activ --     0.0000                 0.0000                 0.0000
 Depolar     --     0.0000                 0.0000                 0.0000
 Atom AN      X      Y      Z        X      Y      Z        X      Y      Z
   1   7     0.00  -0.00  -0.00    -0.01   0.00  -0.01     0.14   0.26  -0.06
   2   6    -0.00  -0.00  -0.00    -0.01   0.00  -0.02    -0.17  -0.07   0.03
   3   6    -0.00   0.01   0.01     0.02   0.01   0.01    -0.12  -0.38   0.11
   4   6     0.01   0.01  -0.00     0.01   0.00   0.04     0.05   0.03   0.02
   5   6     0.03  -0.00   0.00    -0.03  -0.03  -0.41     0.02   0.13  -0.02
   6   6     0.01  -0.00  -0.00     0.01   0.02   0.23    -0.04   0.07   0.01
   7   6    -0.04   0.05  -0.00     0.00  -0.00   0.01     0.08  -0.09   0.00
   8   6    -0.08  -0.06   0.01     0.00   0.00  -0.01     0.11   0.04  -0.01
   9   6    -0.06  -0.04   0.01     0.00   0.00   0.06    -0.01   0.01   0.01
  10   6    -0.01  -0.02   0.00    -0.00  -0.00  -0.04    -0.03   0.02   0.00
  11   6     0.17  -0.09  -0.00    -0.00   0.00  -0.00    -0.03   0.03  -0.00
  12   6     0.12   0.23  -0.02    -0.00   0.00   0.00    -0.02  -0.01   0.00
  13   6     0.06   0.13  -0.01     0.00   0.00  -0.01     0.01   0.01   0.01
  14   6     0.03  -0.04   0.01     0.00  -0.00   0.01     0.02  -0.01  -0.00
  15   6    -0.48  -0.00   0.02    -0.00  -0.00   0.00    -0.03  -0.01   0.00
  16   6    -0.40  -0.09   0.02    -0.00  -0.00  -0.00    -0.03  -0.01   0.00
  17   6     0.19  -0.08  -0.00     0.00  -0.00   0.00     0.01  -0.01  -0.06
  18   6     0.10   0.22  -0.02     0.00   0.00  -0.00     0.01   0.02   0.12
  19   6    -0.30  -0.14   0.02    -0.00  -0.00  -0.00    -0.02  -0.01  -0.02
  20  16     0.25   0.08  -0.01     0.00   0.00  -0.00     0.02   0.00  -0.01
  21  16     0.16  -0.18   0.00     0.00  -0.00   0.00     0.01   0.00  -0.00
  22  16    -0.02   0.10  -0.01    -0.00  -0.00  -0.00    -0.03  -0.05   0.00
  23  16     0.00  -0.03   0.00     0.00   0.00   0.02    -0.06  -0.00   0.00
  24   1     0.01   0.01  -0.00    -0.01  -0.01   0.01    -0.09  -0.18  -0.01
  25   1     0.00   0.01   0.00     0.02   0.02  -0.01     0.02  -0.10  -0.04
  26   1    -0.01  -0.00   0.01    -0.01  -0.01   0.01     0.31   0.15  -0.22
  27   1     0.00   0.01  -0.00    -0.00  -0.00   0.00    -0.11  -0.13   0.01
  28   1    -0.01  -0.00   0.00    -0.01  -0.00   0.00     0.12   0.07  -0.17
  29   1    -0.00   0.00   0.00    -0.01  -0.00   0.01     0.21   0.01  -0.23
  30   1     0.00  -0.00   0.00    -0.00  -0.01  -0.02     0.05   0.11   0.35
  31   1     0.01  -0.00  -0.01     0.05   0.04   0.78    -0.02   0.09   0.01
  32   1     0.02   0.00   0.00    -0.02  -0.02  -0.36    -0.10   0.01  -0.01
  33   1     0.00  -0.03   0.00    -0.01  -0.01  -0.11    -0.04   0.03  -0.01
  34   1    -0.06  -0.04   0.00     0.00   0.00   0.07     0.00   0.01  -0.01
  35   1    -0.09   0.06   0.00     0.00   0.00   0.02     0.01   0.00  -0.01
  36   1     0.08   0.10  -0.02     0.00   0.00  -0.01     0.01   0.01   0.00
  37   1     0.09   0.04  -0.01     0.00   0.00  -0.00     0.01   0.01   0.09
  38   1     0.07   0.05   0.00     0.00   0.00  -0.00    -0.01  -0.01  -0.23
  39   1    -0.06  -0.20   0.01    -0.00  -0.00   0.00    -0.00  -0.01   0.05
                     55                     56                     57
                        a                      a                      a 
 Frequencies --   878.1876               884.3682               901.0237
 Red. masses --     3.6206                12.9721                10.8519
 Frc consts  --     0.0000                 0.0000                 0.0000
 IR Inten    --     1.6409                 0.7144                18.8537
 Raman Activ --     0.0000                 0.0000                 0.0000
 Depolar     --     0.0000                 0.0000                 0.0000
 Atom AN      X      Y      Z        X      Y      Z        X      Y      Z
   1   7     0.04   0.08  -0.02    -0.09  -0.08   0.06     0.10   0.09  -0.21
   2   6    -0.05  -0.02   0.01     0.11   0.04   0.02    -0.17  -0.07  -0.08
   3   6    -0.03  -0.11   0.03     0.05   0.07  -0.11     0.03  -0.02   0.24
   4   6     0.02   0.01   0.01    -0.09  -0.07   0.01     0.09   0.02  -0.03
   5   6     0.00   0.04  -0.01    -0.19  -0.02   0.02     0.06  -0.02   0.01
   6   6    -0.01   0.02  -0.00    -0.03   0.04  -0.01    -0.01  -0.03   0.00
   7   6     0.03  -0.03   0.00     0.30  -0.33   0.01    -0.17   0.19  -0.00
   8   6     0.04   0.02  -0.00     0.42   0.19  -0.03    -0.18   0.01   0.01
   9   6     0.00   0.01  -0.00     0.03   0.06  -0.00     0.16   0.06  -0.01
  10   6    -0.01   0.01  -0.00    -0.09   0.07  -0.00     0.11  -0.07  -0.00
  11   6    -0.02   0.01   0.00    -0.27   0.18   0.00    -0.38   0.12   0.01
  12   6    -0.01  -0.01   0.00    -0.18  -0.14   0.02    -0.31  -0.25   0.03
  13   6     0.00   0.00  -0.01     0.07   0.05  -0.01     0.07   0.06  -0.01
  14   6     0.01  -0.00   0.01     0.14  -0.04  -0.00     0.17  -0.04  -0.00
  15   6    -0.01  -0.00  -0.00    -0.14  -0.05   0.01    -0.09  -0.07   0.01
  16   6    -0.01  -0.00   0.01    -0.17  -0.03   0.01    -0.14  -0.02   0.01
  17   6     0.01   0.01   0.18     0.05  -0.03  -0.00     0.04  -0.03  -0.00
  18   6    -0.01  -0.02  -0.40     0.04   0.07   0.00     0.03   0.05   0.00
  19   6     0.00   0.00   0.08    -0.07  -0.01   0.00    -0.04  -0.00   0.00
  20  16     0.00   0.00   0.02     0.08  -0.00  -0.00     0.05  -0.01  -0.00
  21  16     0.00   0.00  -0.00     0.08   0.07  -0.01     0.08   0.14  -0.01
  22  16    -0.01  -0.02   0.00    -0.06  -0.24   0.02     0.14  -0.06  -0.00
  23  16    -0.02   0.00   0.00     0.00   0.17  -0.01    -0.01  -0.09   0.01
  24   1    -0.03  -0.05  -0.00    -0.01  -0.00   0.01     0.02   0.03   0.06
  25   1     0.01  -0.03  -0.01    -0.05  -0.03   0.02     0.22   0.20  -0.06
  26   1     0.09   0.04  -0.06    -0.03  -0.02   0.02    -0.07  -0.06   0.12
  27   1    -0.03  -0.04   0.00     0.03   0.00   0.03    -0.02   0.02  -0.04
  28   1     0.04   0.02  -0.05     0.01  -0.00   0.03    -0.09  -0.04   0.03
  29   1     0.06   0.00  -0.07    -0.03  -0.02   0.04    -0.02  -0.01   0.07
  30   1     0.01   0.03   0.10    -0.03  -0.01  -0.13     0.05  -0.07   0.09
  31   1    -0.01   0.03   0.00    -0.04  -0.04  -0.01    -0.00   0.03  -0.02
  32   1    -0.03   0.00   0.00    -0.15  -0.01   0.01     0.09   0.00  -0.00
  33   1    -0.01   0.01   0.00    -0.13   0.12  -0.00     0.08  -0.01   0.00
  34   1     0.00   0.01   0.00     0.06   0.08  -0.01     0.15   0.06  -0.01
  35   1     0.01   0.00   0.01     0.09  -0.00  -0.00     0.15  -0.01  -0.00
  36   1     0.00   0.00  -0.01     0.06   0.03  -0.00     0.05   0.00  -0.00
  37   1    -0.01  -0.01  -0.29     0.04   0.02   0.00     0.03   0.02  -0.00
  38   1     0.03   0.04   0.78     0.01   0.02  -0.01    -0.00   0.01  -0.01
  39   1    -0.01  -0.01  -0.14    -0.01  -0.04   0.00    -0.01  -0.03  -0.00
                     58                     59                     60
                        a                      a                      a 
 Frequencies --   905.8993              1004.6404              1026.1192
 Red. masses --     8.2747                 6.8349                 7.5228
 Frc consts  --     0.0000                 0.0000                 0.0000
 IR Inten    --    31.5695                59.3435                14.2508
 Raman Activ --     0.0000                 0.0000                 0.0000
 Depolar     --     0.0000                 0.0000                 0.0000
 Atom AN      X      Y      Z        X      Y      Z        X      Y      Z
   1   7    -0.08  -0.11   0.30     0.33   0.03   0.09     0.16   0.27  -0.09
   2   6     0.20   0.08   0.11    -0.46  -0.03   0.05    -0.08  -0.46   0.31
   3   6    -0.09   0.03  -0.31     0.06   0.16  -0.05     0.02   0.25  -0.19
   4   6    -0.05   0.05   0.03     0.25  -0.03   0.03    -0.17   0.04  -0.05
   5   6     0.12   0.03  -0.03    -0.16  -0.16   0.01    -0.02  -0.04   0.00
   6   6     0.03  -0.06   0.00    -0.00  -0.03   0.00     0.04  -0.04   0.00
   7   6    -0.18   0.17  -0.00     0.04   0.02  -0.00    -0.01  -0.02   0.00
   8   6    -0.22  -0.03   0.01     0.10   0.03  -0.01    -0.02  -0.01   0.00
   9   6     0.10   0.04  -0.01    -0.02  -0.03   0.00     0.01   0.01  -0.00
  10   6     0.10  -0.06   0.00    -0.02   0.01   0.00    -0.00   0.00   0.00
  11   6    -0.21   0.05   0.01     0.00   0.01  -0.00     0.00  -0.00   0.00
  12   6    -0.18  -0.15   0.02     0.01   0.01  -0.00    -0.00  -0.00   0.00
  13   6     0.03   0.04  -0.00    -0.00  -0.00   0.00     0.00   0.00  -0.00
  14   6     0.09  -0.02  -0.00    -0.00   0.00  -0.00     0.00  -0.00   0.00
  15   6    -0.04  -0.04   0.00    -0.00  -0.00   0.00    -0.00   0.00  -0.00
  16   6    -0.07  -0.01   0.00    -0.00   0.00  -0.00     0.00  -0.00   0.00
  17   6     0.02  -0.01   0.00    -0.00  -0.00   0.00     0.00   0.00  -0.00
  18   6     0.01   0.03  -0.00     0.00   0.00  -0.00    -0.00  -0.00   0.00
  19   6    -0.02  -0.00   0.00    -0.00  -0.00  -0.00     0.00  -0.00   0.00
  20  16     0.03  -0.00  -0.00     0.00   0.00   0.00    -0.00  -0.00  -0.00
  21  16     0.05   0.08  -0.01    -0.00  -0.00  -0.00     0.00   0.00  -0.00
  22  16     0.11   0.00  -0.01    -0.02  -0.02   0.00     0.00   0.00  -0.00
  23  16     0.04  -0.08   0.00    -0.06   0.01   0.00     0.05   0.03  -0.00
  24   1    -0.01  -0.02  -0.12     0.20   0.24  -0.24    -0.04  -0.09   0.04
  25   1    -0.35  -0.31   0.09    -0.25  -0.13   0.07     0.11   0.01  -0.05
  26   1     0.12   0.12  -0.21    -0.01   0.10  -0.13     0.19   0.09  -0.09
  27   1     0.03  -0.02   0.03    -0.12   0.03  -0.29     0.01  -0.09   0.40
  28   1     0.12   0.07  -0.07     0.04  -0.08   0.07    -0.15  -0.02  -0.03
  29   1     0.02   0.04  -0.15    -0.16   0.07   0.02    -0.27   0.16  -0.06
  30   1    -0.06   0.10  -0.06     0.18  -0.19   0.04     0.00  -0.06  -0.16
  31   1     0.03   0.02   0.03    -0.07   0.01   0.02     0.07  -0.15   0.00
  32   1     0.08  -0.01  -0.01     0.11  -0.00  -0.00     0.02  -0.01  -0.00
  33   1     0.09  -0.03  -0.00    -0.03   0.01   0.00     0.02  -0.01   0.00
  34   1     0.09   0.02  -0.01     0.01   0.01  -0.00    -0.01  -0.01   0.00
  35   1     0.09  -0.01  -0.01    -0.01  -0.00   0.00    -0.00   0.00   0.00
  36   1     0.03  -0.00  -0.00     0.00   0.01  -0.00    -0.00  -0.00   0.00
  37   1     0.02   0.01  -0.00    -0.00  -0.00  -0.00     0.00   0.00  -0.00
  38   1     0.00   0.01   0.01     0.00  -0.00  -0.00    -0.00   0.00  -0.00
  39   1    -0.00  -0.01   0.00     0.00  -0.00   0.00     0.00   0.00  -0.00
                     61                     62                     63
                        a                      a                      a 
 Frequencies --  1064.2966              1075.9578              1078.3677
 Red. masses --     6.4538                 4.7673                 3.8840
 Frc consts  --     0.0000                 0.0000                 0.0000
 IR Inten    --     5.7407                23.8785                13.4223
 Raman Activ --     0.0000                 0.0000                 0.0000
 Depolar     --     0.0000                 0.0000                 0.0000
 Atom AN      X      Y      Z        X      Y      Z        X      Y      Z
   1   7     0.16  -0.01  -0.11     0.01   0.00  -0.02    -0.01  -0.00   0.03
   2   6    -0.21   0.06   0.33    -0.01  -0.00   0.06     0.00   0.00  -0.08
   3   6     0.05  -0.14  -0.33    -0.02  -0.01  -0.05     0.04   0.01   0.07
   4   6    -0.16  -0.04   0.10    -0.00  -0.00   0.01    -0.00  -0.00  -0.01
   5   6     0.20   0.13  -0.02     0.01   0.01  -0.00     0.00  -0.01   0.00
   6   6    -0.05   0.15  -0.02    -0.00  -0.04   0.00    -0.00   0.07  -0.00
   7   6    -0.01  -0.09   0.01    -0.04   0.07  -0.00     0.05  -0.09   0.00
   8   6    -0.15  -0.07   0.01     0.02   0.04  -0.00    -0.04  -0.05   0.01
   9   6     0.03   0.07  -0.01    -0.02  -0.05   0.00     0.03   0.07  -0.01
  10   6     0.01   0.01  -0.00     0.04  -0.10   0.00    -0.05   0.12  -0.00
  11   6     0.01  -0.01   0.00    -0.11   0.09  -0.00     0.13  -0.11   0.00
  12   6    -0.03  -0.03   0.00     0.04   0.12  -0.01    -0.05  -0.15   0.01
  13   6     0.00   0.02  -0.00    -0.03  -0.13   0.01     0.03   0.15  -0.01
  14   6    -0.00   0.00   0.00     0.09  -0.04  -0.00    -0.11   0.07   0.00
  15   6     0.00  -0.00  -0.00    -0.09   0.01   0.00     0.11  -0.04  -0.00
  16   6    -0.01  -0.00   0.00     0.11   0.01  -0.00    -0.14   0.03   0.00
  17   6     0.01  -0.00  -0.00    -0.36   0.06   0.01    -0.12  -0.03   0.01
  18   6    -0.00  -0.00   0.00     0.11   0.16  -0.01    -0.02   0.10  -0.00
  19   6    -0.00  -0.00   0.00     0.22   0.07  -0.01     0.14   0.06  -0.01
  20  16     0.00   0.00  -0.00     0.00  -0.03   0.00     0.06  -0.04  -0.00
  21  16     0.00   0.01  -0.00     0.00  -0.02   0.00    -0.00   0.04  -0.00
  22  16     0.03   0.02  -0.00     0.02  -0.02   0.00    -0.02   0.03  -0.00
[...]
  21  16     0.01   0.01  -0.00     0.00   0.00  -0.00     0.00  -0.00  -0.00
  22  16    -0.00   0.00   0.00    -0.00  -0.00   0.00     0.00  -0.00  -0.00
  23  16    -0.00  -0.00   0.00     0.01   0.00  -0.00     0.00   0.00   0.00
  24   1    -0.00  -0.00  -0.00     0.00   0.01   0.01    -0.00   0.00  -0.00
  25   1     0.00  -0.00  -0.00    -0.00   0.00   0.00     0.00   0.00  -0.00
  26   1    -0.00  -0.00   0.00     0.01  -0.00   0.00     0.00   0.01   0.00
  27   1     0.00   0.00   0.01    -0.00  -0.01  -0.03     0.06  -0.03   0.00
  28   1     0.01  -0.00   0.00    -0.02   0.01  -0.01    -0.03  -0.17  -0.12
  29   1    -0.01   0.01  -0.00     0.06  -0.05   0.02     0.15   0.53   0.37
  30   1     0.00  -0.01   0.00    -0.01   0.03  -0.01     0.50   0.27  -0.32
  31   1     0.02  -0.01  -0.00    -0.13   0.07   0.00    -0.01  -0.00   0.00
  32   1     0.02  -0.00  -0.00    -0.13   0.04   0.01     0.00   0.00  -0.00
  33   1     0.01  -0.01  -0.00     0.04  -0.01  -0.00    -0.00  -0.00  -0.00
  34   1     0.03   0.00  -0.00     0.03   0.01  -0.00     0.00  -0.00  -0.00
  35   1    -0.06  -0.00   0.00    -0.02  -0.00   0.00    -0.00  -0.00  -0.00
  36   1    -0.05  -0.02   0.00    -0.01  -0.01   0.00     0.00  -0.00  -0.00
  37   1     0.12   0.06  -0.01     0.01   0.01  -0.00    -0.00   0.00   0.00
  38   1     0.12   0.03  -0.01     0.01   0.00  -0.00     0.00   0.00   0.00
  39   1     0.05   0.03  -0.00     0.00   0.00  -0.00     0.00   0.00   0.00
                     97                     98                     99
                        a                      a                      a 
 Frequencies --  2953.0815              2967.8063              2980.1759
 Red. masses --     1.9183                 1.5446                 1.5698
 Frc consts  --     0.0000                 0.0000                 0.0000
 IR Inten    --     9.6650                38.1067                 7.3475
 Raman Activ --     0.0000                 0.0000                 0.0000
 Depolar     --     0.0000                 0.0000                 0.0000
 Atom AN      X      Y      Z        X      Y      Z        X      Y      Z
   1   7    -0.00   0.00  -0.00    -0.00  -0.00   0.00     0.00  -0.00   0.00
   2   6     0.16  -0.21  -0.08     0.07  -0.04  -0.01    -0.14  -0.12  -0.12
   3   6    -0.05  -0.03   0.05     0.09  -0.07  -0.17    -0.02  -0.04  -0.03
   4   6    -0.00   0.00   0.00     0.01  -0.01  -0.00     0.00  -0.00  -0.00
   5   6     0.00   0.00  -0.00    -0.00   0.00  -0.00     0.00   0.00  -0.00
   6   6     0.00  -0.00  -0.00     0.00   0.00   0.00     0.00  -0.00   0.00
   7   6    -0.00  -0.00   0.00    -0.00   0.00  -0.00     0.00  -0.00  -0.00
   8   6     0.00  -0.00  -0.00     0.00  -0.00  -0.00    -0.00   0.00   0.00
   9   6    -0.00   0.00  -0.00    -0.00   0.00   0.00    -0.00  -0.00   0.00
  10   6     0.00  -0.00   0.00     0.00   0.00  -0.00     0.00  -0.00  -0.00
  11   6    -0.00  -0.00   0.00    -0.00  -0.00   0.00     0.00  -0.00  -0.00
  12   6     0.00  -0.00  -0.00     0.00   0.00  -0.00    -0.00  -0.00  -0.00
  13   6    -0.00   0.00   0.00    -0.00   0.00   0.00    -0.00   0.00  -0.00
  14   6     0.00   0.00   0.00     0.00   0.00  -0.00    -0.00   0.00   0.00
  15   6    -0.00  -0.00  -0.00    -0.00  -0.00  -0.00    -0.00  -0.00  -0.00
  16   6     0.00   0.00   0.00     0.00   0.00   0.00     0.00   0.00   0.00
  17   6    -0.00   0.00   0.00     0.00  -0.00  -0.00    -0.00   0.00   0.00
  18   6     0.00   0.00   0.00     0.00   0.00   0.00     0.00   0.00   0.00
  19   6    -0.00   0.00   0.00    -0.00   0.00   0.00    -0.00  -0.00   0.00
  20  16    -0.00  -0.00  -0.00    -0.00  -0.00  -0.00    -0.00   0.00  -0.00
  21  16    -0.00  -0.00   0.00    -0.00  -0.00   0.00     0.00   0.00   0.00
  22  16    -0.00  -0.00   0.00    -0.00  -0.00   0.00     0.00   0.00   0.00
  23  16    -0.00  -0.00   0.00    -0.00  -0.00   0.00     0.00   0.00  -0.00
  24   1     0.02  -0.01   0.00     0.01  -0.00  -0.00    -0.02   0.01  -0.00
  25   1     0.00   0.00   0.00    -0.00   0.00  -0.01    -0.00   0.00  -0.00
  26   1    -0.00  -0.01  -0.01     0.00   0.01   0.00    -0.00  -0.02  -0.01
  27   1    -0.68   0.39   0.03    -0.25   0.14   0.01     0.40  -0.26  -0.04
  28   1     0.09   0.36   0.26     0.01   0.01   0.01     0.11   0.68   0.46
  29   1    -0.03  -0.06  -0.03     0.19   0.54   0.35     0.05   0.15   0.10
  30   1     0.23   0.13  -0.14    -0.50  -0.30   0.28     0.01   0.00  -0.01
  31   1    -0.00  -0.00   0.00     0.00   0.00  -0.00    -0.00  -0.00   0.00
  32   1     0.00   0.00  -0.00     0.00  -0.00   0.00     0.00   0.00  -0.00
  33   1     0.00  -0.00  -0.00    -0.00  -0.00   0.00     0.00   0.00  -0.00
  34   1    -0.00   0.00  -0.00     0.00  -0.00   0.00    -0.00   0.00  -0.00
  35   1     0.00  -0.00   0.00    -0.00  -0.00   0.00     0.00  -0.00  -0.00
  36   1    -0.00   0.00   0.00     0.00  -0.00   0.00     0.00  -0.00   0.00
  37   1     0.00  -0.00   0.00    -0.00   0.00  -0.00     0.00  -0.00   0.00
  38   1    -0.00  -0.00   0.00    -0.00  -0.00  -0.00    -0.00   0.00   0.00
  39   1     0.00   0.00   0.00     0.00   0.00  -0.00     0.00   0.00  -0.00
                    100                    101                    102
                        a                      a                      a 
 Frequencies --  3073.8452              3082.7766              3088.3271
 Red. masses --     1.8253                 1.8247                 1.8100
 Frc consts  --     0.0000                 0.0000                 0.0000
 IR Inten    --    18.9165                25.3727                 7.8232
 Raman Activ --     0.0000                 0.0000                 0.0000
 Depolar     --     0.0000                 0.0000                 0.0000
 Atom AN      X      Y      Z        X      Y      Z        X      Y      Z
   1   7     0.00  -0.00   0.00     0.00  -0.00   0.00    -0.00   0.00  -0.00
   2   6     0.00  -0.00  -0.00     0.00   0.00   0.00    -0.00  -0.00  -0.00
   3   6    -0.00  -0.00  -0.00     0.00   0.00  -0.00    -0.00  -0.00   0.00
   4   6    -0.00   0.00  -0.00     0.01  -0.01  -0.00    -0.00   0.00   0.00
   5   6    -0.00  -0.00   0.00     0.22   0.12  -0.02    -0.05  -0.03   0.00
   6   6    -0.00   0.00  -0.00     0.01  -0.10   0.01     0.00  -0.04   0.00
   7   6     0.00  -0.00  -0.00     0.00  -0.00  -0.00     0.00   0.00  -0.00
   8   6    -0.00   0.00   0.00     0.00  -0.00  -0.00     0.00  -0.00  -0.00
   9   6    -0.00  -0.00   0.00     0.02   0.03  -0.00     0.09   0.12  -0.01
  10   6    -0.00   0.00  -0.00     0.01  -0.01   0.00     0.07  -0.12   0.00
  11   6     0.00  -0.00  -0.00     0.00  -0.00  -0.00     0.00   0.00  -0.00
  12   6    -0.00  -0.00   0.00     0.00   0.00  -0.00     0.00   0.00  -0.00
  13   6    -0.00  -0.00   0.00     0.00   0.01  -0.00     0.02   0.12  -0.01
  14   6    -0.00   0.00  -0.00     0.00  -0.00  -0.00     0.09  -0.06  -0.00
  15   6    -0.00  -0.00   0.00     0.00  -0.00  -0.00     0.00   0.00  -0.00
  16   6    -0.00   0.00   0.00    -0.00   0.00   0.00    -0.00  -0.00   0.00
  17   6    -0.05   0.04   0.00    -0.00   0.00   0.00    -0.01   0.01   0.00
  18   6    -0.05  -0.26   0.01    -0.00  -0.00   0.00     0.00   0.00  -0.00
  19   6     0.02   0.00  -0.00     0.00   0.00  -0.00    -0.00   0.00   0.00
  20  16     0.00   0.00  -0.00    -0.00  -0.00   0.00    -0.00  -0.00   0.00
  21  16     0.00   0.00  -0.00    -0.00  -0.00   0.00    -0.00  -0.00   0.00
  22  16     0.00   0.00  -0.00    -0.00  -0.00   0.00    -0.00   0.00   0.00
  23  16     0.00   0.00  -0.00    -0.00  -0.00   0.00     0.00   0.00  -0.00
  24   1    -0.00   0.00   0.00    -0.01   0.00   0.00     0.00  -0.00  -0.00
  25   1    -0.00   0.00  -0.00    -0.00   0.00  -0.00     0.00  -0.00   0.00
  26   1     0.00   0.00   0.00     0.00   0.00   0.00    -0.00  -0.00  -0.00
  27   1    -0.00   0.00   0.00    -0.00   0.00   0.00     0.00  -0.00  -0.00
  28   1     0.00   0.00   0.00    -0.00  -0.00  -0.00     0.00   0.00   0.00
  29   1     0.00   0.00   0.00    -0.00  -0.00  -0.00     0.00   0.00   0.00
  30   1    -0.00  -0.00   0.00    -0.01  -0.00   0.00     0.00   0.00  -0.00
  31   1     0.01   0.00  -0.00    -0.76  -0.42   0.07     0.16   0.09  -0.02
  32   1     0.00  -0.00   0.00    -0.03   0.37  -0.02    -0.01   0.11  -0.01
  33   1     0.00   0.00  -0.00    -0.08  -0.12   0.01    -0.31  -0.43   0.04
  34   1     0.00  -0.00   0.00    -0.03   0.05  -0.00    -0.25   0.43  -0.02
  35   1     0.00   0.00  -0.00    -0.00  -0.02   0.00    -0.08  -0.44   0.03
  36   1     0.00  -0.00  -0.00    -0.01   0.01   0.00    -0.32   0.22   0.00
  37   1     0.21  -0.15  -0.00     0.00  -0.00  -0.00     0.04  -0.03  -0.00
  38   1     0.17   0.90  -0.05     0.00   0.01  -0.00    -0.00  -0.01   0.00
  39   1    -0.09  -0.01   0.00    -0.00  -0.00   0.00     0.00   0.00  -0.00
                    103                    104                    105
                        a                      a                      a 
 Frequencies --  3090.8547              3092.6067              3096.8862
 Red. masses --     1.8169                 1.8756                 1.8872
 Frc consts  --     0.0000                 0.0000                 0.0000
 IR Inten    --     3.0432                 8.9003                 3.7076
 Raman Activ --     0.0000                 0.0000                 0.0000
 Depolar     --     0.0000                 0.0000                 0.0000
 Atom AN      X      Y      Z        X      Y      Z        X      Y      Z
   1   7     0.00  -0.00   0.00     0.00  -0.00   0.00     0.00  -0.00   0.00
   2   6     0.00   0.00   0.00     0.00  -0.00  -0.00     0.00   0.00   0.00
   3   6     0.00   0.00  -0.00    -0.00   0.00   0.00     0.00   0.00   0.00
   4   6     0.00  -0.00   0.00     0.00  -0.00  -0.00     0.00  -0.00   0.00
   5   6     0.04   0.02  -0.00     0.01   0.00  -0.00     0.08   0.04  -0.01
   6   6    -0.01   0.06  -0.00    -0.00   0.01  -0.00    -0.02   0.21  -0.01
   7   6    -0.00  -0.00   0.00    -0.00   0.00   0.00    -0.01   0.00   0.00
   8   6    -0.00   0.00   0.00    -0.00   0.00   0.00    -0.00   0.00  -0.00
   9   6    -0.08  -0.12   0.01    -0.01  -0.01   0.00    -0.01  -0.02   0.00
  10   6    -0.03   0.05  -0.00     0.00  -0.00   0.00     0.07  -0.11   0.00
  11   6    -0.00   0.00  -0.00     0.00   0.00  -0.00     0.00   0.00  -0.00
  12   6     0.00   0.00  -0.00     0.00   0.00  -0.00     0.00  -0.00  -0.00
  13   6     0.02   0.12  -0.01     0.01   0.03  -0.00     0.01   0.03  -0.00
  14   6     0.14  -0.09  -0.00     0.02  -0.01  -0.00    -0.07   0.04   0.00
  15   6     0.00   0.00  -0.00     0.00   0.00  -0.00    -0.00  -0.00   0.00
  16   6    -0.00  -0.00   0.00     0.01   0.01  -0.00    -0.00  -0.00   0.00
  17   6    -0.03   0.02   0.00     0.22  -0.15  -0.00    -0.01   0.01   0.00
  18   6     0.00   0.01  -0.00    -0.02  -0.08   0.00     0.00   0.00  -0.00
  19   6    -0.00  -0.00   0.00     0.01   0.00  -0.00    -0.00  -0.00   0.00
  20  16    -0.00  -0.00   0.00    -0.00   0.00  -0.00     0.00   0.00  -0.00
  21  16    -0.00  -0.00   0.00    -0.00  -0.00   0.00     0.00  -0.00   0.00
  22  16     0.00   0.00  -0.00     0.00   0.00  -0.00    -0.00   0.00  -0.00
  23  16    -0.00  -0.00   0.00    -0.00  -0.00   0.00    -0.00  -0.00   0.00
  24   1    -0.00   0.00   0.00    -0.00   0.00   0.00    -0.00   0.00   0.00
  25   1    -0.00  -0.00  -0.00    -0.00   0.00  -0.00    -0.00   0.00  -0.00
  26   1     0.00   0.00   0.00     0.00   0.00   0.00     0.00   0.00   0.00
  27   1    -0.00   0.00   0.00    -0.00   0.00   0.00    -0.00   0.00   0.00
  28   1    -0.00  -0.00  -0.00     0.00   0.00   0.00     0.00  -0.00  -0.00
  29   1    -0.00  -0.00  -0.00    -0.00  -0.00  -0.00    -0.00  -0.00  -0.00
  30   1    -0.00  -0.00   0.00     0.00   0.00  -0.00    -0.00  -0.00   0.00
  31   1    -0.14  -0.08   0.01    -0.02  -0.01   0.00    -0.25  -0.14   0.02
  32   1     0.02  -0.19   0.01     0.00  -0.04   0.00     0.07  -0.73   0.04
  33   1     0.30   0.41  -0.04     0.03   0.04  -0.00     0.03   0.04  -0.00
  34   1     0.10  -0.18   0.01     0.00  -0.00   0.00    -0.23   0.39  -0.01
  35   1    -0.08  -0.42   0.03    -0.02  -0.12   0.01    -0.02  -0.10   0.01
  36   1    -0.50   0.34   0.00    -0.06   0.04   0.00     0.23  -0.15  -0.00
  37   1     0.11  -0.08  -0.00    -0.75   0.52   0.01     0.03  -0.02  -0.00
  38   1    -0.01  -0.04   0.00     0.05   0.25  -0.01    -0.00  -0.01   0.00
  39   1     0.01   0.00  -0.00    -0.05  -0.01   0.00     0.00   0.00  -0.00
                    106                    107                    108
                        a                      a                      a 
 Frequencies --  3099.8283              3103.1774              3134.3444
 Red. masses --     1.9016                 1.8965                 1.8871
 Frc consts  --     0.0000                 0.0000                 0.0000
 IR Inten    --     2.7359                19.4696                 0.7326
 Raman Activ --     0.0000                 0.0000                 0.0000
 Depolar     --     0.0000                 0.0000                 0.0000
 Atom AN      X      Y      Z        X      Y      Z        X      Y      Z
   1   7    -0.00   0.00  -0.00    -0.00   0.00  -0.00     0.00  -0.00   0.00
   2   6    -0.00   0.00   0.00     0.00   0.00   0.00    -0.00   0.00   0.00
   3   6     0.00  -0.00  -0.00     0.00  -0.00  -0.00     0.00   0.00   0.00
   4   6    -0.00   0.00  -0.00    -0.00   0.00  -0.00     0.00  -0.00  -0.00
   5   6    -0.03  -0.02   0.00    -0.01  -0.01   0.00     0.00   0.00  -0.00
   6   6     0.01  -0.12   0.01     0.00  -0.05   0.00    -0.00   0.00  -0.00
   7   6     0.00  -0.00  -0.00     0.00  -0.00  -0.00    -0.00   0.00  -0.00
   8   6    -0.00   0.00   0.00    -0.00   0.00   0.00    -0.00   0.00  -0.00
   9   6    -0.08  -0.10   0.01    -0.07  -0.10   0.01    -0.00  -0.00   0.00
  10   6     0.04  -0.07   0.00     0.09  -0.15   0.01     0.00  -0.00   0.00
  11   6     0.00   0.00  -0.00     0.01   0.00  -0.00     0.00   0.00  -0.00
  12   6     0.01  -0.00  -0.00    -0.01  -0.00   0.00    -0.00   0.00  -0.00
  13   6     0.03   0.14  -0.01    -0.03  -0.15   0.01     0.00  -0.00   0.00
  14   6    -0.12   0.08   0.00     0.08  -0.05  -0.00     0.00  -0.00   0.00
  15   6    -0.00  -0.00   0.00     0.00   0.00  -0.00     0.00   0.00  -0.00
  16   6    -0.00   0.00  -0.00     0.00  -0.00  -0.00     0.00  -0.00  -0.00
  17   6    -0.01   0.00   0.00     0.01  -0.00  -0.00     0.01  -0.00  -0.00
  18   6     0.00   0.00  -0.00    -0.00  -0.00   0.00    -0.00  -0.04   0.00
  19   6    -0.00  -0.00   0.00     0.00   0.00  -0.00    -0.28  -0.04   0.01
  20  16     0.00   0.00  -0.00    -0.00  -0.00   0.00    -0.00   0.00  -0.00
  21  16     0.00  -0.00   0.00    -0.00   0.00  -0.00     0.00  -0.00   0.00
  22  16     0.00   0.00  -0.00    -0.00   0.00  -0.00     0.00  -0.00   0.00
  23  16     0.00   0.00  -0.00     0.00   0.00  -0.00     0.00  -0.00  -0.00
  24   1     0.00  -0.00  -0.00     0.00  -0.00  -0.00    -0.00   0.00  -0.00
  25   1     0.00  -0.00   0.00     0.00  -0.00   0.00    -0.00   0.00  -0.00
  26   1    -0.00  -0.00  -0.00    -0.00  -0.00  -0.00     0.00   0.00   0.00
  27   1    -0.00   0.00  -0.00    -0.00   0.00   0.00     0.00  -0.00   0.00
  28   1    -0.00  -0.00  -0.00    -0.00  -0.00  -0.00    -0.00  -0.00  -0.00
  29   1     0.00   0.00   0.00     0.00   0.00   0.00    -0.00  -0.00  -0.00
  30   1     0.00  -0.00  -0.00    -0.00  -0.00   0.00    -0.00  -0.00   0.00
  31   1     0.11   0.06  -0.01     0.04   0.02  -0.00    -0.00  -0.00   0.00
  32   1    -0.04   0.40  -0.02    -0.02   0.18  -0.01     0.00  -0.00   0.00
  33   1     0.26   0.36  -0.03     0.23   0.32  -0.03     0.00   0.00  -0.00
  34   1    -0.14   0.23  -0.01    -0.30   0.51  -0.02    -0.00   0.00  -0.00
  35   1    -0.09  -0.48   0.03     0.09   0.51  -0.03     0.00   0.00  -0.00
  36   1     0.40  -0.27  -0.00    -0.26   0.18   0.00    -0.00   0.00  -0.00
  37   1     0.02  -0.02  -0.00    -0.02   0.02   0.00    -0.02   0.01   0.00
  38   1    -0.00  -0.01   0.00     0.00   0.00  -0.00     0.02   0.09  -0.01
  39   1     0.00   0.00  -0.00    -0.00  -0.00   0.00     0.94   0.15  -0.05
                    109                    110                    111
                        a                      a                      a 
 Frequencies --  3164.0616              3198.9436              3215.0822
 Red. masses --     1.9669                 2.0022                 1.4090
 Frc consts  --     0.0000                 0.0000                 0.0000
 IR Inten    --   356.2375                74.6378                21.3035
 Raman Activ --     0.0000                 0.0000                 0.0000
 Depolar     --     0.0000                 0.0000                 0.0000
 Atom AN      X      Y      Z        X      Y      Z        X      Y      Z
   1   7     0.22  -0.16   0.02     0.05   0.07   0.26     0.04   0.17  -0.00
   2   6     0.01  -0.00  -0.00     0.00   0.00   0.01     0.01   0.01   0.00
   3   6     0.00   0.00   0.00    -0.00   0.00  -0.00     0.00  -0.00  -0.00
   4   6    -0.00   0.00  -0.00    -0.00   0.00  -0.00    -0.00   0.00   0.00
   5   6    -0.00  -0.00  -0.00     0.00  -0.00   0.00     0.00   0.00  -0.00
   6   6     0.00  -0.00  -0.00    -0.00  -0.00  -0.00     0.00   0.00  -0.00
   7   6     0.00  -0.00  -0.00     0.00   0.00   0.00     0.00  -0.00  -0.00
   8   6    -0.00   0.00  -0.00     0.00  -0.00   0.00     0.00  -0.00   0.00
   9   6     0.00  -0.00   0.00    -0.00  -0.00  -0.00     0.00   0.00  -0.00
  10   6    -0.00  -0.00   0.00     0.00  -0.00  -0.00    -0.00   0.00  -0.00
  11   6     0.00   0.00  -0.00     0.00   0.00   0.00    -0.00  -0.00   0.00
  12   6    -0.00   0.00   0.00    -0.00   0.00   0.00     0.00  -0.00   0.00
  13   6     0.00  -0.00   0.00     0.00  -0.00  -0.00    -0.00   0.00  -0.00
  14   6     0.00  -0.00   0.00     0.00  -0.00  -0.00    -0.00   0.00  -0.00
  15   6    -0.00   0.00  -0.00     0.00   0.00   0.00     0.00  -0.00   0.00
  16   6    -0.00  -0.00   0.00    -0.00  -0.00  -0.00    -0.00   0.00  -0.00
  17   6     0.00   0.00  -0.00     0.00   0.00  -0.00     0.00  -0.00  -0.00
  18   6    -0.00   0.00  -0.00    -0.00   0.00  -0.00     0.00  -0.00  -0.00
  19   6     0.00  -0.00   0.00    -0.00  -0.00  -0.00    -0.00  -0.00   0.00
  20  16     0.00   0.00  -0.00     0.00   0.00   0.00    -0.00   0.00   0.00
  21  16     0.00   0.00   0.00    -0.00  -0.00  -0.00     0.00   0.00  -0.00
  22  16     0.00   0.00  -0.00    -0.00  -0.00  -0.00     0.00   0.00  -0.00
  23  16    -0.00   0.00  -0.00    -0.00   0.00  -0.00    -0.00   0.00  -0.00
  24   1    -0.83   0.43  -0.03     0.03  -0.01   0.03    -0.22   0.13  -0.01
  25   1    -0.02   0.01  -0.14    -0.19   0.16  -0.80     0.11  -0.07   0.44
  26   1     0.03   0.16   0.10    -0.03  -0.41  -0.21    -0.05  -0.72  -0.41
  27   1    -0.02   0.01   0.00    -0.00   0.00  -0.00    -0.01   0.00   0.00
  28   1    -0.00   0.00  -0.00    -0.00  -0.01  -0.01    -0.00  -0.02  -0.01
  29   1    -0.00  -0.00  -0.00    -0.00  -0.00  -0.00     0.00   0.00   0.00
  30   1    -0.00  -0.00   0.00     0.00  -0.00   0.00    -0.00  -0.00   0.00
  31   1     0.01   0.00  -0.00    -0.00  -0.00  -0.00    -0.00  -0.00   0.00
  32   1     0.00   0.00   0.00    -0.00   0.00  -0.00     0.00  -0.00   0.00
  33   1     0.00   0.00  -0.00     0.00   0.00  -0.00    -0.00  -0.00   0.00
  34   1    -0.00   0.00   0.00    -0.00   0.00  -0.00     0.00  -0.00  -0.00
  35   1     0.00  -0.00   0.00     0.00   0.00  -0.00    -0.00  -0.00  -0.00
  36   1    -0.00   0.00   0.00    -0.00   0.00  -0.00     0.00  -0.00  -0.00
  37   1     0.00  -0.00  -0.00    -0.00   0.00   0.00    -0.00   0.00   0.00
  38   1    -0.00  -0.00   0.00     0.00  -0.00   0.00     0.00   0.00   0.00
  39   1    -0.00  -0.00  -0.00     0.00   0.00   0.00     0.00   0.00   0.00
