14
 energy: -14.114842567900 gnorm: 0.000174016430 xtb: 6.5.1 (fef0646)
N            0.87282862337242        0.00664638825522        0.00478739639124
C            2.35643770351907        0.00650258125642       -0.01038243802597
C            2.88518088842983       -0.17342534293383       -1.42946970489518
C            4.41016892338568       -0.17791069796896       -1.43492078289663
H            0.51819227544602        0.13012045937149        0.95988477654523
H            0.51540039653971       -0.88114613502593       -0.36766653260403
H            0.51389688861781        0.76926166545211       -0.58179447259281
H            2.72095534335391       -0.80380806117193        0.62104140126966
H            2.71876774819806        0.95021966949729        0.39735678419194
H            2.53475620931435        0.63858731955118       -2.06785195728654
H            2.53055892173598       -1.11642495461275       -1.84733649141493
H            4.80320196482201        0.75764836528406       -1.04440641834502
H            4.78730924732941       -0.30451312825689       -2.44619011674736
H            4.79875486593575       -0.99142812869749       -0.82709144358962
