      -----------------------------------------------------------      
     |                   =====================                   |     
     |                           x T B                           |     
     |                   =====================                   |     
     |                         S. Grimme                         |     
     |          Mulliken Center for Theoretical Chemistry        |     
     |                    University of Bonn                     |     
      -----------------------------------------------------------      

   * xtb version 6.5.1 (fef0646) compiled by 'conda@b96dff2e9fd6' on 2023-01-04

   xtb is free software: you can redistribute it and/or modify it under
   the terms of the GNU Lesser General Public License as published by
   the Free Software Foundation, either version 3 of the License, or
   (at your option) any later version.
   
   xtb is distributed in the hope that it will be useful,
   but WITHOUT ANY WARRANTY; without even the implied warranty of
   MERCHANTABILITY or FITNESS FOR A PARTICULAR PURPOSE.  See the
   GNU Lesser General Public License for more details.
   
   Cite this work as:
   * C. Bannwarth, E. Caldeweyher, S. Ehlert, A. Hansen, P. Pracht,
     J. Seibert, S. Spicher, S. Grimme, WIREs Comput. Mol. Sci., 2020, 11,
     e01493. DOI: 10.1002/wcms.1493
   
   for GFN2-xTB:
   * C. Bannwarth, S. Ehlert and S. Grimme., J. Chem. Theory Comput., 2019,
     15, 1652-1671. DOI: 10.1021/acs.jctc.8b01176
   for GFN1-xTB:
   * S. Grimme, C. Bannwarth, P. Shushkov, J. Chem. Theory Comput., 2017,
     13, 1989-2009. DOI: 10.1021/acs.jctc.7b00118
   for GFN0-xTB:
   * P. Pracht, E. Caldeweyher, S. Ehlert, S. Grimme, ChemRxiv, 2019, preprint.
     DOI: 10.26434/chemrxiv.8326202.v1
   for GFN-FF:
   * S. Spicher and S. Grimme, Angew. Chem. Int. Ed., 2020, 59, 15665-15673.
     DOI: 10.1002/anie.202004239
   
   for ALPB and GBSA implicit solvation:
   * S. Ehlert, M. Stahn, S. Spicher, S. Grimme, J. Chem. Theory Comput.,
     2021, 17, 4250-4261. DOI: 10.1021/acs.jctc.1c00471
   
   for DFT-D4:
   * E. Caldeweyher, C. Bannwarth and S. Grimme, J. Chem. Phys., 2017,
     147, 034112. DOI: 10.1063/1.4993215
   * E. Caldeweyher, S. Ehlert, A. Hansen, H. Neugebauer, S. Spicher,
     C. Bannwarth and S. Grimme, J. Chem. Phys., 2019, 150, 154122.
     DOI: 10.1063/1.5090222
   * E. Caldeweyher, J.-M. Mewes, S. Ehlert and S. Grimme, Phys. Chem. Chem. Phys.
     2020, 22, 8499-8512. DOI: 10.1039/D0CP00502A
   
   for sTDA-xTB:
   * S. Grimme and C. Bannwarth, J. Chem. Phys., 2016, 145, 054103.
     DOI: 10.1063/1.4959605
   
   in the mass-spec context:
   * V. Asgeirsson, C. Bauer and S. Grimme, Chem. Sci., 2017, 8, 4879.
     DOI: 10.1039/c7sc00601b
   * J. Koopman and S. Grimme, ACS Omega 2019, 4, 12, 15120-15133.
     DOI: 10.1021/acsomega.9b02011
   
   for metadynamics refer to:
   * S. Grimme, J. Chem. Theory Comput., 2019, 155, 2847-2862
     DOI: 10.1021/acs.jctc.9b00143
   
   for SPH calculations refer to:
   * S. Spicher and S. Grimme, J. Chem. Theory Comput., 2021, 17, 1701-1714
     DOI: 10.1021/acs.jctc.0c01306
   
   with help from (in alphabetical order)
   P. Atkinson, C. Bannwarth, F. Bohle, G. Brandenburg, E. Caldeweyher
   M. Checinski, S. Dohm, S. Ehlert, S. Ehrlich, I. Gerasimov, C. Hölzer
   A. Katbashev, J. Koopman, C. Lavigne, S. Lehtola, F. März, M. Müller,
   F. Musil, H. Neugebauer, J. Pisarek, C. Plett, P. Pracht, F. Pultar,
   J. Seibert, P. Shushkov, S. Spicher, M. Stahn, M. Steiner, T. Strunk,
   J. Stückrath, T. Rose, and J. Unsleber
   
 * started run on 2023/01/23 at 14:20:02.986     

           -------------------------------------------------
          |                Calculation Setup                |
           -------------------------------------------------

          program call               : xtb init.xyz --opt -c 1 -u 0 -P 16
          hostname                   : gpg-woodward
          coordinate file            : init.xyz
          omp threads                :                    16

   ID    Z sym.   atoms
    1    7 N      1
    2    6 C      2-5
    3   53 I      6
    4    1 H      7-17

           -------------------------------------------------
          |                 G F N 2 - x T B                 |
           -------------------------------------------------

        Reference                      10.1021/acs.jctc.8b01176
      * Hamiltonian:
        H0-scaling (s, p, d)           1.850000    2.230000    2.230000
        zeta-weighting                 0.500000
      * Dispersion:
        s8                             2.700000
        a1                             0.520000
        a2                             5.000000
        s9                             5.000000
      * Repulsion:
        kExp                           1.500000    1.000000
        rExp                           1.000000
      * Coulomb:
        alpha                          2.000000
        third order                    shell-resolved
        anisotropic                    true
        a3                             3.000000
        a5                             4.000000
        cn-shift                       1.200000
        cn-exp                         4.000000
        max-rad                        5.000000


          ...................................................
          :                      SETUP                      :
          :.................................................:
          :  # basis functions                  41          :
          :  # atomic orbitals                  40          :
          :  # shells                           24          :
          :  # electrons                        38          :
          :  max. iterations                   250          :
          :  Hamiltonian                  GFN2-xTB          :
          :  restarted?                      false          :
          :  GBSA solvation                  false          :
          :  PC potential                    false          :
          :  electronic temp.          300.0000000     K    :
          :  accuracy                    1.0000000          :
          :  -> integral cutoff          0.2500000E+02      :
          :  -> integral neglect         0.1000000E-07      :
          :  -> SCF convergence          0.1000000E-05 Eh   :
          :  -> wf. convergence          0.1000000E-03 e    :
          :  Broyden damping             0.4000000          :
          ...................................................

 iter      E             dE          RMSdq      gap      omega  full diag
   1    -20.5686497 -0.205686E+02  0.551E+00    5.39       0.0  T
   2    -20.6871531 -0.118503E+00  0.492E+00    4.80       1.0  T
   3    -20.6923456 -0.519248E-02  0.268E+00    4.86       1.0  T
   4    -20.6926497 -0.304149E-03  0.127E+00    4.64       1.0  T
   5    -20.6940526 -0.140285E-02  0.364E-01    4.69       1.0  T
   6    -20.6941650 -0.112475E-03  0.163E-01    4.66       1.0  T
   7    -20.6941896 -0.245734E-04  0.934E-02    4.66       1.0  T
   8    -20.6941965 -0.686450E-05  0.828E-03    4.65       2.9  T
   9    -20.6941966 -0.990827E-07  0.420E-03    4.65       5.8  T
  10    -20.6941966 -0.121507E-07  0.165E-03    4.65      14.7  T
  11    -20.6941966 -0.162144E-08  0.544E-04    4.65      44.6  T
  12    -20.6941966 -0.493152E-09  0.284E-04    4.65      85.3  T

   *** convergence criteria satisfied after 12 iterations ***

         #    Occupation            Energy/Eh            Energy/eV
      -------------------------------------------------------------
         1        2.0000           -0.9111695             -24.7942
       ...           ...                  ...                  ...
        13        2.0000           -0.6415108             -17.4564
        14        2.0000           -0.6204998             -16.8847
        15        2.0000           -0.6064710             -16.5029
        16        2.0000           -0.5793961             -15.7662
        17        2.0000           -0.5767887             -15.6952
        18        2.0000           -0.4957040             -13.4888
        19        2.0000           -0.4935746             -13.4308 (HOMO)
        20                         -0.3225754              -8.7777 (LUMO)
        21                         -0.2731483              -7.4327
        22                         -0.1566677              -4.2631
        23                         -0.1240438              -3.3754
        24                         -0.1203799              -3.2757
       ...                                ...                  ...
        40                          0.2968281               8.0771
      -------------------------------------------------------------
                  HL-Gap            0.1709993 Eh            4.6531 eV
             Fermi-level           -0.4080750 Eh          -11.1043 eV

 SCC (total)                   0 d,  0 h,  0 min,  0.018 sec
 SCC setup                      ...        0 min,  0.000 sec (  1.043%)
 Dispersion                     ...        0 min,  0.000 sec (  1.414%)
 classical contributions        ...        0 min,  0.000 sec (  0.471%)
 integral evaluation            ...        0 min,  0.001 sec (  6.369%)
 iterations                     ...        0 min,  0.014 sec ( 76.578%)
 molecular gradient             ...        0 min,  0.002 sec ( 11.655%)
 printout                       ...        0 min,  0.000 sec (  0.901%)

         :::::::::::::::::::::::::::::::::::::::::::::::::::::
         ::                     SUMMARY                     ::
         :::::::::::::::::::::::::::::::::::::::::::::::::::::
         :: total energy             -20.459622022281 Eh    ::
         :: gradient norm              0.028237140467 Eh/a0 ::
         :: HOMO-LUMO gap              4.653126454238 eV    ::
         ::.................................................::
         :: SCC energy               -20.694196596050 Eh    ::
         :: -> isotropic ES            0.117528813209 Eh    ::
         :: -> anisotropic ES         -0.006978652607 Eh    ::
         :: -> anisotropic XC          0.013606025325 Eh    ::
         :: -> dispersion             -0.009285028737 Eh    ::
         :: repulsion energy           0.234597251620 Eh    ::
         :: add. restraining           0.000000000000 Eh    ::
         :: total charge               1.000000000000 e     ::
         :::::::::::::::::::::::::::::::::::::::::::::::::::::

      ----------------------------------------------------------- 
     |                   =====================                   |
     |                        A N C O P T                        |
     |                   =====================                   |
     |               Approximate Normal Coordinate               |
     |                Rational Function Optimizer                |
      ----------------------------------------------------------- 

          ...................................................
          :                      SETUP                      :
          :.................................................:
          :   optimization level            normal          :
          :   max. optcycles                   200          :
          :   ANC micro-cycles                  20          :
          :   degrees of freedom                45          :
          :.................................................:
          :   RF solver                   davidson          :
          :   write xtbopt.log                true          :
          :   linear?                        false          :
          :   energy convergence         0.5000000E-05 Eh   :
          :   grad. convergence          0.1000000E-02 Eh/α :
          :   maximium RF displ.         1.0000000          :
          :   Hlow (freq-cutoff)         0.1000000E-01      :
          :   Hmax (freq-cutoff)         5.0000000          :
          :   S6 in model hess.         20.0000000          :
          ...................................................

generating ANC from model Hessian ...
Using Lindh-Hessian (1995)
 Shifting diagonal of input Hessian by    8.0929955111765147E-003
 Lowest  eigenvalues of input Hessian
    0.000000    0.000000    0.000000    0.000000    0.000000    0.000000
    0.010000    0.010704    0.011619    0.013542    0.014851    0.022700
    0.022942    0.026904    0.027234    0.046257    0.052379    0.056565
 Highest eigenvalues
    1.174685    1.186821    1.247774    1.397208    1.402433    1.451034


........................................................................
.............................. CYCLE    1 ..............................
........................................................................
   1    -20.6941966 -0.206942E+02  0.567E-05    4.65       0.0  T
   2    -20.6941966 -0.418154E-11  0.408E-05    4.65     594.1  T
   3    -20.6941966 -0.909495E-12  0.229E-05    4.65    1060.1  T
     SCC iter.                  ...        0 min,  0.004 sec
     gradient                   ...        0 min,  0.002 sec
 * total energy  :   -20.4596220 Eh     change       -0.6294343E-10 Eh
   gradient norm :     0.0282369 Eh/α   predicted     0.0000000E+00 (-100.00%)
   displ. norm   :     0.1912388 α      lambda       -0.2722029E-02
   maximum displ.:     0.1381828 α      in ANC's #5, #18, #17, ...

........................................................................
.............................. CYCLE    2 ..............................
........................................................................
   1    -20.6974096 -0.206974E+02  0.265E-01    4.45       0.0  T
   2    -20.6974202 -0.106165E-04  0.149E-01    4.45       1.0  T
   3    -20.6974243 -0.409375E-05  0.421E-02    4.46       1.0  T
   4    -20.6974253 -0.987900E-06  0.253E-02    4.46       1.0  T
   5    -20.6974259 -0.605911E-06  0.146E-02    4.46       1.7  T
   6    -20.6974261 -0.239719E-06  0.519E-03    4.46       4.7  T
   7    -20.6974261 -0.126067E-07  0.366E-03    4.46       6.6  T
   8    -20.6974261 -0.145168E-07  0.360E-04    4.46      67.4  T
   9    -20.6974261 -0.729798E-10  0.218E-04    4.46     111.1  T
     SCC iter.                  ...        0 min,  0.010 sec
     gradient                   ...        0 min,  0.002 sec
 * total energy  :   -20.4610053 Eh     change       -0.1383237E-02 Eh
   gradient norm :     0.0113349 Eh/α   predicted    -0.1410791E-02 (   1.99%)
   displ. norm   :     0.1376581 α      lambda       -0.5375935E-03
   maximum displ.:     0.0971676 α      in ANC's #2, #5, #9, ...

........................................................................
.............................. CYCLE    3 ..............................
........................................................................
   1    -20.6989990 -0.206990E+02  0.207E-01    4.41       0.0  T
   2    -20.6990034 -0.443016E-05  0.104E-01    4.41       1.0  T
   3    -20.6990037 -0.335911E-06  0.189E-02    4.41       1.3  T
   4    -20.6990044 -0.712331E-06  0.106E-02    4.41       2.3  T
   5    -20.6990045 -0.602645E-07  0.461E-03    4.41       5.3  T
   6    -20.6990045 -0.217139E-07  0.311E-03    4.41       7.8  T
   7    -20.6990045 -0.850575E-08  0.102E-03    4.41      23.7  T
   8    -20.6990045 -0.568178E-09  0.688E-04    4.41      35.3  T
   9    -20.6990045 -0.623867E-09  0.173E-04    4.41     140.0  T
     SCC iter.                  ...        0 min,  0.009 sec
     gradient                   ...        0 min,  0.002 sec
 * total energy  :   -20.4611418 Eh     change       -0.1365163E-03 Eh
   gradient norm :     0.0050568 Eh/α   predicted    -0.2738907E-03 ( 100.63%)
   displ. norm   :     0.0536619 α      lambda       -0.1560916E-03
   maximum displ.:     0.0428376 α      in ANC's #5, #9, #17, ...

........................................................................
.............................. CYCLE    4 ..............................
........................................................................
   1    -20.6995556 -0.206996E+02  0.728E-02    4.45       0.0  T
   2    -20.6995561 -0.541520E-06  0.363E-02    4.45       1.0  T
   3    -20.6995562 -0.693498E-07  0.131E-02    4.45       1.9  T
   4    -20.6995563 -0.156685E-06  0.663E-03    4.45       3.7  T
   5    -20.6995564 -0.316339E-07  0.296E-03    4.45       8.2  T
   6    -20.6995564 -0.131155E-07  0.166E-03    4.45      14.6  T
   7    -20.6995564 -0.276890E-08  0.373E-04    4.45      64.9  T
   8    -20.6995564 -0.177756E-09  0.110E-04    4.45     220.0  T
     SCC iter.                  ...        0 min,  0.008 sec
     gradient                   ...        0 min,  0.002 sec
 * total energy  :   -20.4612267 Eh     change       -0.8495438E-04 Eh
   gradient norm :     0.0018927 Eh/α   predicted    -0.7826968E-04 (  -7.87%)
   displ. norm   :     0.0387458 α      lambda       -0.1392440E-04
   maximum displ.:     0.0280586 α      in ANC's #2, #5, #9, ...

........................................................................
.............................. CYCLE    5 ..............................
........................................................................
   1    -20.6995958 -0.206996E+02  0.337E-02    4.43       0.0  T
   2    -20.6995960 -0.135198E-06  0.195E-02    4.43       1.2  T
   3    -20.6995960 -0.383436E-07  0.517E-03    4.43       4.7  T
   4    -20.6995961 -0.324363E-07  0.390E-03    4.43       6.2  T
   5    -20.6995961 -0.137544E-07  0.168E-03    4.43      14.5  T
   6    -20.6995961 -0.333749E-08  0.706E-04    4.43      34.3  T
   7    -20.6995961 -0.373110E-09  0.202E-04    4.43     120.1  T
     SCC iter.                  ...        0 min,  0.007 sec
     gradient                   ...        0 min,  0.002 sec
 * total energy  :   -20.4612361 Eh     change       -0.9348230E-05 Eh
   gradient norm :     0.0007952 Eh/α   predicted    -0.6967741E-05 ( -25.46%)
   displ. norm   :     0.0368012 α      lambda       -0.7316225E-05
   maximum displ.:     0.0343157 α      in ANC's #2, #5, #14, ...

........................................................................
.............................. CYCLE    6 ..............................
........................................................................
   1    -20.6996912 -0.206997E+02  0.481E-02    4.45       0.0  T
   2    -20.6996914 -0.231437E-06  0.267E-02    4.45       1.0  T
   3    -20.6996915 -0.339472E-07  0.809E-03    4.45       3.0  T
   4    -20.6996915 -0.950924E-07  0.530E-03    4.45       4.6  T
   5    -20.6996916 -0.271624E-07  0.164E-03    4.45      14.8  T
   6    -20.6996916 -0.258468E-08  0.830E-04    4.45      29.2  T
   7    -20.6996916 -0.800060E-09  0.156E-04    4.45     155.2  T
     SCC iter.                  ...        0 min,  0.007 sec
     gradient                   ...        0 min,  0.002 sec
 * total energy  :   -20.4612386 Eh     change       -0.2563958E-05 Eh
   gradient norm :     0.0011198 Eh/α   predicted    -0.3661306E-05 (  42.80%)
   displ. norm   :     0.0074036 α      lambda       -0.2922384E-05
   maximum displ.:     0.0047326 α      in ANC's #9, #12, #17, ...

........................................................................
.............................. CYCLE    7 ..............................
........................................................................
   1    -20.6996134 -0.206996E+02  0.129E-02    4.44       0.0  T
   2    -20.6996134 -0.310859E-07  0.818E-03    4.44       3.0  T
   3    -20.6996134 -0.136251E-07  0.311E-03    4.44       7.8  T
   4    -20.6996134 -0.809418E-08  0.214E-03    4.44      11.3  T
   5    -20.6996134 -0.439348E-08  0.802E-04    4.44      30.2  T
   6    -20.6996134 -0.671104E-09  0.526E-04    4.44      46.1  T
     SCC iter.                  ...        0 min,  0.006 sec
     gradient                   ...        0 min,  0.002 sec
 * total energy  :   -20.4612409 Eh     change       -0.2280364E-05 Eh
   gradient norm :     0.0003536 Eh/α   predicted    -0.1462484E-05 ( -35.87%)
   displ. norm   :     0.0055630 α      lambda       -0.3799698E-06
   maximum displ.:     0.0043715 α      in ANC's #5, #2, #21, ...

   *** GEOMETRY OPTIMIZATION CONVERGED AFTER 7 ITERATIONS ***

------------------------------------------------------------------------
 total energy gain   :        -0.0016189 Eh       -1.0159 kcal/mol
 total RMSD          :         0.0540456 a0        0.0286 Å
 total power (kW/mol):        -0.6072034 (step)  -49.8354 (real)
------------------------------------------------------------------------

 ANCopt (total)                0 d,  0 h,  0 min,  0.085 sec
 optimizer setup                ...        0 min,  0.000 sec (  0.161%)
 model hessian                  ...        0 min,  0.005 sec (  6.320%)
 ANC generation                 ...        0 min,  0.001 sec (  1.123%)
 coordinate transformation      ...        0 min,  0.000 sec (  0.277%)
 single point calculation       ...        0 min,  0.075 sec ( 87.686%)
 optimization log               ...        0 min,  0.001 sec (  0.953%)
 hessian update                 ...        0 min,  0.000 sec (  0.336%)
 rational function              ...        0 min,  0.001 sec (  1.654%)

================
 final structure:
================
17
 xtb: 6.5.1 (fef0646)
N            0.94107430246269        0.05808408055429       -0.04396653434352
C            2.43861772787474        0.06047242540916       -0.07755803078445
C            2.94721611177202        0.08953680983504       -1.51181872593753
C            4.48074838268687        0.09029448973125       -1.53148636395095
C            5.01215280317759        0.12032695936616       -2.95513700610728
I            7.17830076351323        0.12040841745619       -2.95961609805239
H            0.58890948436044        0.03867965886929        0.92175915909941
H            0.58060929093405       -0.76593552480929       -0.54387977732195
H            0.57867026713280        0.90028283525471       -0.51110956910588
H            2.79608110087631       -0.83514434020769        0.43278962325074
H            2.79404787027809        0.93593401190665        0.46796955009222
H            2.58527474616428        0.98523826500883       -2.02090662482281
H            2.58572862529965       -0.78509955706295       -2.05661104387727
H            4.85244922996361       -0.80227234383758       -1.02546888363813
H            4.85207829934144        0.96097829092728       -0.98842432138387
H            4.69842393102488        1.01936633930278       -3.47995345750348
H            4.69843706313729       -0.75578081770413       -3.51741189561287

 Bond Distances (Angstroems)
 ---------------------------
N1-C2=1.4979         N1-H7=1.0281         N1-H8=1.0290         N1-H9=1.0290         C2-N1=1.4979         C2-C3=1.5220         
C2-H10=1.0910        C2-H11=1.0910        C3-C2=1.5220         C3-C4=1.5337         C3-H12=1.0920        C3-H13=1.0920        
C4-C3=1.5337         C4-C5=1.5199         C4-H14=1.0913        C4-H15=1.0913        C5-C4=1.5199         C5-I6=2.1662         
C5-H16=1.0873        C5-H17=1.0873        I6-C5=2.1662         H7-N1=1.0281         H8-N1=1.0290         H9-N1=1.0290         
H10-C2=1.0910        H11-C2=1.0910        H12-C3=1.0920        H13-C3=1.0920        H14-C4=1.0913        H15-C4=1.0913        
H16-C5=1.0873        H17-C5=1.0873        
 C  H  Rav=1.0904 sigma=0.0018  Rmin=1.0873  Rmax=1.0920     8
 C  C  Rav=1.5252 sigma=0.0060  Rmin=1.5199  Rmax=1.5337     3
 N  H  Rav=1.0287 sigma=0.0004  Rmin=1.0281  Rmax=1.0290     3
 N  C  Rav=1.4979 sigma=0.0000  Rmin=1.4979  Rmax=1.4979     1
 I  C  Rav=2.1662 sigma=0.0000  Rmin=2.1662  Rmax=2.1662     1

 selected bond angles (degree)
 --------------------
H7-N1-C2=111.32                H8-N1-C2=109.91                H8-N1-H7=108.74                H9-N1-C2=109.91                
H9-N1-H7=108.74                H9-N1-H8=108.15                C3-C2-N1=110.81                H10-C2-N1=108.41               
H10-C2-C3=110.30               H11-C2-N1=108.41               H11-C2-C3=110.30               H11-C2-H10=108.55              
C4-C3-C2=110.26                H12-C3-C2=110.13               H12-C3-C4=108.97               H13-C3-C2=110.13               
H13-C3-C4=108.97               H13-C3-H12=108.34              C5-C4-C3=111.20                H14-C4-C3=109.53               
H14-C4-C5=109.35               H15-C4-C3=109.53               H15-C4-C5=109.35               H15-C4-H14=107.81              
I6-C5-C4=110.58                H16-C5-C4=111.57               H16-C5-I6=106.71               H17-C5-C4=111.57               
H17-C5-I6=106.71               H17-C5-H16=109.48              

 selected dihedral angles (degree)
 ---------------------------------
C3-C2-N1-H7=180.01            C3-C2-N1-H8= 59.47            C3-C2-N1-H9=300.55            H10-C2-N1-H7= 58.83           
H10-C2-N1-H8=298.30           H10-C2-N1-H9=179.37           H11-C2-N1-H7=301.19           H11-C2-N1-H8=180.65           
H11-C2-N1-H9= 61.73           C4-C3-C2-N1=180.06            C4-C3-C2-H10=300.11           C4-C3-C2-H11= 60.01           
H12-C3-C2-N1= 59.77           H12-C3-C2-H10=179.82          H12-C3-C2-H11=299.72          H13-C3-C2-N1=300.34           
H13-C3-C2-H10= 60.39          H13-C3-C2-H11=180.29          C5-C4-C3-C2=180.05            C5-C4-C3-H12=301.03           
C5-C4-C3-H13= 59.06           H14-C4-C3-C2= 59.07           H14-C4-C3-H12=180.06          H14-C4-C3-H13=298.09          
H15-C4-C3-C2=301.02           H15-C4-C3-H12= 62.01          H15-C4-C3-H13=180.04          I6-C5-C4-C3=180.01            
I6-C5-C4-H14=301.09           I6-C5-C4-H15= 58.93           H16-C5-C4-C3= 61.41           H16-C5-C4-H14=182.49          
H16-C5-C4-H15=300.34          H17-C5-C4-C3=298.61           H17-C5-C4-H14= 59.69          H17-C5-C4-H15=177.53          
           -------------------------------------------------
          |                Final Singlepoint                |
           -------------------------------------------------

          ...................................................
          :                      SETUP                      :
          :.................................................:
          :  # basis functions                  41          :
          :  # atomic orbitals                  40          :
          :  # shells                           24          :
          :  # electrons                        38          :
          :  max. iterations                   250          :
          :  Hamiltonian                  GFN2-xTB          :
          :  restarted?                      false          :
          :  GBSA solvation                  false          :
          :  PC potential                    false          :
          :  electronic temp.          300.0000000     K    :
          :  accuracy                    1.0000000          :
          :  -> integral cutoff          0.2500000E+02      :
          :  -> integral neglect         0.1000000E-07      :
          :  -> SCF convergence          0.1000000E-05 Eh   :
          :  -> wf. convergence          0.1000000E-03 e    :
          :  Broyden damping             0.4000000          :
          ...................................................

 iter      E             dE          RMSdq      gap      omega  full diag
   1    -20.6996134 -0.206996E+02  0.147E-04    4.44       0.0  T
   2    -20.6996134 -0.856559E-11  0.465E-05    4.44     521.7  T
   3    -20.6996134 -0.124345E-11  0.488E-05    4.44     496.6  T

   *** convergence criteria satisfied after 3 iterations ***

         #    Occupation            Energy/Eh            Energy/eV
      -------------------------------------------------------------
         1        2.0000           -0.9083319             -24.7170
       ...           ...                  ...                  ...
        13        2.0000           -0.6412623             -17.4496
        14        2.0000           -0.6217923             -16.9198
        15        2.0000           -0.6076811             -16.5358
        16        2.0000           -0.5809117             -15.8074
        17        2.0000           -0.5725857             -15.5808
        18        2.0000           -0.4947347             -13.4624
        19        2.0000           -0.4925526             -13.4030 (HOMO)
        20                         -0.3293795              -8.9629 (LUMO)
        21                         -0.2772935              -7.5455
        22                         -0.1732461              -4.7143
        23                         -0.1170775              -3.1858
        24                         -0.1149184              -3.1271
       ...                                ...                  ...
        40                          0.2646178               7.2006
      -------------------------------------------------------------
                  HL-Gap            0.1631731 Eh            4.4402 eV
             Fermi-level           -0.4109660 Eh          -11.1830 eV

 SCC (total)                   0 d,  0 h,  0 min,  0.006 sec
 SCC setup                      ...        0 min,  0.000 sec (  1.881%)
 Dispersion                     ...        0 min,  0.000 sec (  2.023%)
 classical contributions        ...        0 min,  0.000 sec (  0.620%)
 integral evaluation            ...        0 min,  0.001 sec ( 14.469%)
 iterations                     ...        0 min,  0.003 sec ( 47.637%)
 molecular gradient             ...        0 min,  0.002 sec ( 27.964%)
 printout                       ...        0 min,  0.000 sec (  1.897%)

         :::::::::::::::::::::::::::::::::::::::::::::::::::::
         ::                     SUMMARY                     ::
         :::::::::::::::::::::::::::::::::::::::::::::::::::::
         :: total energy             -20.461240923401 Eh    ::
         :: gradient norm              0.000353081846 Eh/a0 ::
         :: HOMO-LUMO gap              4.440166737892 eV    ::
         ::.................................................::
         :: SCC energy               -20.699613426574 Eh    ::
         :: -> isotropic ES            0.117726897551 Eh    ::
         :: -> anisotropic ES         -0.008153113595 Eh    ::
         :: -> anisotropic XC          0.013956242794 Eh    ::
         :: -> dispersion             -0.009241712925 Eh    ::
         :: repulsion energy           0.238397178812 Eh    ::
         :: add. restraining           0.000000000000 Eh    ::
         :: total charge               1.000000000000 e     ::
         :::::::::::::::::::::::::::::::::::::::::::::::::::::

           -------------------------------------------------
          |                Property Printout                |
           -------------------------------------------------

    * Orbital Energies and Occupations

         #    Occupation            Energy/Eh            Energy/eV
      -------------------------------------------------------------
         1        2.0000           -0.9083319             -24.7170
       ...           ...                  ...                  ...
         7        2.0000           -0.7556275             -20.5617
         8        2.0000           -0.7409897             -20.1634
         9        2.0000           -0.7065179             -19.2253
        10        2.0000           -0.7040739             -19.1588
        11        2.0000           -0.6701255             -18.2350
        12        2.0000           -0.6576039             -17.8943
        13        2.0000           -0.6412623             -17.4496
        14        2.0000           -0.6217923             -16.9198
        15        2.0000           -0.6076811             -16.5358
        16        2.0000           -0.5809117             -15.8074
        17        2.0000           -0.5725857             -15.5808
        18        2.0000           -0.4947347             -13.4624
        19        2.0000           -0.4925526             -13.4030 (HOMO)
        20                         -0.3293795              -8.9629 (LUMO)
        21                         -0.2772935              -7.5455
        22                         -0.1732461              -4.7143
        23                         -0.1170775              -3.1858
        24                         -0.1149184              -3.1271
        25                         -0.0805988              -2.1932
        26                         -0.0708000              -1.9266
        27                         -0.0706947              -1.9237
        28                         -0.0646495              -1.7592
        29                         -0.0501062              -1.3635
        30                         -0.0283930              -0.7726
       ...                                ...                  ...
        40                          0.2646178               7.2006
      -------------------------------------------------------------
                  HL-Gap            0.1631731 Eh            4.4402 eV
             Fermi-level           -0.4109660 Eh          -11.1830 eV

     #   Z          covCN         q      C6AA      α(0)
     1   7 N        3.482    -0.127    23.751     7.238
     2   6 C        3.732    -0.034    21.276     6.584
     3   6 C        3.803    -0.082    22.057     6.686
     4   6 C        3.928    -0.067    21.713     6.622
     5   6 C        3.782    -0.013    20.832     6.502
     6  53 I        1.094    -0.111   380.172    33.659
     7   1 H        0.859     0.273     0.798     1.400
     8   1 H        0.859     0.274     0.797     1.398
     9   1 H        0.859     0.274     0.797     1.398
    10   1 H        0.924     0.111     1.688     2.032
    11   1 H        0.924     0.111     1.688     2.032
    12   1 H        0.924     0.065     2.144     2.290
    13   1 H        0.924     0.065     2.144     2.290
    14   1 H        0.924     0.066     2.135     2.285
    15   1 H        0.924     0.066     2.135     2.285
    16   1 H        0.932     0.065     2.136     2.285
    17   1 H        0.932     0.065     2.136     2.285

 Mol. C6AA /au·bohr⁶  :       3224.274665
 Mol. C8AA /au·bohr⁸  :     127543.122533
 Mol. α(0) /au        :         89.272331


Wiberg/Mayer (AO) data.
largest (>0.10) Wiberg bond orders for each atom

 ---------------------------------------------------------------------------
     #   Z sym  total        # sym  WBO       # sym  WBO       # sym  WBO
 ---------------------------------------------------------------------------
     1   7 N    3.675 --     2 C    0.923     7 H    0.911     9 H    0.909
                             8 H    0.909
     2   6 C    3.884 --     3 C    1.009    11 H    0.966    10 H    0.966
                             1 N    0.923
     3   6 C    3.982 --     2 C    1.009     4 C    0.990    12 H    0.972
                            13 H    0.972
     4   6 C    3.988 --     5 C    1.021     3 C    0.990    14 H    0.975
                            15 H    0.975
     5   6 C    3.975 --     4 C    1.021     6 I    0.980    17 H    0.980
                            16 H    0.980
     6  53 I    1.014 --     5 C    0.980
     7   1 H    0.925 --     1 N    0.911
     8   1 H    0.925 --     1 N    0.909
     9   1 H    0.925 --     1 N    0.909
    10   1 H    0.988 --     2 C    0.966
    11   1 H    0.988 --     2 C    0.966
    12   1 H    0.996 --     3 C    0.972
    13   1 H    0.996 --     3 C    0.972
    14   1 H    0.996 --     4 C    0.975
    15   1 H    0.996 --     4 C    0.975
    16   1 H    0.996 --     5 C    0.980
    17   1 H    0.996 --     5 C    0.980
 ---------------------------------------------------------------------------

Topologies differ in total number of bonds
Writing topology from bond orders to xtbtopo.mol

molecular dipole:
                 x           y           z       tot (Debye)
 q only:        2.033       0.116      -0.355
   full:        1.274       0.116      -0.384       3.394
molecular quadrupole (traceless):
                xx          xy          yy          xz          yz          zz
 q only:       -2.317       0.312       0.081       0.981      -0.104       2.235
  q+dip:      -20.153       0.111       9.527       4.515      -0.088      10.625
   full:      -17.261       0.120       7.490       4.106      -0.112       9.771

           -------------------------------------------------
          |                Geometry Summary                 |
           -------------------------------------------------

      molecular mass/u    :      200.0414670
   center of mass at/Å    :        5.6723549       0.1066216      -2.3075251
  moments of inertia/u·Å² :        0.3738320E+02   0.1178060E+04   0.1200008E+04
rotational constants/cm⁻¹ :        0.4509414E+00   0.1430965E-01   0.1404793E-01

 * 16 selected distances

     #   Z          #   Z                                           value/Å
     1   7 N        2   6 C                                       1.4979222
     2   6 C        3   6 C                                       1.5220451
     3   6 C        4   6 C                                       1.5336587
     4   6 C        5   6 C                                       1.5198928
     5   6 C        6  53 I                                       2.1661528 (max)
     1   7 N        7   1 H                                       1.0281162 (min)
     1   7 N        8   1 H                                       1.0290077
     1   7 N        9   1 H                                       1.0290084
     2   6 C       10   1 H                                       1.0910382
     2   6 C       11   1 H                                       1.0910381
     3   6 C       12   1 H                                       1.0919951
     3   6 C       13   1 H                                       1.0919986
     4   6 C       14   1 H                                       1.0912795
     4   6 C       15   1 H                                       1.0912803
     5   6 C       16   1 H                                       1.0872581
     5   6 C       17   1 H                                       1.0872606

 * 5 distinct bonds (by element types)

   Z      Z             #   av. dist./Å        max./Å        min./Å
   1 H    6 C           8     1.0903936     1.0919986     1.0872581
   6 C    6 C           3     1.5251989     1.5336587     1.5198928
   1 H    7 N           3     1.0287107     1.0290084     1.0281162
   6 C    7 N           1     1.4979222     1.4979222     1.4979222
   6 C   53 I           1     2.1661528     2.1661528     2.1661528


optimized geometry written to: xtbopt.xyz


           -------------------------------------------------
          | TOTAL ENERGY              -20.461240923401 Eh   |
          | GRADIENT NORM               0.000353081846 Eh/α |
          | HOMO-LUMO GAP               4.440166737892 eV   |
           -------------------------------------------------

------------------------------------------------------------------------
 * finished run on 2023/01/23 at 14:20:03.115     
------------------------------------------------------------------------
 total:
 * wall-time:     0 d,  0 h,  0 min,  0.130 sec
 *  cpu-time:     0 d,  0 h,  0 min, 18.014 sec
 * ratio c/w:   139.097 speedup
 SCF:
 * wall-time:     0 d,  0 h,  0 min,  0.018 sec
 *  cpu-time:     0 d,  0 h,  0 min,  2.550 sec
 * ratio c/w:   140.852 speedup
 ANC optimizer:
 * wall-time:     0 d,  0 h,  0 min,  0.093 sec
 *  cpu-time:     0 d,  0 h,  0 min, 13.079 sec
 * ratio c/w:   140.846 speedup

