11
 energy: -15.051039778131 gnorm: 0.000278826324 xtb: 6.5.1 (fef0646)
N            0.95611286899537        0.06387810225981        0.05652839782694
C            2.44699542616978        0.00540577122300        0.08045332586328
C            2.93032071539528        0.75195355443601        1.32018029817783
F            2.31277816828735        1.97624121503147        1.31087986897297
H            0.57046066301256       -0.29777473655034       -0.82460720271042
H            0.67829282034177        1.05469109032872        0.16661340061783
H            0.55188411157055       -0.46584212165287        0.84153276943777
H            2.82369929031648        0.50173690756864       -0.81663865197919
H            2.79067179055115       -1.02857491746651        0.09416132063827
H            4.01002629348245        0.91600997674200        1.29894136682627
H            2.64353785187727        0.25558515808005        2.25254510632844
