      -----------------------------------------------------------      
     |                   =====================                   |     
     |                           x T B                           |     
     |                   =====================                   |     
     |                         S. Grimme                         |     
     |          Mulliken Center for Theoretical Chemistry        |     
     |                    University of Bonn                     |     
      -----------------------------------------------------------      

   * xtb version 6.5.1 (fef0646) compiled by 'conda@b96dff2e9fd6' on 2023-01-04

   xtb is free software: you can redistribute it and/or modify it under
   the terms of the GNU Lesser General Public License as published by
   the Free Software Foundation, either version 3 of the License, or
   (at your option) any later version.
   
   xtb is distributed in the hope that it will be useful,
   but WITHOUT ANY WARRANTY; without even the implied warranty of
   MERCHANTABILITY or FITNESS FOR A PARTICULAR PURPOSE.  See the
   GNU Lesser General Public License for more details.
   
   Cite this work as:
   * C. Bannwarth, E. Caldeweyher, S. Ehlert, A. Hansen, P. Pracht,
     J. Seibert, S. Spicher, S. Grimme, WIREs Comput. Mol. Sci., 2020, 11,
     e01493. DOI: 10.1002/wcms.1493
   
   for GFN2-xTB:
   * C. Bannwarth, S. Ehlert and S. Grimme., J. Chem. Theory Comput., 2019,
     15, 1652-1671. DOI: 10.1021/acs.jctc.8b01176
   for GFN1-xTB:
   * S. Grimme, C. Bannwarth, P. Shushkov, J. Chem. Theory Comput., 2017,
     13, 1989-2009. DOI: 10.1021/acs.jctc.7b00118
   for GFN0-xTB:
   * P. Pracht, E. Caldeweyher, S. Ehlert, S. Grimme, ChemRxiv, 2019, preprint.
     DOI: 10.26434/chemrxiv.8326202.v1
   for GFN-FF:
   * S. Spicher and S. Grimme, Angew. Chem. Int. Ed., 2020, 59, 15665-15673.
     DOI: 10.1002/anie.202004239
   
   for ALPB and GBSA implicit solvation:
   * S. Ehlert, M. Stahn, S. Spicher, S. Grimme, J. Chem. Theory Comput.,
     2021, 17, 4250-4261. DOI: 10.1021/acs.jctc.1c00471
   
   for DFT-D4:
   * E. Caldeweyher, C. Bannwarth and S. Grimme, J. Chem. Phys., 2017,
     147, 034112. DOI: 10.1063/1.4993215
   * E. Caldeweyher, S. Ehlert, A. Hansen, H. Neugebauer, S. Spicher,
     C. Bannwarth and S. Grimme, J. Chem. Phys., 2019, 150, 154122.
     DOI: 10.1063/1.5090222
   * E. Caldeweyher, J.-M. Mewes, S. Ehlert and S. Grimme, Phys. Chem. Chem. Phys.
     2020, 22, 8499-8512. DOI: 10.1039/D0CP00502A
   
   for sTDA-xTB:
   * S. Grimme and C. Bannwarth, J. Chem. Phys., 2016, 145, 054103.
     DOI: 10.1063/1.4959605
   
   in the mass-spec context:
   * V. Asgeirsson, C. Bauer and S. Grimme, Chem. Sci., 2017, 8, 4879.
     DOI: 10.1039/c7sc00601b
   * J. Koopman and S. Grimme, ACS Omega 2019, 4, 12, 15120-15133.
     DOI: 10.1021/acsomega.9b02011
   
   for metadynamics refer to:
   * S. Grimme, J. Chem. Theory Comput., 2019, 155, 2847-2862
     DOI: 10.1021/acs.jctc.9b00143
   
   for SPH calculations refer to:
   * S. Spicher and S. Grimme, J. Chem. Theory Comput., 2021, 17, 1701-1714
     DOI: 10.1021/acs.jctc.0c01306
   
   with help from (in alphabetical order)
   P. Atkinson, C. Bannwarth, F. Bohle, G. Brandenburg, E. Caldeweyher
   M. Checinski, S. Dohm, S. Ehlert, S. Ehrlich, I. Gerasimov, C. Hölzer
   A. Katbashev, J. Koopman, C. Lavigne, S. Lehtola, F. März, M. Müller,
   F. Musil, H. Neugebauer, J. Pisarek, C. Plett, P. Pracht, F. Pultar,
   J. Seibert, P. Shushkov, S. Spicher, M. Stahn, M. Steiner, T. Strunk,
   J. Stückrath, T. Rose, and J. Unsleber
   
 * started run on 2023/01/23 at 14:12:01.334     

           -------------------------------------------------
          |                Calculation Setup                |
           -------------------------------------------------

          program call               : xtb init.xyz --opt -c 0 -u 0 -P 16
          hostname                   : gpg-woodward
          coordinate file            : init.xyz
          omp threads                :                    16

   ID    Z sym.   atoms
    1    7 N      1
    2    6 C      2-5
    3    8 O      6, 7
    4   17 Cl     8
    5    1 H      9-18

molecular fragmentation (1/2 indicates fragments):
111111121111111111
# atoms in fragment 1/2:    17     1
 fragment masses (1/2) :      104.13       35.45
CMA distance (Bohr)    :  10.345
constraining FC (au)   :  0.0500

           -------------------------------------------------
          |                 G F N 2 - x T B                 |
           -------------------------------------------------

        Reference                      10.1021/acs.jctc.8b01176
      * Hamiltonian:
        H0-scaling (s, p, d)           1.850000    2.230000    2.230000
        zeta-weighting                 0.500000
      * Dispersion:
        s8                             2.700000
        a1                             0.520000
        a2                             5.000000
        s9                             5.000000
      * Repulsion:
        kExp                           1.500000    1.000000
        rExp                           1.000000
      * Coulomb:
        alpha                          2.000000
        third order                    shell-resolved
        anisotropic                    true
        a3                             3.000000
        a5                             4.000000
        cn-shift                       1.200000
        cn-exp                         4.000000
        max-rad                        5.000000


          ...................................................
          :                      SETUP                      :
          :.................................................:
          :  # basis functions                  48          :
          :  # atomic orbitals                  47          :
          :  # shells                           27          :
          :  # electrons                        50          :
          :  max. iterations                   250          :
          :  Hamiltonian                  GFN2-xTB          :
          :  restarted?                      false          :
          :  GBSA solvation                  false          :
          :  PC potential                    false          :
          :  electronic temp.          300.0000000     K    :
          :  accuracy                    1.0000000          :
          :  -> integral cutoff          0.2500000E+02      :
          :  -> integral neglect         0.1000000E-07      :
          :  -> SCF convergence          0.1000000E-05 Eh   :
          :  -> wf. convergence          0.1000000E-03 e    :
          :  Broyden damping             0.4000000          :
          ...................................................

 iter      E             dE          RMSdq      gap      omega  full diag
   1    -29.3426391 -0.293426E+02  0.459E+00    5.27       0.0  T
   2    -29.4797423 -0.137103E+00  0.238E+00    3.28       1.0  T
   3    -29.4859065 -0.616414E-02  0.147E+00    2.90       1.0  T
   4    -29.4877751 -0.186864E-02  0.564E-01    2.05       1.0  T
   5    -29.4896867 -0.191160E-02  0.304E-01    2.04       1.0  T
   6    -29.4901587 -0.471993E-03  0.134E-01    2.03       1.0  T
   7    -29.4902644 -0.105699E-03  0.730E-02    2.04       1.0  T
   8    -29.4902925 -0.280562E-04  0.164E-02    2.04       1.4  T
   9    -29.4902938 -0.136938E-05  0.664E-03    2.04       3.5  T
  10    -29.4902939 -0.834473E-07  0.324E-03    2.04       7.3  T
  11    -29.4902940 -0.587506E-07  0.988E-04    2.04      23.9  T
  12    -29.4902940 -0.223709E-08  0.588E-04    2.04      40.1  T

   *** convergence criteria satisfied after 12 iterations ***

         #    Occupation            Energy/Eh            Energy/eV
      -------------------------------------------------------------
         1        2.0000           -0.9521636             -25.9097
       ...           ...                  ...                  ...
        19        2.0000           -0.5145756             -14.0023
        20        2.0000           -0.4967046             -13.5160
        21        2.0000           -0.4883724             -13.2893
        22        2.0000           -0.4458530             -12.1323
        23        2.0000           -0.3511137              -9.5543
        24        2.0000           -0.3438009              -9.3553
        25        2.0000           -0.3427203              -9.3259 (HOMO)
        26                         -0.2679287              -7.2907 (LUMO)
        27                         -0.0919303              -2.5016
        28                          0.0031791               0.0865
        29                          0.0152386               0.4147
        30                          0.0412973               1.1238
       ...                                ...                  ...
        47                          0.5541080              15.0780
      -------------------------------------------------------------
                  HL-Gap            0.0747916 Eh            2.0352 eV
             Fermi-level           -0.3053245 Eh           -8.3083 eV

 SCC (total)                   0 d,  0 h,  0 min,  0.022 sec
 SCC setup                      ...        0 min,  0.000 sec (  0.721%)
 Dispersion                     ...        0 min,  0.000 sec (  1.437%)
 classical contributions        ...        0 min,  0.000 sec (  0.564%)
 integral evaluation            ...        0 min,  0.001 sec (  4.492%)
 iterations                     ...        0 min,  0.018 sec ( 82.974%)
 molecular gradient             ...        0 min,  0.002 sec (  7.874%)
 printout                       ...        0 min,  0.000 sec (  0.807%)

         :::::::::::::::::::::::::::::::::::::::::::::::::::::
         ::                     SUMMARY                     ::
         :::::::::::::::::::::::::::::::::::::::::::::::::::::
         :: total energy             -29.234088276002 Eh    ::
         :: gradient norm              0.065836262580 Eh/a0 ::
         :: HOMO-LUMO gap              2.035182307983 eV    ::
         ::.................................................::
         :: SCC energy               -29.490293983930 Eh    ::
         :: -> isotropic ES            0.143647510226 Eh    ::
         :: -> anisotropic ES         -0.022225962298 Eh    ::
         :: -> anisotropic XC         -0.003604741133 Eh    ::
         :: -> dispersion             -0.009898249551 Eh    ::
         :: repulsion energy           0.256224904847 Eh    ::
         :: add. restraining           0.000000000000 Eh    ::
         :: total charge               0.000000000000 e     ::
         :::::::::::::::::::::::::::::::::::::::::::::::::::::

      ----------------------------------------------------------- 
     |                   =====================                   |
     |                        A N C O P T                        |
     |                   =====================                   |
     |               Approximate Normal Coordinate               |
     |                Rational Function Optimizer                |
      ----------------------------------------------------------- 

          ...................................................
          :                      SETUP                      :
          :.................................................:
          :   optimization level            normal          :
          :   max. optcycles                   200          :
          :   ANC micro-cycles                  20          :
          :   degrees of freedom                48          :
          :.................................................:
          :   RF solver                   davidson          :
          :   write xtbopt.log                true          :
          :   linear?                        false          :
          :   energy convergence         0.5000000E-05 Eh   :
          :   grad. convergence          0.1000000E-02 Eh/α :
          :   maximium RF displ.         1.0000000          :
          :   Hlow (freq-cutoff)         0.1000000E-01      :
          :   Hmax (freq-cutoff)         5.0000000          :
          :   S6 in model hess.         20.0000000          :
          ...................................................

generating ANC from model Hessian ...
Using Lindh-Hessian (1995)
 Shifting diagonal of input Hessian by    1.0388710234284714E-002
 Lowest  eigenvalues of input Hessian
    0.010000    0.000000    0.000000    0.000000    0.000000    0.000000
    0.000000    0.011181    0.013169    0.013861    0.014342    0.018910
    0.021372    0.026710    0.028292    0.041186    0.045255    0.054273
 Highest eigenvalues
    1.274559    1.324783    1.441303    1.602278    1.707094    2.252741


........................................................................
.............................. CYCLE    1 ..............................
........................................................................
   1    -29.4902940 -0.294903E+02  0.318E-04    2.04       0.0  T
   2    -29.4902940 -0.202590E-09  0.254E-04    2.04      92.9  T
   3    -29.4902940 -0.293710E-09  0.119E-04    2.04     197.5  T
     SCC iter.                  ...        0 min,  0.004 sec
     gradient                   ...        0 min,  0.002 sec
 * total energy  :   -29.2340883 Eh     change       -0.1744425E-08 Eh
   gradient norm :     0.0658321 Eh/α   predicted     0.0000000E+00 (-100.00%)
   displ. norm   :     0.3170376 α      lambda       -0.1102651E-01
   maximum displ.:     0.2000531 α      in ANC's #10, #7, #18, ...

........................................................................
.............................. CYCLE    2 ..............................
........................................................................
   1    -29.5025893 -0.295026E+02  0.333E-01    2.50       0.0  T
   2    -29.5028701 -0.280844E-03  0.200E-01    2.53       1.0  T
   3    -29.5028899 -0.197672E-04  0.707E-02    2.60       1.0  T
   4    -29.5028966 -0.673793E-05  0.276E-02    2.62       1.0  T
   5    -29.5028996 -0.303235E-05  0.201E-02    2.63       1.2  T
   6    -29.5029014 -0.178691E-05  0.117E-02    2.63       2.0  T
   7    -29.5029023 -0.844223E-06  0.611E-03    2.63       3.9  T
   8    -29.5029025 -0.270052E-06  0.131E-03    2.63      18.0  T
   9    -29.5029025 -0.717611E-08  0.582E-04    2.63      40.5  T
  10    -29.5029025 -0.895739E-09  0.187E-04    2.63     126.3  T
     SCC iter.                  ...        0 min,  0.014 sec
     gradient                   ...        0 min,  0.002 sec
 * total energy  :   -29.2403184 Eh     change       -0.6230097E-02 Eh
   gradient norm :     0.0384594 Eh/α   predicted    -0.6067408E-02 (  -2.61%)
   displ. norm   :     0.5766129 α      lambda       -0.1012919E-01
   maximum displ.:     0.4382561 α      in ANC's #1, #3, #7, ...

........................................................................
.............................. CYCLE    3 ..............................
........................................................................
   1    -29.5147190 -0.295147E+02  0.314E-01    2.87       0.0  T
   2    -29.5148826 -0.163617E-03  0.189E-01    2.86       1.0  T
   3    -29.5148999 -0.172944E-04  0.543E-02    2.90       1.0  T
   4    -29.5149089 -0.902770E-05  0.247E-02    2.91       1.0  T
   5    -29.5149106 -0.172352E-05  0.173E-02    2.92       1.4  T
   6    -29.5149119 -0.120989E-05  0.100E-02    2.92       2.4  T
   7    -29.5149124 -0.503504E-06  0.549E-03    2.92       4.3  T
   8    -29.5149125 -0.167013E-06  0.122E-03    2.91      19.3  T
   9    -29.5149125 -0.498848E-08  0.599E-04    2.91      39.4  T
  10    -29.5149125 -0.989587E-09  0.284E-04    2.91      83.0  T
     SCC iter.                  ...        0 min,  0.014 sec
     gradient                   ...        0 min,  0.002 sec
 * total energy  :   -29.2467285 Eh     change       -0.6410163E-02 Eh
   gradient norm :     0.0614877 Eh/α   predicted    -0.6748486E-02 (   5.28%)
   displ. norm   :     0.4807472 α      lambda       -0.6784134E-02
   maximum displ.:     0.3318210 α      in ANC's #1, #3, #10, ...

........................................................................
.............................. CYCLE    4 ..............................
........................................................................
   1    -29.5132152 -0.295132E+02  0.328E-01    2.89       0.0  T
   2    -29.5135833 -0.368078E-03  0.192E-01    3.01       1.0  T
   3    -29.5136287 -0.454691E-04  0.825E-02    3.11       1.0  T
   4    -29.5136448 -0.160795E-04  0.462E-02    3.16       1.0  T
   5    -29.5136518 -0.695187E-05  0.344E-02    3.16       1.0  T
   6    -29.5136602 -0.840906E-05  0.131E-02    3.16       1.8  T
   7    -29.5136612 -0.102483E-05  0.644E-03    3.16       3.7  T
   8    -29.5136615 -0.279002E-06  0.195E-03    3.16      12.1  T
   9    -29.5136615 -0.161812E-07  0.118E-03    3.16      19.9  T
  10    -29.5136615 -0.686789E-08  0.748E-04    3.16      31.5  T
  11    -29.5136615 -0.384511E-08  0.193E-04    3.16     121.9  T
     SCC iter.                  ...        0 min,  0.015 sec
     gradient                   ...        0 min,  0.002 sec
 * total energy  :   -29.2520046 Eh     change       -0.5276071E-02 Eh
   gradient norm :     0.0546069 Eh/α   predicted    -0.4176022E-02 ( -20.85%)
   displ. norm   :     0.4045974 α      lambda       -0.7279206E-02
   maximum displ.:     0.2122160 α      in ANC's #1, #10, #3, ...

........................................................................
.............................. CYCLE    5 ..............................
........................................................................
   1    -29.5110212 -0.295110E+02  0.398E-01    2.99       0.0  T
   2    -29.5116519 -0.630723E-03  0.222E-01    3.19       1.0  T
   3    -29.5117199 -0.680128E-04  0.103E-01    3.33       1.0  T
   4    -29.5117455 -0.256054E-04  0.577E-02    3.41       1.0  T
   5    -29.5117570 -0.114448E-04  0.448E-02    3.42       1.0  T
   6    -29.5117715 -0.145675E-04  0.204E-02    3.42       1.2  T
   7    -29.5117749 -0.340880E-05  0.103E-02    3.42       2.3  T
   8    -29.5117757 -0.804445E-06  0.288E-03    3.42       8.2  T
   9    -29.5117758 -0.314572E-07  0.197E-03    3.42      12.0  T
  10    -29.5117758 -0.203613E-07  0.110E-03    3.42      21.5  T
  11    -29.5117758 -0.761496E-08  0.355E-04    3.42      66.5  T
  12    -29.5117758 -0.626368E-09  0.142E-04    3.42     165.7  T
     SCC iter.                  ...        0 min,  0.016 sec
     gradient                   ...        0 min,  0.001 sec
 * total energy  :   -29.2568929 Eh     change       -0.4888274E-02 Eh
   gradient norm :     0.0331698 Eh/α   predicted    -0.4235406E-02 ( -13.36%)
   displ. norm   :     0.3659808 α      lambda       -0.3358412E-02
   maximum displ.:     0.1733995 α      in ANC's #1, #3, #8, ...

........................................................................
.............................. CYCLE    6 ..............................
........................................................................
   1    -29.5135698 -0.295136E+02  0.295E-01    3.46       0.0  T
   2    -29.5138788 -0.309045E-03  0.167E-01    3.58       1.0  T
   3    -29.5139166 -0.377762E-04  0.730E-02    3.71       1.0  T
   4    -29.5139295 -0.128918E-04  0.398E-02    3.76       1.0  T
   5    -29.5139353 -0.577325E-05  0.300E-02    3.76       1.0  T
   6    -29.5139427 -0.746369E-05  0.132E-02    3.76       1.8  T
   7    -29.5139441 -0.132501E-05  0.666E-03    3.76       3.5  T
   8    -29.5139445 -0.404764E-06  0.263E-03    3.76       9.0  T
   9    -29.5139445 -0.327360E-07  0.168E-03    3.76      14.0  T
  10    -29.5139445 -0.179098E-07  0.873E-04    3.76      27.0  T
  11    -29.5139445 -0.496212E-08  0.259E-04    3.76      91.1  T
     SCC iter.                  ...        0 min,  0.012 sec
     gradient                   ...        0 min,  0.001 sec
 * total energy  :   -29.2593187 Eh     change       -0.2425859E-02 Eh
   gradient norm :     0.0265448 Eh/α   predicted    -0.1904120E-02 ( -21.51%)
   displ. norm   :     0.2846393 α      lambda       -0.2442757E-02
   maximum displ.:     0.1154129 α      in ANC's #2, #3, #8, ...

........................................................................
.............................. CYCLE    7 ..............................
........................................................................
   1    -29.5179291 -0.295179E+02  0.191E-01    3.82       0.0  T
   2    -29.5180679 -0.138756E-03  0.103E-01    3.89       1.0  T
   3    -29.5180789 -0.110080E-04  0.434E-02    3.96       1.0  T
   4    -29.5180813 -0.237265E-05  0.179E-02    4.00       1.3  T
   5    -29.5180824 -0.114372E-05  0.134E-02    4.00       1.8  T
   6    -29.5180835 -0.107719E-05  0.772E-03    4.00       3.1  T
   7    -29.5180840 -0.455557E-06  0.447E-03    4.00       5.3  T
   8    -29.5180842 -0.205182E-06  0.134E-03    4.00      17.5  T
   9    -29.5180842 -0.816104E-08  0.941E-04    4.00      25.1  T
  10    -29.5180842 -0.525523E-08  0.524E-04    4.00      44.9  T
     SCC iter.                  ...        0 min,  0.011 sec
     gradient                   ...        0 min,  0.001 sec
 * total energy  :   -29.2609967 Eh     change       -0.1677935E-02 Eh
   gradient norm :     0.0173491 Eh/α   predicted    -0.1320334E-02 ( -21.31%)
   displ. norm   :     0.2605366 α      lambda       -0.1530100E-02
   maximum displ.:     0.1283070 α      in ANC's #4, #3, #8, ...

........................................................................
.............................. CYCLE    8 ..............................
........................................................................
   1    -29.5194919 -0.295195E+02  0.141E-01    4.08       0.0  T
   2    -29.5195477 -0.558172E-04  0.814E-02    4.12       1.0  T
   3    -29.5195537 -0.594721E-05  0.324E-02    4.17       1.0  T
   4    -29.5195555 -0.182955E-05  0.153E-02    4.19       1.5  T
   5    -29.5195562 -0.736380E-06  0.118E-02    4.19       2.0  T
   6    -29.5195573 -0.103063E-05  0.595E-03    4.19       4.0  T
   7    -29.5195576 -0.334757E-06  0.251E-03    4.19       9.4  T
   8    -29.5195577 -0.544815E-07  0.122E-03    4.19      19.4  T
   9    -29.5195577 -0.623833E-08  0.881E-04    4.19      26.7  T
  10    -29.5195577 -0.566433E-08  0.429E-04    4.19      54.9  T
     SCC iter.                  ...        0 min,  0.011 sec
     gradient                   ...        0 min,  0.001 sec
 * total energy  :   -29.2619562 Eh     change       -0.9595293E-03 Eh
   gradient norm :     0.0105255 Eh/α   predicted    -0.8169812E-03 ( -14.86%)
   displ. norm   :     0.2491587 α      lambda       -0.1197869E-02
   maximum displ.:     0.1361597 α      in ANC's #2, #4, #6, ...

........................................................................
.............................. CYCLE    9 ..............................
........................................................................
   1    -29.5219215 -0.295219E+02  0.145E-01    4.21       0.0  T
   2    -29.5219379 -0.163490E-04  0.891E-02    4.19       1.0  T
   3    -29.5219486 -0.107837E-04  0.297E-02    4.17       1.0  T
   4    -29.5219518 -0.317870E-05  0.227E-02    4.17       1.0  T
   5    -29.5219548 -0.302125E-05  0.159E-02    4.17       1.5  T
   6    -29.5219569 -0.205927E-05  0.821E-03    4.17       2.9  T
   7    -29.5219575 -0.577982E-06  0.269E-03    4.17       8.7  T
   8    -29.5219575 -0.440228E-07  0.185E-03    4.17      12.7  T
   9    -29.5219575 -0.234660E-07  0.951E-04    4.17      24.8  T
  10    -29.5219575 -0.498924E-08  0.473E-04    4.17      49.9  T
     SCC iter.                  ...        0 min,  0.011 sec
     gradient                   ...        0 min,  0.001 sec
 * total energy  :   -29.2621801 Eh     change       -0.2239340E-03 Eh
   gradient norm :     0.0149130 Eh/α   predicted    -0.6361136E-03 ( 184.06%)
   displ. norm   :     0.1231574 α      lambda       -0.7846708E-03
   maximum displ.:     0.0865313 α      in ANC's #1, #4, #6, ...

........................................................................
.............................. CYCLE   10 ..............................
........................................................................
   1    -29.5240302 -0.295240E+02  0.111E-01    4.17       0.0  T
   2    -29.5240441 -0.138850E-04  0.668E-02    4.20       1.0  T
   3    -29.5240499 -0.586809E-05  0.242E-02    4.24       1.0  T
   4    -29.5240519 -0.198883E-05  0.174E-02    4.24       1.4  T
   5    -29.5240533 -0.138564E-05  0.129E-02    4.24       1.8  T
   6    -29.5240548 -0.150908E-05  0.549E-03    4.24       4.3  T
   7    -29.5240550 -0.222042E-06  0.235E-03    4.24      10.0  T
   8    -29.5240551 -0.348214E-07  0.144E-03    4.24      16.4  T
   9    -29.5240551 -0.132909E-07  0.896E-04    4.24      26.3  T
  10    -29.5240551 -0.630743E-08  0.363E-04    4.24      65.0  T
     SCC iter.                  ...        0 min,  0.011 sec
     gradient                   ...        0 min,  0.001 sec
 * total energy  :   -29.2625509 Eh     change       -0.3707942E-03 Eh
   gradient norm :     0.0091141 Eh/α   predicted    -0.3982856E-03 (   7.41%)
   displ. norm   :     0.0746324 α      lambda       -0.2625222E-03
   maximum displ.:     0.0450241 α      in ANC's #4, #1, #6, ...

........................................................................
.............................. CYCLE   11 ..............................
........................................................................
   1    -29.5213100 -0.295213E+02  0.512E-02    4.23       0.0  T
   2    -29.5213129 -0.284083E-05  0.290E-02    4.23       1.0  T
   3    -29.5213131 -0.237408E-06  0.794E-03    4.23       3.0  T
   4    -29.5213132 -0.971432E-07  0.355E-03    4.23       6.6  T
   5    -29.5213133 -0.355092E-07  0.279E-03    4.23       8.5  T
   6    -29.5213133 -0.468427E-07  0.139E-03    4.23      16.9  T
   7    -29.5213133 -0.134132E-07  0.730E-04    4.23      32.3  T
   8    -29.5213133 -0.314473E-08  0.313E-04    4.23      75.4  T
     SCC iter.                  ...        0 min,  0.008 sec
     gradient                   ...        0 min,  0.001 sec
 * total energy  :   -29.2626635 Eh     change       -0.1125528E-03 Eh
   gradient norm :     0.0059599 Eh/α   predicted    -0.1319905E-03 (  17.27%)
   displ. norm   :     0.0881471 α      lambda       -0.1595043E-03
   maximum displ.:     0.0466559 α      in ANC's #7, #6, #2, ...

........................................................................
.............................. CYCLE   12 ..............................
........................................................................
   1    -29.5216050 -0.295216E+02  0.330E-02    4.22       0.0  T
   2    -29.5216057 -0.721352E-06  0.197E-02    4.22       1.2  T
   3    -29.5216059 -0.130477E-06  0.398E-03    4.21       5.9  T
   4    -29.5216059 -0.391847E-07  0.245E-03    4.21       9.6  T
   5    -29.5216059 -0.230310E-07  0.185E-03    4.21      12.8  T
   6    -29.5216060 -0.289357E-07  0.902E-04    4.21      26.1  T
   7    -29.5216060 -0.682120E-08  0.448E-04    4.21      52.7  T
     SCC iter.                  ...        0 min,  0.007 sec
     gradient                   ...        0 min,  0.001 sec
 * total energy  :   -29.2627889 Eh     change       -0.1254263E-03 Eh
   gradient norm :     0.0036441 Eh/α   predicted    -0.8037223E-04 ( -35.92%)
   displ. norm   :     0.2738817 α      lambda       -0.3236141E-03
   maximum displ.:     0.1552522 α      in ANC's #7, #6, #1, ...

........................................................................
.............................. CYCLE   13 ..............................
........................................................................
   1    -29.5223936 -0.295224E+02  0.753E-02    4.21       0.0  T
   2    -29.5223972 -0.360749E-05  0.444E-02    4.21       1.0  T
   3    -29.5223975 -0.219115E-06  0.900E-03    4.21       2.6  T
   4    -29.5223978 -0.343391E-06  0.451E-03    4.21       5.2  T
   5    -29.5223979 -0.796857E-07  0.344E-03    4.21       6.9  T
   6    -29.5223980 -0.725037E-07  0.204E-03    4.21      11.5  T
   7    -29.5223980 -0.325868E-07  0.102E-03    4.21      23.2  T
   8    -29.5223980 -0.844369E-08  0.378E-04    4.21      62.4  T
   9    -29.5223980 -0.787058E-09  0.233E-04    4.21     101.3  T
     SCC iter.                  ...        0 min,  0.009 sec
     gradient                   ...        0 min,  0.001 sec
 * total energy  :   -29.2630079 Eh     change       -0.2190316E-03 Eh
   gradient norm :     0.0060747 Eh/α   predicted    -0.1739463E-03 ( -20.58%)
   displ. norm   :     0.2611970 α      lambda       -0.2033859E-03
   maximum displ.:     0.1625907 α      in ANC's #7, #6, #1, ...

........................................................................
.............................. CYCLE   14 ..............................
........................................................................
   1    -29.5222750 -0.295223E+02  0.712E-02    4.22       0.0  T
   2    -29.5222760 -0.101332E-05  0.421E-02    4.22       1.0  T
   3    -29.5222762 -0.215272E-06  0.577E-03    4.22       4.1  T
   4    -29.5222764 -0.173634E-06  0.388E-03    4.22       6.1  T
   5    -29.5222764 -0.457772E-07  0.268E-03    4.22       8.8  T
   6    -29.5222765 -0.371794E-07  0.134E-03    4.22      17.6  T
   7    -29.5222765 -0.924356E-08  0.486E-04    4.22      48.5  T
   8    -29.5222765 -0.904549E-09  0.126E-04    4.22     187.6  T
     SCC iter.                  ...        0 min,  0.008 sec
     gradient                   ...        0 min,  0.001 sec
 * total energy  :   -29.2631648 Eh     change       -0.1568419E-03 Eh
   gradient norm :     0.0077852 Eh/α   predicted    -0.1086296E-03 ( -30.74%)
   displ. norm   :     0.3402118 α      lambda       -0.2787507E-03
   maximum displ.:     0.2345112 α      in ANC's #7, #1, #6, ...

........................................................................
.............................. CYCLE   15 ..............................
........................................................................
   1    -29.5227339 -0.295227E+02  0.922E-02    4.25       0.0  T
   2    -29.5227352 -0.130388E-05  0.549E-02    4.25       1.0  T
   3    -29.5227357 -0.543376E-06  0.918E-03    4.26       2.6  T
   4    -29.5227362 -0.441182E-06  0.671E-03    4.25       3.5  T
   5    -29.5227364 -0.200224E-06  0.361E-03    4.25       6.5  T
   6    -29.5227364 -0.718897E-07  0.163E-03    4.25      14.5  T
   7    -29.5227364 -0.115655E-07  0.340E-04    4.25      69.3  T
   8    -29.5227364 -0.226070E-09  0.137E-04    4.25     171.7  T
     SCC iter.                  ...        0 min,  0.008 sec
     gradient                   ...        0 min,  0.001 sec
 * total energy  :   -29.2633737 Eh     change       -0.2089290E-03 Eh
   gradient norm :     0.0074165 Eh/α   predicted    -0.1555078E-03 ( -25.57%)
   displ. norm   :     0.2994625 α      lambda       -0.2559858E-03
   maximum displ.:     0.2247320 α      in ANC's #7, #1, #6, ...

........................................................................
.............................. CYCLE   16 ..............................
........................................................................
   1    -29.5231806 -0.295232E+02  0.863E-02    4.28       0.0  T
   2    -29.5231827 -0.211309E-05  0.516E-02    4.28       1.0  T
   3    -29.5231836 -0.951387E-06  0.909E-03    4.28       2.6  T
   4    -29.5231838 -0.198666E-06  0.689E-03    4.28       3.4  T
   5    -29.5231840 -0.227036E-06  0.339E-03    4.28       7.0  T
   6    -29.5231841 -0.691773E-07  0.136E-03    4.28      17.4  T
   7    -29.5231841 -0.745621E-08  0.320E-04    4.28      73.6  T
   8    -29.5231841 -0.342261E-09  0.163E-04    4.28     144.6  T
     SCC iter.                  ...        0 min,  0.008 sec
     gradient                   ...        0 min,  0.001 sec
 * total energy  :   -29.2635562 Eh     change       -0.1825198E-03 Eh
   gradient norm :     0.0049956 Eh/α   predicted    -0.1394720E-03 ( -23.59%)
   displ. norm   :     0.2086522 α      lambda       -0.1474785E-03
   maximum displ.:     0.1589868 α      in ANC's #7, #1, #2, ...

........................................................................
.............................. CYCLE   17 ..............................
........................................................................
   1    -29.5233241 -0.295233E+02  0.675E-02    4.29       0.0  T
   2    -29.5233261 -0.192930E-05  0.404E-02    4.29       1.0  T
   3    -29.5233266 -0.554487E-06  0.931E-03    4.29       2.5  T
   4    -29.5233270 -0.340155E-06  0.660E-03    4.30       3.6  T
   5    -29.5233271 -0.144558E-06  0.477E-03    4.29       4.9  T
   6    -29.5233272 -0.144088E-06  0.144E-03    4.29      16.4  T
   7    -29.5233273 -0.941803E-08  0.494E-04    4.29      47.7  T
   8    -29.5233273 -0.101006E-08  0.228E-04    4.29     103.4  T
     SCC iter.                  ...        0 min,  0.008 sec
     gradient                   ...        0 min,  0.001 sec
 * total energy  :   -29.2636554 Eh     change       -0.9916860E-04 Eh
   gradient norm :     0.0037151 Eh/α   predicted    -0.7695121E-04 ( -22.40%)
   displ. norm   :     0.1021043 α      lambda       -0.6180698E-04
   maximum displ.:     0.0730334 α      in ANC's #7, #2, #4, ...

........................................................................
.............................. CYCLE   18 ..............................
........................................................................
   1    -29.5234223 -0.295234E+02  0.373E-02    4.30       0.0  T
   2    -29.5234230 -0.698105E-06  0.223E-02    4.30       1.1  T
   3    -29.5234231 -0.897430E-07  0.626E-03    4.30       3.8  T
   4    -29.5234233 -0.236611E-06  0.382E-03    4.30       6.2  T
   5    -29.5234234 -0.503401E-07  0.259E-03    4.30       9.1  T
   6    -29.5234234 -0.390419E-07  0.102E-03    4.30      23.0  T
   7    -29.5234234 -0.523850E-08  0.343E-04    4.30      68.7  T
   8    -29.5234234 -0.518810E-09  0.124E-04    4.30     190.7  T
     SCC iter.                  ...        0 min,  0.008 sec
     gradient                   ...        0 min,  0.001 sec
 * total energy  :   -29.2636974 Eh     change       -0.4199035E-04 Eh
   gradient norm :     0.0029310 Eh/α   predicted    -0.3122455E-04 ( -25.64%)
   displ. norm   :     0.0756145 α      lambda       -0.3249635E-04
   maximum displ.:     0.0471545 α      in ANC's #7, #2, #4, ...

........................................................................
.............................. CYCLE   19 ..............................
........................................................................
   1    -29.5232673 -0.295233E+02  0.280E-02    4.30       0.0  T
   2    -29.5232675 -0.286656E-06  0.169E-02    4.30       1.4  T
   3    -29.5232677 -0.121880E-06  0.435E-03    4.29       5.4  T
   4    -29.5232678 -0.891624E-07  0.322E-03    4.29       7.3  T
   5    -29.5232678 -0.451639E-07  0.205E-03    4.29      11.5  T
   6    -29.5232678 -0.318304E-07  0.719E-04    4.29      32.8  T
   7    -29.5232678 -0.300443E-08  0.397E-04    4.29      59.4  T
     SCC iter.                  ...        0 min,  0.007 sec
     gradient                   ...        0 min,  0.001 sec
 * total energy  :   -29.2637191 Eh     change       -0.2174149E-04 Eh
   gradient norm :     0.0022336 Eh/α   predicted    -0.1634035E-04 ( -24.84%)
   displ. norm   :     0.0568114 α      lambda       -0.2668755E-04
   maximum displ.:     0.0331056 α      in ANC's #4, #3, #6, ...

........................................................................
.............................. CYCLE   20 ..............................
........................................................................
   1    -29.5237965 -0.295238E+02  0.234E-02    4.29       0.0  T
   2    -29.5237968 -0.232921E-06  0.139E-02    4.29       1.7  T
   3    -29.5237968 -0.434406E-07  0.202E-03    4.29      11.7  T
   4    -29.5237968 -0.106201E-07  0.110E-03    4.29      21.5  T
   5    -29.5237968 -0.409624E-08  0.689E-04    4.29      34.2  T
   6    -29.5237968 -0.188623E-08  0.499E-04    4.29      47.3  T
     SCC iter.                  ...        0 min,  0.006 sec
     gradient                   ...        0 min,  0.001 sec
 * total energy  :   -29.2637331 Eh     change       -0.1397187E-04 Eh
   gradient norm :     0.0023968 Eh/α   predicted    -0.1338742E-04 (  -4.18%)
   displ. norm   :     0.0703525 α      lambda       -0.2305028E-04
   maximum displ.:     0.0327290 α      in ANC's #7, #2, #1, ...
 * RMSD in coord.:     0.7647684 α      energy gain  -0.2964483E-01 Eh

generating ANC from model Hessian ...
Using Lindh-Hessian (1995)
 Shifting diagonal of input Hessian by    9.6061051537972546E-003
 Lowest  eigenvalues of input Hessian
    0.000000    0.000000    0.000000    0.000000    0.000000    0.000000
    0.010000    0.010775    0.012013    0.013196    0.014767    0.015562
    0.019288    0.024440    0.027042    0.030032    0.043239    0.045956
 Highest eigenvalues
    1.240579    1.367098    1.386525    1.461169    1.746255    2.346590


........................................................................
.............................. CYCLE   21 ..............................
........................................................................
   1    -29.5235291 -0.295235E+02  0.219E-02    4.29       0.0  T
   2    -29.5235293 -0.237080E-06  0.131E-02    4.29       1.8  T
   3    -29.5235294 -0.957327E-07  0.291E-03    4.28       8.1  T
   4    -29.5235295 -0.255377E-07  0.221E-03    4.28      10.7  T
   5    -29.5235295 -0.248067E-07  0.149E-03    4.28      15.9  T
   6    -29.5235295 -0.202283E-07  0.660E-04    4.28      35.7  T
   7    -29.5235295 -0.339875E-08  0.341E-04    4.28      69.2  T
     SCC iter.                  ...        0 min,  0.007 sec
     gradient                   ...        0 min,  0.001 sec
 * total energy  :   -29.2637494 Eh     change       -0.1626236E-04 Eh
   gradient norm :     0.0024754 Eh/α   predicted     0.0000000E+00 (-100.00%)
   displ. norm   :     0.0283197 α      lambda       -0.2231669E-04
   maximum displ.:     0.0186150 α      in ANC's #3, #1, #8, ...

........................................................................
.............................. CYCLE   22 ..............................
........................................................................
   1    -29.5233742 -0.295234E+02  0.137E-02    4.28       0.0  T
   2    -29.5233743 -0.866997E-07  0.821E-03    4.28       2.9  T
   3    -29.5233743 -0.294018E-07  0.196E-03    4.28      12.0  T
   4    -29.5233743 -0.132069E-07  0.139E-03    4.28      16.9  T
   5    -29.5233743 -0.856160E-08  0.762E-04    4.28      30.9  T
   6    -29.5233743 -0.358381E-08  0.266E-04    4.28      88.5  T
     SCC iter.                  ...        0 min,  0.006 sec
     gradient                   ...        0 min,  0.001 sec
 * total energy  :   -29.2637656 Eh     change       -0.1618467E-04 Eh
   gradient norm :     0.0012100 Eh/α   predicted    -0.1116523E-04 ( -31.01%)
   displ. norm   :     0.1118057 α      lambda       -0.3395767E-04
   maximum displ.:     0.0825870 α      in ANC's #1, #3, #8, ...

........................................................................
.............................. CYCLE   23 ..............................
........................................................................
   1    -29.5228752 -0.295229E+02  0.493E-02    4.28       0.0  T
   2    -29.5228758 -0.604952E-06  0.293E-02    4.28       1.0  T
   3    -29.5228761 -0.233122E-06  0.504E-03    4.28       4.7  T
   4    -29.5228762 -0.840149E-07  0.384E-03    4.28       6.1  T
   5    -29.5228762 -0.633841E-07  0.228E-03    4.28      10.3  T
   6    -29.5228763 -0.347111E-07  0.638E-04    4.28      36.9  T
   7    -29.5228763 -0.993722E-09  0.262E-04    4.28      90.0  T
     SCC iter.                  ...        0 min,  0.007 sec
     gradient                   ...        0 min,  0.001 sec
 * total energy  :   -29.2637851 Eh     change       -0.1954793E-04 Eh
   gradient norm :     0.0027854 Eh/α   predicted    -0.1707358E-04 ( -12.66%)
   displ. norm   :     0.0286279 α      lambda       -0.1389827E-04
   maximum displ.:     0.0208088 α      in ANC's #3, #1, #5, ...

........................................................................
.............................. CYCLE   24 ..............................
........................................................................
   1    -29.5230245 -0.295230E+02  0.130E-02    4.28       0.0  T
   2    -29.5230246 -0.376648E-07  0.766E-03    4.28       3.1  T
   3    -29.5230246 -0.578195E-08  0.793E-04    4.29      29.7  T
   4    -29.5230246 -0.228417E-08  0.480E-04    4.29      49.1  T
     SCC iter.                  ...        0 min,  0.004 sec
     gradient                   ...        0 min,  0.001 sec
 * total energy  :   -29.2637968 Eh     change       -0.1167544E-04 Eh
   gradient norm :     0.0020060 Eh/α   predicted    -0.6953799E-05 ( -40.44%)
   displ. norm   :     0.1100107 α      lambda       -0.3425825E-04
   maximum displ.:     0.0730494 α      in ANC's #3, #1, #6, ...

........................................................................
.............................. CYCLE   25 ..............................
........................................................................
   1    -29.5234035 -0.295234E+02  0.465E-02    4.29       0.0  T
   2    -29.5234039 -0.353902E-06  0.274E-02    4.29       1.0  T
   3    -29.5234039 -0.762334E-07  0.247E-03    4.30       9.5  T
   4    -29.5234040 -0.186924E-07  0.166E-03    4.29      14.2  T
   5    -29.5234040 -0.718479E-08  0.121E-03    4.29      19.4  T
   6    -29.5234040 -0.746218E-08  0.578E-04    4.29      40.8  T
   7    -29.5234040 -0.143698E-08  0.336E-04    4.29      70.2  T
     SCC iter.                  ...        0 min,  0.007 sec
     gradient                   ...        0 min,  0.001 sec
 * total energy  :   -29.2638186 Eh     change       -0.2181917E-04 Eh
   gradient norm :     0.0009961 Eh/α   predicted    -0.1733765E-04 ( -20.54%)
   displ. norm   :     0.1316573 α      lambda       -0.1236140E-04
   maximum displ.:     0.0881956 α      in ANC's #3, #1, #6, ...

........................................................................
.............................. CYCLE   26 ..............................
........................................................................
   1    -29.5234926 -0.295235E+02  0.519E-02    4.30       0.0  T
   2    -29.5234928 -0.232113E-06  0.307E-02    4.30       1.0  T
   3    -29.5234930 -0.139181E-06  0.306E-03    4.30       7.7  T
   4    -29.5234930 -0.229383E-07  0.222E-03    4.30      10.6  T
   5    -29.5234930 -0.242627E-07  0.101E-03    4.30      23.4  T
   6    -29.5234930 -0.503145E-08  0.552E-04    4.30      42.7  T
   7    -29.5234930 -0.127051E-08  0.138E-04    4.30     170.4  T
     SCC iter.                  ...        0 min,  0.007 sec
     gradient                   ...        0 min,  0.001 sec
 * total energy  :   -29.2638310 Eh     change       -0.1242187E-04 Eh
   gradient norm :     0.0015257 Eh/α   predicted    -0.6228795E-05 ( -49.86%)
   displ. norm   :     0.1077825 α      lambda       -0.1105692E-04
   maximum displ.:     0.0748442 α      in ANC's #3, #1, #6, ...

........................................................................
.............................. CYCLE   27 ..............................
........................................................................
   1    -29.5234643 -0.295235E+02  0.423E-02    4.31       0.0  T
   2    -29.5234644 -0.147366E-06  0.252E-02    4.31       1.0  T
   3    -29.5234645 -0.125080E-06  0.305E-03    4.31       7.7  T
   4    -29.5234646 -0.219055E-07  0.229E-03    4.31      10.3  T
   5    -29.5234646 -0.268254E-07  0.103E-03    4.31      22.8  T
   6    -29.5234646 -0.552552E-08  0.479E-04    4.31      49.2  T
   7    -29.5234646 -0.846711E-09  0.163E-04    4.31     145.0  T
     SCC iter.                  ...        0 min,  0.007 sec
     gradient                   ...        0 min,  0.001 sec
 * total energy  :   -29.2638429 Eh     change       -0.1184941E-04 Eh
   gradient norm :     0.0008054 Eh/α   predicted    -0.5559045E-05 ( -53.09%)
   displ. norm   :     0.1148802 α      lambda       -0.9208215E-05
   maximum displ.:     0.0879522 α      in ANC's #3, #1, #6, ...

........................................................................
.............................. CYCLE   28 ..............................
........................................................................
   1    -29.5234320 -0.295234E+02  0.395E-02    4.31       0.0  T
   2    -29.5234321 -0.121676E-06  0.234E-02    4.31       1.0  T
   3    -29.5234322 -0.554255E-07  0.201E-03    4.31      11.7  T
   4    -29.5234322 -0.113787E-07  0.137E-03    4.31      17.2  T
   5    -29.5234322 -0.570859E-08  0.773E-04    4.31      30.5  T
   6    -29.5234322 -0.259068E-08  0.465E-04    4.31      50.7  T
     SCC iter.                  ...        0 min,  0.006 sec
     gradient                   ...        0 min,  0.001 sec
 * total energy  :   -29.2638495 Eh     change       -0.6655682E-05 Eh
   gradient norm :     0.0010796 Eh/α   predicted    -0.4632366E-05 ( -30.40%)
   displ. norm   :     0.0659892 α      lambda       -0.6167499E-05
   maximum displ.:     0.0466011 α      in ANC's #3, #4, #6, ...

........................................................................
.............................. CYCLE   29 ..............................
........................................................................
   1    -29.5234134 -0.295234E+02  0.256E-02    4.31       0.0  T
   2    -29.5234135 -0.108011E-06  0.152E-02    4.31       1.6  T
   3    -29.5234135 -0.404368E-07  0.203E-03    4.31      11.6  T
   4    -29.5234136 -0.149306E-07  0.149E-03    4.31      15.8  T
   5    -29.5234136 -0.728340E-08  0.991E-04    4.31      23.8  T
   6    -29.5234136 -0.569582E-08  0.454E-04    4.31      52.0  T
     SCC iter.                  ...        0 min,  0.006 sec
     gradient                   ...        0 min,  0.001 sec
 * total energy  :   -29.2638526 Eh     change       -0.3110512E-05 Eh
   gradient norm :     0.0008575 Eh/α   predicted    -0.3088661E-05 (  -0.70%)
   displ. norm   :     0.0287037 α      lambda       -0.2265244E-05
   maximum displ.:     0.0184585 α      in ANC's #1, #3, #6, ...

   *** GEOMETRY OPTIMIZATION CONVERGED AFTER 29 ITERATIONS ***

------------------------------------------------------------------------
 total energy gain   :        -0.0297644 Eh      -18.6774 kcal/mol
 total RMSD          :         0.7880192 a0        0.4170 Å
 total power (kW/mol):        -2.6947005 (step) -227.4313 (real)
------------------------------------------------------------------------

 ANCopt (total)                0 d,  0 h,  0 min,  0.344 sec
 optimizer setup                ...        0 min,  0.000 sec (  0.040%)
 model hessian                  ...        0 min,  0.009 sec (  2.532%)
 ANC generation                 ...        0 min,  0.002 sec (  0.535%)
 coordinate transformation      ...        0 min,  0.001 sec (  0.152%)
 single point calculation       ...        0 min,  0.323 sec ( 94.057%)
 optimization log               ...        0 min,  0.002 sec (  0.648%)
 hessian update                 ...        0 min,  0.001 sec (  0.204%)
 rational function              ...        0 min,  0.004 sec (  1.089%)

================
 final structure:
================
18
 xtb: 6.5.1 (fef0646)
N            1.09249039605332       -0.40896283490423       -0.46318776141444
C            2.54914665992175       -0.38901976619942       -0.35662252074391
C            2.96684734464688       -0.86542668065786        1.03121011230683
C            4.45718781222594       -0.65538223786797        1.28229660783897
C            4.92692105832310       -1.41924249877841        2.51016412416551
O            6.13096762260260       -1.04384135572552        2.98088885436195
O            4.31652199324448       -2.30585916947964        3.02727960048282
Cl           0.10214143492318        1.64613045095656        1.39083541546993
H            0.78530028774521       -0.15580334778063       -1.39574830457388
H            0.53519471172077        0.67453052336756        0.53513221703857
H            0.72773168838037       -1.32769460548996       -0.23361631657910
H            2.87026000216025        0.64477930984349       -0.50816674242381
H            3.03161280996467       -1.01329118382430       -1.12359768304192
H            2.73932594278919       -1.92688828610941        1.14557246348514
H            2.39171841030533       -0.31986731573612        1.77926071632216
H            4.67685484428003        0.40902603823806        1.39773423567218
H            5.03620621667204       -1.03065563592583        0.43140431710040
H            6.51894076404231       -0.31051140392584        2.48604066453142

 Bond Distances (Angstroems)
 ---------------------------
N1-C2=1.4607         N1-H9=1.0140         N1-H11=1.0148        C2-N1=1.4607         C2-C3=1.5256         C2-H12=1.0931        
C2-H13=1.1003        C3-C2=1.5256         C3-C4=1.5259         C3-H14=1.0916        C3-H15=1.0899        C4-C3=1.5259         
C4-C5=1.5205         C4-H16=1.0930        C4-H17=1.0955        C5-C4=1.5205         C5-O6=1.3462         C5-O7=1.1942         
O6-C5=1.3462         O6-H18=0.9660        O7-C5=1.1942         Cl8-H10=1.3652       H9-N1=1.0140         H10-Cl8=1.3652       
H11-N1=1.0148        H12-C2=1.0931        H13-C2=1.1003        H14-C3=1.0916        H15-C3=1.0899        H16-C4=1.0930        
H17-C4=1.0955        H18-O6=0.9660        
 C  H  Rav=1.0939 sigma=0.0033  Rmin=1.0899  Rmax=1.1003     6
 C  C  Rav=1.5240 sigma=0.0025  Rmin=1.5205  Rmax=1.5259     3
 N  H  Rav=1.0144 sigma=0.0004  Rmin=1.0140  Rmax=1.0148     2
 N  C  Rav=1.4607 sigma=0.0000  Rmin=1.4607  Rmax=1.4607     1
 O  H  Rav=0.9660 sigma=0.0000  Rmin=0.9660  Rmax=0.9660     1
 O  C  Rav=1.2702 sigma=0.0760  Rmin=1.1942  Rmax=1.3462     2
 Cl H  Rav=1.3652 sigma=0.0000  Rmin=1.3652  Rmax=1.3652     1

 selected bond angles (degree)
 --------------------
H9-N1-C2=111.46                H11-N1-C2=110.75               H11-N1-H9=108.98               C3-C2-N1=109.58                
H12-C2-N1=107.20               H12-C2-C3=109.94               H13-C2-N1=112.25               H13-C2-C3=109.69               
H13-C2-H12=108.13              C4-C3-C2=111.97                H14-C3-C2=109.99               H14-C3-C4=108.67               
H15-C3-C2=108.88               H15-C3-C4=109.48               H15-C3-H14=107.75              C5-C4-C3=111.44                
H16-C4-C3=110.35               H16-C4-C5=109.99               H17-C4-C3=109.95               H17-C4-C5=106.97               
H17-C4-H16=108.02              O6-C5-C4=114.75                O7-C5-C4=124.39                O7-C5-O6=120.85                
H18-O6-C5=113.07               

 selected dihedral angles (degree)
 ---------------------------------
C3-C2-N1-H9=183.77            C3-C2-N1-H11=305.28           H12-C2-N1-H9= 64.49           H12-C2-N1-H11=186.00          
H13-C2-N1-H9=305.90           H13-C2-N1-H11= 67.41          C4-C3-C2-N1=189.19            C4-C3-C2-H12=306.77           
C4-C3-C2-H13= 65.54           H14-C3-C2-N1= 68.25           H14-C3-C2-H12=185.83          H14-C3-C2-H13=304.60          
H15-C3-C2-N1=310.40           H15-C3-C2-H12= 67.97          H15-C3-C2-H13=186.75          C5-C4-C3-C2=193.50            
C5-C4-C3-H14=315.21           C5-C4-C3-H15= 72.65           H16-C4-C3-C2= 71.00           H16-C4-C3-H14=192.70          
H16-C4-C3-H15=310.15          H17-C4-C3-C2=311.94           H17-C4-C3-H14= 73.64          H17-C4-C3-H15=191.08          
O6-C5-C4-C3=195.00            O6-C5-C4-H16=317.72           O6-C5-C4-H17= 74.80           O7-C5-C4-C3= 16.48            
O7-C5-C4-H16=139.19           O7-C5-C4-H17=256.27           H18-O6-C5-C4=  2.13           H18-O6-C5-O7=180.71           

 CMA Distance (Angstroems)
 ---------------------------
R(CMA):  4.5080
           -------------------------------------------------
          |                Final Singlepoint                |
           -------------------------------------------------

          ...................................................
          :                      SETUP                      :
          :.................................................:
          :  # basis functions                  48          :
          :  # atomic orbitals                  47          :
          :  # shells                           27          :
          :  # electrons                        50          :
          :  max. iterations                   250          :
          :  Hamiltonian                  GFN2-xTB          :
          :  restarted?                      false          :
          :  GBSA solvation                  false          :
          :  PC potential                    false          :
          :  electronic temp.          300.0000000     K    :
          :  accuracy                    1.0000000          :
          :  -> integral cutoff          0.2500000E+02      :
          :  -> integral neglect         0.1000000E-07      :
          :  -> SCF convergence          0.1000000E-05 Eh   :
          :  -> wf. convergence          0.1000000E-03 e    :
          :  Broyden damping             0.4000000          :
          ...................................................

 iter      E             dE          RMSdq      gap      omega  full diag
   1    -29.5234136 -0.295234E+02  0.229E-04    4.31       0.0  T
   2    -29.5234136 -0.780958E-10  0.169E-04    4.31     139.4  T
   3    -29.5234136 -0.956177E-10  0.890E-05    4.31     264.7  T

   *** convergence criteria satisfied after 3 iterations ***

         #    Occupation            Energy/Eh            Energy/eV
      -------------------------------------------------------------
         1        2.0000           -1.0218664             -27.8064
       ...           ...                  ...                  ...
        19        2.0000           -0.4819433             -13.1143
        20        2.0000           -0.4735512             -12.8860
        21        2.0000           -0.4569868             -12.4352
        22        2.0000           -0.4270752             -11.6213
        23        2.0000           -0.4054784             -11.0336
        24        2.0000           -0.3991489             -10.8614
        25        2.0000           -0.3989309             -10.8555 (HOMO)
        26                         -0.2406524              -6.5485 (LUMO)
        27                         -0.0612993              -1.6680
        28                         -0.0003228              -0.0088
        29                          0.0499825               1.3601
        30                          0.0522807               1.4226
       ...                                ...                  ...
        47                          0.6481821              17.6379
      -------------------------------------------------------------
                  HL-Gap            0.1582785 Eh            4.3070 eV
             Fermi-level           -0.3197917 Eh           -8.7020 eV

 SCC (total)                   0 d,  0 h,  0 min,  0.005 sec
 SCC setup                      ...        0 min,  0.000 sec (  1.427%)
 Dispersion                     ...        0 min,  0.000 sec (  2.028%)
 classical contributions        ...        0 min,  0.000 sec (  0.408%)
 integral evaluation            ...        0 min,  0.001 sec ( 11.997%)
 iterations                     ...        0 min,  0.003 sec ( 59.017%)
 molecular gradient             ...        0 min,  0.001 sec ( 21.728%)
 printout                       ...        0 min,  0.000 sec (  1.412%)

         :::::::::::::::::::::::::::::::::::::::::::::::::::::
         ::                     SUMMARY                     ::
         :::::::::::::::::::::::::::::::::::::::::::::::::::::
         :: total energy             -29.263852636592 Eh    ::
         :: gradient norm              0.000858326770 Eh/a0 ::
         :: HOMO-LUMO gap              4.306975908419 eV    ::
         ::.................................................::
         :: SCC energy               -29.523413576091 Eh    ::
         :: -> isotropic ES            0.074475545209 Eh    ::
         :: -> anisotropic ES         -0.003704436217 Eh    ::
         :: -> anisotropic XC          0.003652132356 Eh    ::
         :: -> dispersion             -0.010825954935 Eh    ::
         :: repulsion energy           0.259532266681 Eh    ::
         :: add. restraining           0.000000000000 Eh    ::
         :: total charge               0.000000000000 e     ::
         :::::::::::::::::::::::::::::::::::::::::::::::::::::

           -------------------------------------------------
          |                Property Printout                |
           -------------------------------------------------

    * Orbital Energies and Occupations

         #    Occupation            Energy/Eh            Energy/eV
      -------------------------------------------------------------
         1        2.0000           -1.0218664             -27.8064
       ...           ...                  ...                  ...
        13        2.0000           -0.5509334             -14.9917
        14        2.0000           -0.5343591             -14.5407
        15        2.0000           -0.5203111             -14.1584
        16        2.0000           -0.5130623             -13.9611
        17        2.0000           -0.4913471             -13.3702
        18        2.0000           -0.4857254             -13.2173
        19        2.0000           -0.4819433             -13.1143
        20        2.0000           -0.4735512             -12.8860
        21        2.0000           -0.4569868             -12.4352
        22        2.0000           -0.4270752             -11.6213
        23        2.0000           -0.4054784             -11.0336
        24        2.0000           -0.3991489             -10.8614
        25        2.0000           -0.3989309             -10.8555 (HOMO)
        26                         -0.2406524              -6.5485 (LUMO)
        27                         -0.0612993              -1.6680
        28                         -0.0003228              -0.0088
        29                          0.0499825               1.3601
        30                          0.0522807               1.4226
        31                          0.0615044               1.6736
        32                          0.0619338               1.6853
        33                          0.0675448               1.8380
        34                          0.0677395               1.8433
        35                          0.0876478               2.3850
        36                          0.1035138               2.8168
       ...                                ...                  ...
        47                          0.6481821              17.6379
      -------------------------------------------------------------
                  HL-Gap            0.1582785 Eh            4.3070 eV
             Fermi-level           -0.3197917 Eh           -8.7020 eV

     #   Z          covCN         q      C6AA      α(0)
     1   7 N        2.682    -0.308    27.932     7.849
     2   6 C        3.732     0.006    20.572     6.474
     3   6 C        3.805    -0.074    21.917     6.665
     4   6 C        3.802    -0.101    22.435     6.744
     5   6 C        2.688     0.358    20.916     7.485
     6   8 O        1.659    -0.371    20.296     6.082
     7   8 O        0.856    -0.359    20.878     6.126
     8  17 Cl       0.838    -0.478   114.896    16.398
     9   1 H        0.860     0.167     1.291     1.780
    10   1 H        0.889     0.334     0.618     1.230
    11   1 H        0.860     0.170     1.271     1.766
    12   1 H        0.924     0.054     2.265     2.354
    13   1 H        0.923     0.026     2.643     2.543
    14   1 H        0.924     0.065     2.144     2.290
    15   1 H        0.925     0.075     2.032     2.229
    16   1 H        0.924     0.055     2.254     2.348
    17   1 H        0.924     0.062     2.175     2.306
    18   1 H        0.805     0.319     0.666     1.282

 Mol. C6AA /au·bohr⁶  :       3173.813676
 Mol. C8AA /au·bohr⁸  :      77616.823992
 Mol. α(0) /au        :         83.949804


Wiberg/Mayer (AO) data.
largest (>0.10) Wiberg bond orders for each atom

 ---------------------------------------------------------------------------
     #   Z sym  total        # sym  WBO       # sym  WBO       # sym  WBO
 ---------------------------------------------------------------------------
     1   7 N    3.226 --     2 C    1.008     9 H    0.959    11 H    0.957
                            10 H    0.194
     2   6 C    3.976 --     1 N    1.008     3 C    1.007    12 H    0.974
                            13 H    0.972
     3   6 C    3.989 --     2 C    1.007     4 C    1.006    14 H    0.972
                            15 H    0.971
     4   6 C    3.997 --     3 C    1.006     5 C    0.967    16 H    0.964
                            17 H    0.950
     5   6 C    3.918 --     7 O    1.806     6 O    1.114     4 C    0.967
     6   8 O    2.199 --     5 C    1.114    18 H    0.876     7 O    0.162
     7   8 O    2.084 --     5 C    1.806     6 O    0.162
     8  17 Cl   0.774 --    10 H    0.690
     9   1 H    0.972 --     1 N    0.959
    10   1 H    0.888 --     8 Cl   0.690     1 N    0.194
    11   1 H    0.971 --     1 N    0.957
    12   1 H    0.997 --     2 C    0.974
    13   1 H    0.999 --     2 C    0.972
    14   1 H    0.996 --     3 C    0.972
    15   1 H    0.994 --     3 C    0.971
    16   1 H    0.997 --     4 C    0.964
    17   1 H    0.996 --     4 C    0.950
    18   1 H    0.898 --     6 O    0.876
 ---------------------------------------------------------------------------

Topologies differ in total number of bonds
Writing topology from bond orders to xtbtopo.mol

molecular dipole:
                 x           y           z       tot (Debye)
 q only:        1.089      -0.253      -2.022
   full:        1.089       0.106      -2.273       6.412
molecular quadrupole (traceless):
                xx          xy          yy          xz          yz          zz
 q only:       20.457      14.327      -8.902      -9.939       6.297     -11.555
  q+dip:       21.301      16.539      -7.778     -15.149      12.660     -13.523
   full:       21.895      16.386      -8.262     -15.044      12.993     -13.633

           -------------------------------------------------
          |                Geometry Summary                 |
           -------------------------------------------------

      molecular mass/u    :      139.5808017
   center of mass at/Å    :        2.8269229      -0.3248072       1.4124507
  moments of inertia/u·Å² :        0.2019027E+03   0.9348251E+03   0.1026234E+04
rotational constants/cm⁻¹ :        0.8349385E-01   0.1803293E-01   0.1642670E-01

 * 14 selected distances

     #   Z          #   Z                                           value/Å
     1   7 N        2   6 C                                       1.4606854
     2   6 C        3   6 C                                       1.5256203
     3   6 C        4   6 C                                       1.5258697 (max)
     5   6 C        6   8 O                                       1.3461932
     5   6 C        7   8 O                                       1.1941879
     1   7 N        9   1 H                                       1.0139649
     1   7 N       11   1 H                                       1.0148006
     2   6 C       12   1 H                                       1.0930783
     2   6 C       13   1 H                                       1.1003361
     3   6 C       14   1 H                                       1.0915795
     3   6 C       15   1 H                                       1.0899487
     4   6 C       16   1 H                                       1.0929523
     4   6 C       17   1 H                                       1.0954955
     6   8 O       18   1 H                                       0.9660077 (min)

 * 6 distinct bonds (by element types)

   Z      Z             #   av. dist./Å        max./Å        min./Å
   1 H    6 C           6     1.0938984     1.1003361     1.0899487
   6 C    6 C           2     1.5257450     1.5258697     1.5256203
   1 H    7 N           2     1.0143827     1.0148006     1.0139649
   6 C    7 N           1     1.4606854     1.4606854     1.4606854
   1 H    8 O           1     0.9660077     0.9660077     0.9660077
   6 C    8 O           2     1.2701906     1.3461932     1.1941879


optimized geometry written to: xtbopt.xyz


           -------------------------------------------------
          | TOTAL ENERGY              -29.263852636592 Eh   |
          | GRADIENT NORM               0.000858326770 Eh/α |
          | HOMO-LUMO GAP               4.306975908419 eV   |
           -------------------------------------------------

------------------------------------------------------------------------
 * finished run on 2023/01/23 at 14:12:01.733     
------------------------------------------------------------------------
 total:
 * wall-time:     0 d,  0 h,  0 min,  0.399 sec
 *  cpu-time:     0 d,  0 h,  0 min, 34.866 sec
 * ratio c/w:    87.276 speedup
 SCF:
 * wall-time:     0 d,  0 h,  0 min,  0.022 sec
 *  cpu-time:     0 d,  0 h,  0 min,  3.157 sec
 * ratio c/w:   141.917 speedup
 ANC optimizer:
 * wall-time:     0 d,  0 h,  0 min,  0.350 sec
 *  cpu-time:     0 d,  0 h,  0 min, 28.096 sec
 * ratio c/w:    80.337 speedup

