 Entering Gaussian System
 *********************************************
 Gaussian 98:
 frequency output generated by the xtb code
 *********************************************
                         Standard orientation:
 --------------------------------------------------------------------
  Center     Atomic     Atomic              Coordinates (Angstroms)
  Number     Number      Type              X           Y           Z
 --------------------------------------------------------------------
    1          8             0       -1.265075    0.957257    0.027223
    2          6             0       -1.329713   -0.440673   -0.156765
    3          6             0       -0.059215   -1.129399    0.332272
    4          6             0        1.197056   -0.558757   -0.319593
    5          7             0        1.477475    0.837893    0.111683
    6          1             0       -2.117083    1.398091   -0.163155
    7          1             0       -1.483998   -0.627964   -1.228604
    8          1             0       -2.212833   -0.820868    0.378659
    9          1             0       -0.126331   -2.211859    0.160924
   10          1             0        0.016350   -0.997548    1.418212
   11          1             0        1.088072   -0.584148   -1.411983
   12          1             0        2.072194   -1.183171   -0.090255
   13          1             0        0.628747    1.413707   -0.021095
   14          1             0        2.249415    1.264958   -0.421290
   15          1             0        1.721599    0.878063    1.111323
 --------------------------------------------------------------------
     1 basis functions        1 primitive gaussians
     1 alpha electrons        1 beta electrons

 Harmonic frequencies (cm**-1), IR intensities (km*mol⁻¹),
 Raman scattering activities (A**4/amu), Raman depolarization ratios,
 reduced masses (AMU), force constants (mDyne/A) and normal coordinates:
                      1                      2                      3
                        a                      a                      a 
 Frequencies --    69.8803               166.9836               224.6978
 Red. masses --     8.7283                 9.7852                 2.6887
 Frc consts  --     0.0000                 0.0000                 0.0000
 IR Inten    --    18.3871                60.6861                 0.5736
 Raman Activ --     0.0000                 0.0000                 0.0000
 Depolar     --     0.0000                 0.0000                 0.0000
 Atom AN      X      Y      Z        X      Y      Z        X      Y      Z
   1   8     0.11  -0.02  -0.47     0.51   0.10  -0.10    -0.12  -0.04  -0.11
   2   6    -0.15  -0.10   0.36     0.09   0.06   0.10     0.00  -0.04  -0.08
   3   6     0.05  -0.03  -0.04     0.02  -0.20  -0.06    -0.01   0.11   0.12
   4   6    -0.13   0.18  -0.21     0.00  -0.05   0.05    -0.07   0.04  -0.07
   5   7     0.11  -0.02   0.30    -0.54   0.06   0.01     0.18  -0.07   0.15
   6   1     0.01  -0.01  -0.04     0.15   0.07  -0.02    -0.02  -0.01  -0.07
   7   1    -0.22  -0.18   0.16    -0.04  -0.00   0.04     0.05  -0.02  -0.03
   8   1     0.03   0.07   0.30     0.02   0.10   0.08    -0.02  -0.02  -0.06
   9   1     0.03  -0.00  -0.06    -0.02  -0.04  -0.09     0.01   0.02   0.11
  10   1     0.09  -0.07  -0.01     0.02  -0.14  -0.01    -0.01   0.11   0.03
  11   1    -0.13   0.18  -0.05     0.03  -0.04   0.01    -0.11   0.08  -0.01
  12   1    -0.03   0.01  -0.20     0.03   0.04   0.05    -0.02  -0.03  -0.13
  13   1     0.10   0.08   0.04    -0.30  -0.16   0.14    -0.10  -0.12   0.51
  14   1     0.11  -0.02   0.18    -0.30   0.16  -0.10    -0.27   0.15  -0.29
  15   1    -0.06  -0.11   0.11     0.00   0.04  -0.04     0.56  -0.11  -0.08
                      4                      5                      6
                        a                      a                      a 
 Frequencies --   323.3040               342.6788               495.5053
 Red. masses --     8.3748                 9.6610                 5.7516
 Frc consts  --     0.0000                 0.0000                 0.0000
 IR Inten    --     4.7272                16.1151                41.2534
 Raman Activ --     0.0000                 0.0000                 0.0000
 Depolar     --     0.0000                 0.0000                 0.0000
 Atom AN      X      Y      Z        X      Y      Z        X      Y      Z
   1   8     0.41  -0.21   0.12     0.30  -0.24   0.04    -0.11   0.20  -0.23
   2   6     0.10  -0.11  -0.22    -0.28  -0.14  -0.04     0.30   0.08  -0.00
   3   6    -0.07   0.07   0.29    -0.27  -0.14  -0.13     0.03  -0.31   0.18
   4   6    -0.36   0.15  -0.17    -0.14   0.18   0.29    -0.20   0.02   0.11
   5   7    -0.11   0.04   0.02     0.30   0.31  -0.12     0.01   0.05  -0.04
   6   1     0.15   0.02  -0.02     0.11   0.03   0.07    -0.23  -0.10   0.51
   7   1     0.18   0.02  -0.10    -0.14  -0.02  -0.01     0.22   0.03  -0.02
   8   1    -0.06  -0.02  -0.21    -0.08   0.01   0.02     0.02   0.01  -0.12
   9   1     0.03  -0.01   0.25     0.01  -0.03  -0.17    -0.01  -0.05  -0.17
  10   1    -0.03   0.20   0.06    -0.15  -0.16  -0.02     0.01  -0.30   0.07
  11   1    -0.27   0.12  -0.03     0.03   0.01   0.08    -0.21   0.05   0.04
  12   1    -0.07   0.03  -0.22    -0.07   0.04   0.16     0.00   0.03  -0.12
  13   1     0.04   0.09  -0.06     0.11   0.14   0.01     0.06   0.09  -0.02
  14   1     0.07  -0.06   0.10     0.05  -0.04  -0.18     0.02  -0.08  -0.07
  15   1    -0.14  -0.04   0.03     0.21   0.17  -0.07     0.05   0.05  -0.02
                      7                      8                      9
                        a                      a                      a 
 Frequencies --   513.1026               827.4223               851.1510
 Red. masses --     3.7090                 3.4853                 5.7638
 Frc consts  --     0.0000                 0.0000                 0.0000
 IR Inten    --   145.5114                69.7617                 8.5786
 Raman Activ --     0.0000                 0.0000                 0.0000
 Depolar     --     0.0000                 0.0000                 0.0000
 Atom AN      X      Y      Z        X      Y      Z        X      Y      Z
   1   8     0.17  -0.12  -0.14     0.03  -0.04  -0.02    -0.05   0.25   0.05
   2   6    -0.18  -0.05  -0.11     0.23   0.01   0.10     0.07  -0.03  -0.14
   3   6    -0.03   0.27  -0.07     0.01   0.09  -0.11     0.03  -0.47  -0.16
   4   6     0.15  -0.05  -0.03    -0.29   0.08  -0.10    -0.03  -0.11  -0.01
   5   7    -0.05  -0.06   0.05    -0.18  -0.02  -0.04    -0.04   0.17   0.12
   6   1    -0.13  -0.03   0.76    -0.04  -0.10  -0.00    -0.05  -0.02  -0.02
   7   1    -0.15  -0.03  -0.02     0.09  -0.02   0.03    -0.25   0.03   0.00
   8   1     0.00  -0.01   0.06     0.07  -0.03   0.02     0.11   0.05   0.16
   9   1     0.02   0.05   0.18    -0.00   0.02  -0.01     0.03  -0.21   0.45
  10   1    -0.02   0.27  -0.04     0.09   0.05  -0.04    -0.03   0.35  -0.09
  11   1     0.12  -0.04  -0.01     0.28  -0.27  -0.05     0.02   0.06  -0.01
  12   1     0.01  -0.03   0.08    -0.12   0.12   0.42     0.06   0.06  -0.03
  13   1    -0.05  -0.08   0.01     0.18   0.37   0.23     0.09   0.18  -0.00
  14   1    -0.04   0.06   0.03     0.06  -0.16   0.01     0.01  -0.15  -0.09
  15   1    -0.02  -0.03   0.02     0.11  -0.35  -0.03     0.10   0.15   0.00
                     10                     11                     12
                        a                      a                      a 
 Frequencies --   870.3517               949.6155               964.1217
 Red. masses --     6.8185                 5.3604                 5.9836
 Frc consts  --     0.0000                 0.0000                 0.0000
 IR Inten    --    17.9971                 5.8126                26.8316
 Raman Activ --     0.0000                 0.0000                 0.0000
 Depolar     --     0.0000                 0.0000                 0.0000
 Atom AN      X      Y      Z        X      Y      Z        X      Y      Z
   1   8     0.00  -0.11   0.05     0.02  -0.15  -0.06    -0.01  -0.16   0.04
   2   6     0.29   0.05  -0.10     0.18   0.06   0.26     0.35   0.13  -0.11
   3   6     0.11   0.33  -0.22    -0.20   0.05  -0.16    -0.23   0.05   0.02
   4   6    -0.19   0.08   0.29    -0.13  -0.18  -0.19    -0.05  -0.26  -0.02
   5   7    -0.14  -0.29   0.05     0.10   0.17   0.21     0.15   0.31  -0.06
   6   1    -0.02  -0.09  -0.04    -0.04  -0.12  -0.00    -0.06  -0.16  -0.03
   7   1    -0.19  -0.04   0.03     0.27  -0.01   0.03    -0.21  -0.06   0.03
   8   1     0.26  -0.06   0.23    -0.04  -0.03  -0.11     0.26   0.01   0.25
   9   1     0.05   0.10  -0.12    -0.28   0.01   0.06    -0.21   0.03  -0.04
  10   1    -0.09   0.04  -0.05     0.23   0.08  -0.07    -0.23  -0.02   0.02
  11   1    -0.17   0.15   0.08     0.22   0.14  -0.08    -0.16  -0.15   0.01
  12   1    -0.07  -0.06  -0.08    -0.19  -0.20   0.08     0.00  -0.06  -0.06
  13   1     0.01  -0.04  -0.12    -0.05  -0.11  -0.14    -0.04  -0.02   0.08
  14   1    -0.05  -0.31  -0.19    -0.06   0.00  -0.10     0.03   0.36   0.19
  15   1     0.06   0.23  -0.02     0.02   0.41   0.04    -0.09  -0.17   0.02
                     13                     14                     15
                        a                      a                      a 
 Frequencies --  1016.7770              1070.3698              1134.6371
 Red. masses --     6.6470                 9.0561                 7.1540
 Frc consts  --     0.0000                 0.0000                 0.0000
 IR Inten    --    48.2184                20.7675                20.1400
 Raman Activ --     0.0000                 0.0000                 0.0000
 Depolar     --     0.0000                 0.0000                 0.0000
 Atom AN      X      Y      Z        X      Y      Z        X      Y      Z
   1   8    -0.02   0.28   0.03    -0.00   0.16   0.03    -0.07  -0.15   0.08
   2   6     0.15  -0.26   0.01    -0.15  -0.18  -0.14    -0.01   0.24  -0.39
   3   6    -0.02  -0.11  -0.08     0.36   0.19  -0.00     0.09  -0.12   0.39
   4   6    -0.30   0.29   0.06    -0.30  -0.49  -0.04    -0.09   0.17  -0.27
   5   7     0.25  -0.15  -0.11     0.02   0.28   0.15     0.06  -0.08   0.11
   6   1    -0.04  -0.02   0.00     0.07   0.19   0.03     0.03   0.07   0.03
   7   1    -0.01  -0.00   0.01    -0.06  -0.03  -0.03    -0.25  -0.19  -0.02
   8   1     0.04  -0.02   0.03    -0.01  -0.06  -0.00     0.08   0.22   0.17
   9   1     0.29  -0.06   0.07     0.28   0.05  -0.14    -0.08  -0.00  -0.05
  10   1    -0.06   0.08  -0.03     0.15  -0.10   0.01     0.20  -0.19   0.11
  11   1     0.11   0.00  -0.00    -0.12  -0.19  -0.00     0.25  -0.04  -0.09
  12   1    -0.27  -0.12   0.22    -0.12  -0.16   0.04    -0.07   0.06   0.18
  13   1    -0.17  -0.36  -0.07     0.01   0.07   0.02    -0.03  -0.11  -0.08
  14   1    -0.03   0.28   0.10     0.00   0.03   0.01    -0.04  -0.05  -0.07
  15   1    -0.14  -0.04   0.02     0.01   0.12   0.03     0.01   0.16   0.02
                     16                     17                     18
                        a                      a                      a 
 Frequencies --  1146.7302              1196.5509              1234.3393
 Red. masses --     9.7773                 3.3112                 2.7231
 Frc consts  --     0.0000                 0.0000                 0.0000
 IR Inten    --    44.5648                17.5352                17.4778
 Raman Activ --     0.0000                 0.0000                 0.0000
 Depolar     --     0.0000                 0.0000                 0.0000
 Atom AN      X      Y      Z        X      Y      Z        X      Y      Z
   1   8    -0.03  -0.39  -0.09     0.09   0.02   0.01     0.04   0.06   0.11
   2   6    -0.14   0.59   0.09     0.01   0.05   0.09     0.00  -0.04  -0.13
   3   6     0.28  -0.15  -0.15    -0.15   0.05   0.13    -0.07   0.04   0.03
   4   6    -0.19  -0.03   0.19     0.10  -0.06  -0.31     0.12  -0.12   0.14
   5   7     0.07  -0.01  -0.06    -0.03  -0.02   0.17    -0.14   0.06  -0.17
   6   1    -0.03  -0.15  -0.03    -0.17  -0.40  -0.08    -0.11  -0.26  -0.04
   7   1     0.00   0.19  -0.01    -0.03   0.15   0.00     0.03  -0.27   0.01
   8   1    -0.09   0.12  -0.07    -0.08   0.12  -0.04    -0.14   0.39   0.03
   9   1     0.26  -0.07   0.12     0.50   0.00  -0.12     0.18   0.00  -0.02
  10   1     0.14   0.11  -0.06    -0.43  -0.03   0.06     0.14  -0.04   0.00
  11   1    -0.11  -0.05   0.06     0.05  -0.17  -0.08     0.16   0.44   0.01
  12   1    -0.05  -0.01   0.02     0.04   0.04   0.02    -0.18  -0.37  -0.09
  13   1    -0.03  -0.07   0.01     0.04   0.03  -0.08     0.05   0.17   0.10
  14   1    -0.01   0.14   0.06    -0.06  -0.06  -0.08     0.04   0.02   0.07
  15   1    -0.05  -0.06   0.01     0.04   0.19   0.02     0.01  -0.16  -0.04
                     19                     20                     21
                        a                      a                      a 
 Frequencies --  1263.9424              1280.0086              1318.3226
 Red. masses --     2.5928                 2.9068                 3.5198
 Frc consts  --     0.0000                 0.0000                 0.0000
 IR Inten    --    41.1525                52.3205                30.3509
 Raman Activ --     0.0000                 0.0000                 0.0000
 Depolar     --     0.0000                 0.0000                 0.0000
 Atom AN      X      Y      Z        X      Y      Z        X      Y      Z
   1   8     0.05   0.11   0.12     0.18   0.15  -0.01    -0.02  -0.02  -0.00
   2   6    -0.02  -0.14  -0.06    -0.16  -0.15  -0.09     0.00  -0.07   0.02
   3   6    -0.00   0.08  -0.20     0.10   0.05   0.13     0.26  -0.06  -0.02
   4   6    -0.07   0.03   0.07    -0.05   0.00   0.05     0.19   0.25  -0.07
   5   7     0.10  -0.06   0.07     0.02  -0.06  -0.04    -0.08   0.17   0.08
   6   1    -0.13  -0.27  -0.04    -0.20  -0.49  -0.12    -0.03  -0.06  -0.00
   7   1     0.11  -0.34   0.02    -0.27   0.48  -0.08    -0.07   0.12  -0.01
   8   1    -0.20   0.42  -0.02     0.03  -0.21  -0.03    -0.13   0.21  -0.05
   9   1    -0.15   0.02   0.00    -0.26   0.03  -0.00    -0.29   0.00   0.03
  10   1     0.23   0.05  -0.07     0.31  -0.10   0.03    -0.19   0.01   0.01
  11   1    -0.26  -0.33   0.05     0.03   0.08   0.01    -0.24  -0.31   0.02
  12   1     0.22   0.32  -0.00     0.00   0.02   0.02    -0.34  -0.44   0.06
  13   1    -0.01  -0.08  -0.04     0.04   0.04   0.02    -0.10  -0.10  -0.05
  14   1    -0.04   0.05  -0.02    -0.04   0.09   0.01     0.09  -0.24  -0.04
  15   1    -0.04   0.08   0.03    -0.03   0.02  -0.00     0.07  -0.12  -0.00
                     22                     23                     24
                        a                      a                      a 
 Frequencies --  1351.7376              1364.9700              1390.0782
 Red. masses --     4.3671                 2.6765                 4.1578
 Frc consts  --     0.0000                 0.0000                 0.0000
 IR Inten    --    10.8119               150.2923                63.7269
 Raman Activ --     0.0000                 0.0000                 0.0000
 Depolar     --     0.0000                 0.0000                 0.0000
 Atom AN      X      Y      Z        X      Y      Z        X      Y      Z
   1   8     0.02   0.02  -0.00     0.03   0.03   0.02    -0.16  -0.16  -0.07
   2   6     0.02   0.08  -0.06    -0.07   0.07  -0.02     0.32  -0.24   0.07
   3   6    -0.45  -0.02   0.00     0.04  -0.07  -0.02    -0.17   0.06   0.01
   4   6     0.23   0.13   0.01     0.14   0.13  -0.03     0.05  -0.01   0.01
   5   7    -0.06   0.09   0.06    -0.04  -0.27   0.05    -0.02  -0.11  -0.02
   6   1     0.00  -0.01  -0.01     0.02   0.03  -0.00     0.12   0.30   0.05
   7   1    -0.01  -0.03  -0.00     0.06  -0.18   0.02    -0.22   0.48  -0.04
   8   1     0.16  -0.24   0.05     0.05  -0.14  -0.00    -0.17   0.44  -0.02
   9   1     0.34  -0.04   0.04    -0.06  -0.02   0.02     0.08   0.02  -0.04
  10   1     0.53  -0.05  -0.03    -0.03   0.02  -0.01     0.20   0.02  -0.01
  11   1    -0.22  -0.26   0.04    -0.18  -0.14   0.02    -0.07  -0.01   0.01
  12   1    -0.07  -0.15  -0.04    -0.18  -0.23   0.06     0.02   0.02   0.02
  13   1    -0.06  -0.07  -0.06     0.34   0.42  -0.10     0.10   0.14   0.03
  14   1     0.06  -0.14  -0.01    -0.32   0.46  -0.05    -0.05   0.14   0.04
  15   1     0.08  -0.09  -0.01    -0.06   0.21   0.02    -0.01   0.12  -0.00
                     25                     26                     27
                        a                      a                      a 
 Frequencies --  1423.7684              1435.5664              1467.9236
 Red. masses --     1.8987                 1.7308                 1.9342
 Frc consts  --     0.0000                 0.0000                 0.0000
 IR Inten    --   113.8628                77.4912                12.7408
 Raman Activ --     0.0000                 0.0000                 0.0000
 Depolar     --     0.0000                 0.0000                 0.0000
 Atom AN      X      Y      Z        X      Y      Z        X      Y      Z
   1   8    -0.01  -0.01   0.00    -0.01  -0.01  -0.01     0.01   0.01  -0.00
   2   6     0.03  -0.04   0.01     0.02  -0.00   0.00    -0.01   0.01   0.00
   3   6     0.01   0.02   0.01    -0.04   0.04  -0.03    -0.01  -0.21   0.19
   4   6    -0.06  -0.05   0.06     0.04   0.00   0.00    -0.01   0.01   0.04
   5   7     0.02   0.12   0.21     0.21   0.08   0.02     0.04   0.03  -0.01
   6   1     0.01   0.02  -0.01     0.01   0.02   0.01    -0.01  -0.01  -0.00
   7   1    -0.02   0.06  -0.01    -0.00   0.02  -0.00    -0.03  -0.02   0.01
   8   1    -0.02   0.05  -0.00     0.00   0.02   0.01    -0.01  -0.04  -0.03
   9   1    -0.00   0.01  -0.03     0.03  -0.02   0.12    -0.03   0.09  -0.64
  10   1     0.01   0.02  -0.00     0.00  -0.13   0.02     0.09   0.65  -0.07
  11   1     0.11   0.07  -0.00     0.02  -0.01  -0.00     0.06  -0.07   0.00
  12   1     0.05   0.04  -0.07    -0.01  -0.05  -0.04    -0.00  -0.05  -0.10
  13   1     0.09  -0.02  -0.64     0.01   0.05   0.30    -0.01   0.00   0.08
  14   1    -0.27   0.10  -0.30    -0.23  -0.17  -0.50    -0.03  -0.04  -0.08
  15   1     0.13  -0.53   0.01    -0.66  -0.12   0.17    -0.13  -0.01   0.03
                     28                     29                     30
                        a                      a                      a 
 Frequencies --  1478.0635              1489.5554              2884.9171
 Red. masses --     1.8816                 1.9036                 1.9630
 Frc consts  --     0.0000                 0.0000                 0.0000
 IR Inten    --    15.9620                 2.3347                23.7062
 Raman Activ --     0.0000                 0.0000                 0.0000
 Depolar     --     0.0000                 0.0000                 0.0000
 Atom AN      X      Y      Z        X      Y      Z        X      Y      Z
   1   8    -0.01  -0.02  -0.01     0.01   0.03   0.01     0.00   0.00  -0.01
   2   6    -0.09  -0.06  -0.05     0.21   0.08   0.10     0.14   0.04  -0.26
   3   6     0.01   0.02  -0.02     0.00   0.04  -0.02     0.01   0.01   0.02
   4   6    -0.14   0.13   0.16    -0.08   0.05   0.08     0.00  -0.00   0.01
   5   7    -0.03  -0.02  -0.00    -0.01  -0.00  -0.00     0.00  -0.00   0.00
   6   1     0.00   0.00   0.00     0.01   0.02   0.00     0.00  -0.00   0.01
   7   1     0.26   0.15  -0.06    -0.53  -0.26   0.13     0.10   0.11   0.58
   8   1     0.11   0.11   0.26    -0.24  -0.17  -0.53    -0.60  -0.26   0.35
   9   1    -0.02  -0.01   0.07     0.00  -0.00   0.07    -0.00  -0.00   0.00
  10   1    -0.01  -0.07   0.01     0.01  -0.07   0.01    -0.01  -0.01  -0.09
  11   1     0.45  -0.39  -0.03     0.23  -0.18  -0.01    -0.00  -0.00  -0.02
  12   1     0.03  -0.15  -0.58     0.03  -0.06  -0.29    -0.01   0.01  -0.00
  13   1     0.02   0.05   0.03     0.01   0.02   0.01    -0.00   0.00  -0.00
  14   1     0.01   0.04   0.06     0.01   0.01   0.03     0.00  -0.00  -0.00
  15   1     0.03   0.08  -0.01     0.02   0.03  -0.00     0.00  -0.00   0.00
                     31                     32                     33
                        a                      a                      a 
 Frequencies --  2911.7403              2935.3781              2939.6421
 Red. masses --     1.4748                 1.9429                 1.9261
 Frc consts  --     0.0000                 0.0000                 0.0000
 IR Inten    --    29.3777                 2.9433                 5.7112
 Raman Activ --     0.0000                 0.0000                 0.0000
 Depolar     --     0.0000                 0.0000                 0.0000
 Atom AN      X      Y      Z        X      Y      Z        X      Y      Z
   1   8     0.00   0.02   0.00    -0.00  -0.00  -0.00     0.00  -0.00  -0.00
   2   6     0.15   0.07   0.10     0.00   0.00   0.00    -0.02  -0.01  -0.03
   3   6     0.00  -0.03  -0.03    -0.00  -0.00   0.03    -0.02  -0.23  -0.16
   4   6    -0.00   0.00   0.00    -0.19   0.12  -0.18    -0.02   0.01   0.02
   5   7    -0.00   0.00  -0.00     0.01  -0.00   0.00    -0.00   0.00   0.00
   6   1    -0.00   0.00   0.00     0.00  -0.00   0.00    -0.00   0.00   0.00
   7   1    -0.07  -0.12  -0.73     0.00   0.00  -0.00     0.01   0.02   0.13
   8   1    -0.48  -0.21   0.34    -0.01  -0.00   0.01     0.04   0.02  -0.03
   9   1     0.01   0.09   0.01     0.00   0.05   0.01     0.05   0.79   0.12
  10   1     0.01   0.01   0.12    -0.01  -0.02  -0.16     0.03   0.04   0.47
  11   1    -0.00   0.00  -0.01     0.04   0.02   0.50    -0.02   0.00  -0.13
  12   1     0.01  -0.01   0.00     0.63  -0.46   0.16     0.10  -0.08   0.03
  13   1     0.00  -0.00   0.00    -0.03   0.02  -0.01    -0.00   0.00  -0.00
  14   1     0.00   0.00  -0.00     0.00   0.00   0.00     0.00   0.00   0.00
  15   1    -0.00  -0.00   0.00    -0.00  -0.00  -0.01     0.00   0.00   0.00
                     34                     35                     36
                        a                      a                      a 
 Frequencies --  2959.5889              2965.6452              3112.6012
 Red. masses --     1.5155                 1.6160                 1.8949
 Frc consts  --     0.0000                 0.0000                 0.0000
 IR Inten    --     4.9100                15.4551               320.9260
 Raman Activ --     0.0000                 0.0000                 0.0000
 Depolar     --     0.0000                 0.0000                 0.0000
 Atom AN      X      Y      Z        X      Y      Z        X      Y      Z
   1   8     0.00  -0.00  -0.00    -0.00   0.00   0.00     0.00  -0.01   0.00
   2   6    -0.00   0.00  -0.02    -0.00  -0.00   0.02    -0.00   0.00   0.00
   3   6    -0.00   0.11  -0.11     0.00  -0.04   0.16    -0.00  -0.00  -0.00
   4   6    -0.08   0.07   0.10    -0.04   0.04   0.16     0.01  -0.01   0.00
   5   7     0.00  -0.00  -0.00     0.00   0.00  -0.00     0.22  -0.13   0.05
   6   1    -0.00   0.00  -0.00     0.00  -0.00   0.00    -0.02   0.01  -0.00
   7   1     0.01   0.01   0.05    -0.01  -0.01  -0.07    -0.00  -0.00  -0.01
   8   1    -0.01  -0.00   0.00     0.02   0.01  -0.01    -0.00  -0.00   0.00
   9   1    -0.03  -0.46  -0.10     0.02   0.24   0.07     0.00   0.01   0.00
  10   1     0.03   0.08   0.51    -0.04  -0.09  -0.62     0.00  -0.00   0.00
  11   1    -0.07  -0.00  -0.50    -0.08  -0.00  -0.63    -0.00  -0.00   0.00
  12   1     0.35  -0.26   0.12     0.21  -0.15   0.08    -0.03   0.03  -0.01
  13   1    -0.02   0.01  -0.00    -0.01   0.01  -0.00    -0.77   0.55  -0.13
  14   1     0.00   0.00  -0.00    -0.01  -0.00   0.00    -0.03  -0.03   0.03
  15   1     0.01   0.00   0.01     0.00  -0.00   0.01    -0.00  -0.01  -0.09
                     37                     38                     39
                        a                      a                      a 
 Frequencies --  3218.9141              3234.8426              3349.7325
 Red. masses --     1.9536                 1.5436                 1.8751
 Frc consts  --     0.0000                 0.0000                 0.0000
 IR Inten    --    65.0146                34.9294                43.8848
 Raman Activ --     0.0000                 0.0000                 0.0000
 Depolar     --     0.0000                 0.0000                 0.0000
 Atom AN      X      Y      Z        X      Y      Z        X      Y      Z
   1   8     0.00   0.00  -0.00    -0.00   0.00  -0.00    -0.21   0.10  -0.05
   2   6    -0.00  -0.00   0.00     0.00   0.00   0.00    -0.00   0.00  -0.00
   3   6     0.00  -0.00   0.00    -0.00   0.00  -0.00     0.00   0.00  -0.00
   4   6    -0.00  -0.00   0.01     0.00   0.01   0.01     0.00  -0.00   0.00
   5   7    -0.15  -0.09   0.21     0.09   0.05   0.17     0.00  -0.00  -0.00
   6   1    -0.00  -0.00   0.00     0.01  -0.00   0.00     0.85  -0.43   0.19
   7   1    -0.00  -0.00   0.00    -0.00  -0.00  -0.00     0.00  -0.00  -0.00
   8   1     0.00   0.00  -0.00    -0.00  -0.00   0.00     0.00   0.00  -0.00
   9   1    -0.00   0.00  -0.00    -0.00  -0.01  -0.00    -0.00  -0.00  -0.00
  10   1     0.00  -0.00  -0.00     0.00   0.00   0.00     0.00   0.00   0.01
  11   1    -0.00   0.00  -0.01    -0.00   0.00  -0.02    -0.00   0.00  -0.00
  12   1     0.00   0.00  -0.00     0.00  -0.00  -0.00     0.00   0.00   0.00
  13   1    -0.03   0.01   0.02     0.10  -0.06   0.03    -0.02   0.01  -0.00
  14   1     0.68   0.36  -0.47    -0.25  -0.13   0.20     0.00   0.00  -0.00
  15   1    -0.10  -0.01  -0.31    -0.21  -0.01  -0.88     0.00   0.00   0.01
