 Entering Gaussian System
 *********************************************
 Gaussian 98:
 frequency output generated by the xtb code
 *********************************************
                         Standard orientation:
 --------------------------------------------------------------------
  Center     Atomic     Atomic              Coordinates (Angstroms)
  Number     Number      Type              X           Y           Z
 --------------------------------------------------------------------
    1          7             0       -3.333528   -0.771475   -1.098697
    2          6             0       -3.284079    0.542787   -0.396990
    3          6             0       -2.420435    0.509514    0.863138
    4          6             0       -0.970377    0.242256    0.582553
    5          6             0       -0.127513    1.266711    0.172978
    6          6             0        1.203325    1.032074   -0.092976
    7          6             0        1.739779   -0.248579    0.037434
    8          8             0        3.067306   -0.592766   -0.204760
    9          6             0        3.932391    0.468579   -0.533245
   10          6             0        0.885975   -1.275704    0.440769
   11          6             0       -0.441793   -1.034717    0.707653
   12          1             0       -3.918521   -0.729893   -1.947325
   13          1             0       -3.727140   -1.503261   -0.488684
   14          1             0       -2.391661   -1.076600   -1.385730
   15          1             0       -4.307576    0.852542   -0.148836
   16          1             0       -2.901267    1.304603   -1.086442
   17          1             0       -2.801996   -0.256023    1.547370
   18          1             0       -2.506398    1.455606    1.410206
   19          1             0       -0.525528    2.263363    0.071278
   20          1             0        1.833738    1.846860   -0.403900
   21          1             0        3.946438    1.196970    0.280254
   22          1             0        3.615640    0.925369   -1.473134
   23          1             0        4.933918    0.048943   -0.657317
   24          1             0        1.300670   -2.265446    0.544709
   25          1             0       -1.079376   -1.842473    1.028537
 --------------------------------------------------------------------
     1 basis functions        1 primitive gaussians
     1 alpha electrons        1 beta electrons

 Harmonic frequencies (cm**-1), IR intensities (km*mol⁻¹),
 Raman scattering activities (A**4/amu), Raman depolarization ratios,
 reduced masses (AMU), force constants (mDyne/A) and normal coordinates:
                      1                      2                      3
                        a                      a                      a 
 Frequencies --    12.9183                65.6683                84.9413
 Red. masses --     9.7932                 9.8841                 9.7037
 Frc consts  --     0.0000                 0.0000                 0.0000
 IR Inten    --    13.6857                21.3379                18.6043
 Raman Activ --     0.0000                 0.0000                 0.0000
 Depolar     --     0.0000                 0.0000                 0.0000
 Atom AN      X      Y      Z        X      Y      Z        X      Y      Z
   1   7    -0.12   0.35  -0.30     0.52  -0.00  -0.18     0.48   0.09   0.01
   2   6    -0.00   0.14   0.07     0.12  -0.03  -0.10    -0.04  -0.01   0.20
   3   6    -0.00  -0.22   0.05    -0.07   0.02   0.04    -0.00   0.04   0.17
   4   6     0.01  -0.16   0.03    -0.05   0.04   0.17    -0.04   0.02   0.02
   5   6    -0.10  -0.16  -0.19    -0.03   0.05   0.23    -0.09  -0.03  -0.23
   6   6    -0.09  -0.09  -0.18    -0.05   0.03   0.18    -0.12  -0.07  -0.32
   7   6     0.04  -0.01   0.07    -0.08   0.00   0.08    -0.10  -0.05  -0.19
   8   8     0.07   0.07   0.10    -0.12  -0.02  -0.02    -0.11  -0.05  -0.18
   9   6    -0.05   0.07  -0.16    -0.18  -0.09  -0.43     0.01   0.03   0.36
  10   6     0.15  -0.00   0.32    -0.08   0.01   0.09    -0.07  -0.01  -0.04
  11   6     0.14  -0.08   0.30    -0.07   0.02   0.12    -0.04   0.02   0.07
  12   1    -0.08   0.16  -0.05     0.24  -0.00  -0.12     0.19   0.01  -0.04
  13   1     0.01   0.04  -0.12     0.08  -0.01  -0.10     0.14  -0.03  -0.05
  14   1    -0.05   0.11  -0.16     0.18   0.02   0.07     0.18   0.11   0.07
  15   1     0.00   0.04   0.04     0.01  -0.06  -0.08    -0.04  -0.11   0.07
  16   1     0.01   0.08   0.07     0.04   0.02   0.00    -0.08   0.06   0.09
  17   1    -0.01  -0.11  -0.04    -0.04   0.01  -0.00     0.02   0.01   0.06
  18   1     0.00  -0.10   0.09    -0.04   0.01   0.00     0.01   0.01   0.05
  19   1    -0.06  -0.06  -0.11    -0.00   0.02   0.09    -0.03  -0.01  -0.09
  20   1    -0.05  -0.03  -0.11    -0.01   0.01   0.06    -0.04  -0.03  -0.14
  21   1    -0.03   0.07  -0.09    -0.00   0.03  -0.18    -0.06  -0.06   0.16
  22   1    -0.03  -0.05  -0.07    -0.11  -0.09  -0.14     0.08   0.09   0.12
  23   1    -0.00   0.04  -0.02    -0.06  -0.03  -0.16     0.01   0.01   0.14
  24   1     0.07   0.02   0.15    -0.03  -0.00   0.01    -0.02  -0.00   0.01
  25   1     0.06  -0.02   0.13    -0.02   0.01   0.03    -0.00   0.02   0.07
                      4                      5                      6
                        a                      a                      a 
 Frequencies --   134.7124               155.6530               199.7086
 Red. masses --     5.4846                 8.2384                 7.3375
 Frc consts  --     0.0000                 0.0000                 0.0000
 IR Inten    --     1.8534                 2.8971                 0.9092
 Raman Activ --     0.0000                 0.0000                 0.0000
 Depolar     --     0.0000                 0.0000                 0.0000
 Atom AN      X      Y      Z        X      Y      Z        X      Y      Z
   1   7     0.11   0.01  -0.10     0.05   0.09   0.16     0.14   0.04   0.19
   2   6    -0.32  -0.13   0.22    -0.11   0.06   0.17     0.26   0.18  -0.12
   3   6     0.01   0.03  -0.00     0.03   0.00   0.07     0.07   0.16  -0.00
   4   6    -0.01   0.08  -0.16    -0.03  -0.06  -0.18     0.01  -0.11   0.05
   5   6     0.05   0.07  -0.05    -0.03  -0.06  -0.18    -0.01  -0.13  -0.02
   6   6     0.08   0.04   0.07    -0.01  -0.04  -0.07    -0.05  -0.15  -0.07
   7   6     0.04   0.03   0.10     0.04  -0.00   0.09    -0.04  -0.14   0.00
   8   8     0.05  -0.03   0.23     0.13   0.09   0.47     0.04   0.07   0.17
   9   6     0.06  -0.14  -0.11    -0.03   0.03  -0.12    -0.28   0.28  -0.01
  10   6    -0.03   0.03  -0.03    -0.01  -0.05  -0.14    -0.06  -0.17  -0.11
  11   6    -0.04   0.06  -0.16    -0.05  -0.09  -0.31    -0.07  -0.15  -0.09
  12   1    -0.23  -0.07   0.14     0.28   0.08  -0.14    -0.20  -0.11   0.21
  13   1     0.38  -0.14   0.03    -0.26   0.07  -0.08     0.28   0.01   0.21
  14   1     0.02   0.25  -0.33     0.08  -0.07   0.35    -0.01   0.09  -0.19
  15   1    -0.11  -0.20   0.17    -0.03  -0.01   0.06     0.08   0.12  -0.09
  16   1    -0.26   0.06   0.08    -0.05   0.03   0.06     0.14  -0.00  -0.06
  17   1     0.06   0.01   0.04     0.03  -0.00   0.03    -0.04   0.09   0.01
  18   1     0.00   0.02  -0.02     0.05  -0.01   0.03     0.07   0.07  -0.03
  19   1     0.03   0.03  -0.01    -0.01  -0.02  -0.06    -0.00  -0.04  -0.01
  20   1     0.04   0.01   0.04    -0.00  -0.01  -0.02    -0.02  -0.05  -0.04
  21   1     0.04   0.02  -0.08    -0.05   0.14  -0.15    -0.18   0.14  -0.06
  22   1    -0.00  -0.10  -0.06    -0.02  -0.16  -0.11    -0.09  -0.02  -0.05
  23   1     0.01  -0.06  -0.02     0.01   0.03   0.05    -0.03   0.17   0.07
  24   1    -0.02   0.01  -0.01    -0.01  -0.02  -0.05    -0.03  -0.05  -0.05
  25   1    -0.03   0.02  -0.07    -0.02  -0.03  -0.13    -0.03  -0.04  -0.04
                      7                      8                      9
                        a                      a                      a 
 Frequencies --   243.8497               274.8447               317.2929
 Red. masses --     7.4450                 5.8733                 8.3555
 Frc consts  --     0.0000                 0.0000                 0.0000
 IR Inten    --     2.4937                 6.4552                14.1505
 Raman Activ --     0.0000                 0.0000                 0.0000
 Depolar     --     0.0000                 0.0000                 0.0000
 Atom AN      X      Y      Z        X      Y      Z        X      Y      Z
   1   7    -0.01  -0.04  -0.01    -0.14  -0.06  -0.21    -0.09  -0.07  -0.19
   2   6     0.24  -0.03  -0.03    -0.10  -0.16   0.05     0.21  -0.19   0.10
   3   6    -0.04  -0.19   0.16     0.05   0.08  -0.00     0.12  -0.11   0.18
   4   6    -0.00   0.04   0.21     0.09   0.16   0.12     0.15   0.24   0.15
   5   6    -0.12   0.09   0.07     0.20   0.09   0.18     0.10   0.16  -0.13
   6   6    -0.15   0.16  -0.19     0.12  -0.12  -0.04     0.06  -0.03  -0.17
   7   6    -0.08   0.19  -0.11     0.02  -0.16  -0.09    -0.05  -0.06  -0.01
   8   8    -0.09   0.04   0.19     0.06  -0.08  -0.11    -0.02  -0.06   0.30
   9   6     0.23  -0.28   0.01    -0.17   0.16   0.04    -0.24   0.04   0.02
  10   6    -0.03   0.12  -0.20    -0.04  -0.07   0.02    -0.13  -0.05  -0.19
  11   6     0.00   0.03  -0.05     0.00   0.12   0.09    -0.02   0.17   0.00
  12   1    -0.10  -0.00   0.06     0.02   0.07  -0.09    -0.04   0.10  -0.03
  13   1     0.06  -0.01   0.04    -0.12  -0.04  -0.14    -0.07  -0.04  -0.10
  14   1    -0.04  -0.03  -0.11    -0.03  -0.05  -0.02    -0.06  -0.08  -0.11
  15   1     0.08   0.07  -0.08    -0.03  -0.09   0.07     0.07  -0.02   0.02
  16   1     0.17  -0.04   0.01    -0.09  -0.01   0.02     0.10  -0.05   0.05
  17   1    -0.02  -0.11  -0.02     0.04   0.05   0.04     0.09  -0.07   0.03
  18   1    -0.07  -0.09   0.10    -0.02   0.05  -0.05    -0.05  -0.05   0.06
  19   1    -0.06   0.02   0.04     0.10   0.05   0.07     0.05   0.05  -0.07
  20   1    -0.06   0.04  -0.11     0.04  -0.06  -0.06     0.04  -0.03  -0.07
  21   1    -0.06   0.08  -0.14    -0.38   0.21  -0.13     0.12  -0.09   0.10
  22   1     0.25  -0.26  -0.15     0.13  -0.19  -0.16    -0.28   0.14   0.14
  23   1     0.07  -0.14   0.27     0.05   0.18   0.37    -0.10   0.02  -0.28
  24   1     0.01   0.04  -0.10    -0.05  -0.03   0.01    -0.07  -0.03  -0.09
  25   1     0.01  -0.01  -0.04    -0.02   0.05   0.02    -0.04   0.08   0.00
                     10                     11                     12
                        a                      a                      a 
 Frequencies --   356.3482               377.0845               393.5756
 Red. masses --     9.1924                 8.9184                 9.2896
 Frc consts  --     0.0000                 0.0000                 0.0000
 IR Inten    --     9.0676                 0.0393                 0.7356
 Raman Activ --     0.0000                 0.0000                 0.0000
 Depolar     --     0.0000                 0.0000                 0.0000
 Atom AN      X      Y      Z        X      Y      Z        X      Y      Z
   1   7     0.08   0.03   0.17    -0.01  -0.01  -0.01    -0.05  -0.03  -0.14
   2   6     0.11   0.07   0.02    -0.01  -0.01  -0.00     0.16  -0.14   0.12
   3   6     0.10  -0.35  -0.05    -0.02   0.01   0.01     0.34   0.22   0.00
   4   6     0.09   0.09  -0.34    -0.01   0.01   0.03     0.17  -0.21  -0.10
   5   6     0.07   0.18  -0.13     0.09   0.07   0.40    -0.04  -0.03  -0.02
   6   6     0.11   0.11   0.12    -0.10  -0.10  -0.43    -0.02   0.24   0.02
   7   6    -0.06   0.03   0.11     0.01  -0.01  -0.02    -0.15   0.21   0.06
   8   8    -0.23  -0.15  -0.14     0.03   0.01   0.02    -0.34   0.01  -0.00
   9   6    -0.29  -0.04   0.07     0.02   0.01   0.00    -0.18  -0.12   0.06
  10   6     0.03   0.04   0.24     0.09   0.08   0.39     0.09   0.03   0.07
  11   6    -0.00   0.09  -0.17    -0.10  -0.07  -0.39     0.05  -0.25  -0.05
  12   1     0.00  -0.04   0.05    -0.01  -0.00  -0.00    -0.01   0.11  -0.03
  13   1     0.05   0.03   0.09     0.00  -0.00  -0.00    -0.07  -0.03  -0.10
  14   1     0.02   0.01   0.04    -0.00   0.00  -0.01    -0.04  -0.05  -0.07
  15   1     0.04   0.05  -0.00    -0.00  -0.00  -0.00     0.05  -0.05   0.09
  16   1     0.07   0.01   0.02    -0.00  -0.00  -0.00    -0.01  -0.03   0.02
  17   1     0.10  -0.26  -0.15    -0.01   0.01   0.01     0.07   0.23   0.16
  18   1    -0.03  -0.21   0.17    -0.00   0.01  -0.00     0.20   0.18  -0.18
  19   1     0.02   0.05  -0.03     0.06   0.05   0.24    -0.09  -0.04   0.02
  20   1     0.06   0.02   0.06    -0.06  -0.05  -0.24    -0.01   0.07   0.02
  21   1    -0.20   0.01   0.00     0.08  -0.05   0.05    -0.06  -0.02   0.01
  22   1    -0.03  -0.05  -0.02    -0.04   0.07   0.05    -0.01  -0.04   0.00
  23   1    -0.05   0.05   0.12    -0.01  -0.01  -0.10    -0.06  -0.06   0.05
  24   1     0.02   0.02   0.12     0.05   0.04   0.23     0.12   0.05   0.01
  25   1    -0.03   0.05  -0.06    -0.06  -0.05  -0.24     0.02  -0.07  -0.03
                     13                     14                     15
                        a                      a                      a 
 Frequencies --   450.4722               507.1895               533.6399
 Red. masses --    10.0844                10.3525                 9.0118
 Frc consts  --     0.0000                 0.0000                 0.0000
 IR Inten    --     0.8227                 4.1347                 4.4339
 Raman Activ --     0.0000                 0.0000                 0.0000
 Depolar     --     0.0000                 0.0000                 0.0000
 Atom AN      X      Y      Z        X      Y      Z        X      Y      Z
   1   7     0.02   0.05   0.10     0.00   0.00   0.01     0.01  -0.03  -0.05
   2   6    -0.22   0.12  -0.11     0.08  -0.02   0.05     0.15  -0.08   0.11
   3   6     0.04  -0.08  -0.26     0.18  -0.05  -0.06    -0.12   0.05   0.24
   4   6     0.11  -0.10  -0.02     0.07   0.02  -0.29    -0.26  -0.07  -0.35
   5   6     0.10   0.04   0.27     0.03   0.16   0.07    -0.07  -0.08   0.02
   6   6     0.03   0.13  -0.19    -0.08  -0.14   0.03     0.00   0.03   0.09
   7   6    -0.07   0.06  -0.36    -0.29  -0.21  -0.20     0.06  -0.03  -0.43
   8   8    -0.07  -0.10   0.29    -0.13   0.41   0.09     0.23  -0.20   0.10
   9   6    -0.21  -0.08   0.07     0.25   0.09  -0.06    -0.04  -0.01   0.02
  10   6     0.10   0.02  -0.20    -0.16  -0.29   0.07     0.01   0.23   0.05
  11   6     0.21  -0.04   0.25    -0.10  -0.01   0.13    -0.05   0.08  -0.03
  12   1     0.04  -0.10  -0.00    -0.00   0.02   0.01    -0.03   0.08   0.01
  13   1     0.03   0.04   0.07    -0.01   0.00  -0.01    -0.01  -0.03  -0.05
  14   1     0.04   0.06   0.10    -0.01  -0.01  -0.01    -0.03  -0.03  -0.08
  15   1    -0.06  -0.03   0.05     0.03  -0.01   0.04     0.03   0.06  -0.10
  16   1    -0.16   0.06  -0.05     0.01  -0.00   0.01     0.18  -0.06   0.06
  17   1    -0.01  -0.06  -0.12     0.09  -0.03  -0.02    -0.01   0.07   0.13
  18   1     0.01  -0.06  -0.01     0.06  -0.03   0.01     0.02   0.06  -0.00
  19   1     0.01   0.01   0.18     0.05   0.07   0.14     0.04   0.02   0.18
  20   1     0.00   0.06   0.00     0.09  -0.08   0.13    -0.00   0.09   0.24
  21   1    -0.03  -0.02   0.02     0.18   0.05  -0.05    -0.06   0.01   0.00
  22   1    -0.14  -0.03   0.04     0.15   0.03  -0.04    -0.08  -0.03   0.01
  23   1    -0.06   0.01  -0.05     0.01  -0.13   0.01     0.02   0.09  -0.01
  24   1     0.10   0.04  -0.02    -0.04  -0.07   0.14     0.03   0.10   0.22
  25   1     0.10  -0.01   0.17    -0.07   0.08   0.16     0.07   0.03   0.16
                     16                     17                     18
                        a                      a                      a 
 Frequencies --   608.4233               676.6133               711.9952
 Red. masses --    11.1980                11.0664                10.3586
 Frc consts  --     0.0000                 0.0000                 0.0000
 IR Inten    --     0.0538                 2.7423                58.3094
 Raman Activ --     0.0000                 0.0000                 0.0000
 Depolar     --     0.0000                 0.0000                 0.0000
 Atom AN      X      Y      Z        X      Y      Z        X      Y      Z
   1   7     0.00  -0.01   0.01    -0.02  -0.00  -0.01     0.02   0.03   0.04
   2   6     0.01  -0.01   0.01    -0.07   0.03  -0.07     0.14  -0.00   0.00
   3   6     0.03  -0.06  -0.02    -0.04   0.03   0.01     0.33  -0.05  -0.24
   4   6     0.00  -0.10   0.02     0.14   0.10   0.49     0.11  -0.01   0.11
   5   6     0.33  -0.32  -0.00     0.00  -0.08  -0.30    -0.29   0.16   0.01
   6   6     0.38   0.18  -0.13     0.13   0.06   0.24    -0.27   0.06   0.10
   7   6    -0.02   0.10  -0.01    -0.13  -0.09  -0.47    -0.02   0.00  -0.08
   8   8    -0.01   0.08  -0.02    -0.07   0.09   0.09     0.37  -0.27  -0.02
   9   6     0.06   0.08  -0.03    -0.02  -0.01   0.01     0.12   0.04  -0.03
  10   6    -0.37   0.29   0.02     0.11  -0.02   0.25    -0.19   0.13   0.06
  11   6    -0.43  -0.21   0.15    -0.02  -0.09  -0.30    -0.24  -0.07   0.03
  12   1     0.00   0.00   0.00     0.00  -0.04  -0.01    -0.01   0.03   0.02
  13   1    -0.00  -0.00   0.00     0.00   0.01   0.02    -0.04   0.05   0.04
  14   1    -0.00  -0.01  -0.00     0.00   0.01   0.02    -0.02  -0.07  -0.00
  15   1     0.00  -0.01   0.02    -0.02  -0.03   0.02     0.05  -0.13   0.21
  16   1    -0.01   0.00   0.00    -0.08   0.03  -0.03    -0.18   0.07  -0.04
  17   1     0.03  -0.07  -0.05    -0.04  -0.02  -0.04     0.07  -0.04  -0.11
  18   1    -0.02  -0.06   0.06    -0.08  -0.01   0.03     0.07  -0.04  -0.03
  19   1     0.05  -0.10   0.00     0.01  -0.02  -0.08    -0.15   0.01  -0.01
  20   1     0.07   0.07  -0.04     0.07   0.02   0.15    -0.11   0.04   0.00
  21   1     0.03   0.02  -0.01     0.03   0.01  -0.01    -0.05  -0.00   0.01
  22   1     0.03   0.02  -0.01     0.01  -0.01  -0.01    -0.05  -0.00   0.01
  23   1     0.01  -0.00  -0.00    -0.02  -0.04   0.01     0.09   0.15  -0.04
  24   1    -0.07   0.09  -0.01     0.07   0.02   0.16    -0.07   0.02   0.00
  25   1    -0.10  -0.08   0.04     0.00  -0.02  -0.05    -0.10  -0.00  -0.01
                     19                     20                     21
                        a                      a                      a 
 Frequencies --   804.9682               810.9446               848.8229
 Red. masses --     4.9348                 7.1948                 7.8026
 Frc consts  --     0.0000                 0.0000                 0.0000
 IR Inten    --    35.2092                22.3873                30.5545
 Raman Activ --     0.0000                 0.0000                 0.0000
 Depolar     --     0.0000                 0.0000                 0.0000
 Atom AN      X      Y      Z        X      Y      Z        X      Y      Z
   1   7    -0.05   0.04   0.03    -0.10  -0.01  -0.03     0.08  -0.18  -0.13
   2   6    -0.12  -0.05   0.06    -0.19   0.00  -0.02    -0.01   0.18  -0.06
   3   6    -0.04  -0.12  -0.01    -0.04  -0.05   0.08    -0.16   0.28   0.29
   4   6     0.04  -0.03  -0.13     0.18   0.00   0.12     0.00  -0.04  -0.16
   5   6     0.03   0.16   0.11    -0.04   0.25  -0.15     0.02   0.17   0.01
   6   6     0.08   0.16   0.21     0.01   0.22  -0.21     0.10   0.26   0.00
   7   6    -0.13  -0.05  -0.28    -0.08   0.06   0.22    -0.14   0.02  -0.02
   8   8     0.10  -0.05   0.06     0.17  -0.15  -0.07     0.12  -0.10   0.00
   9   6     0.04   0.03  -0.01     0.08   0.04  -0.03     0.06   0.03  -0.02
  10   6     0.00  -0.05   0.18    -0.05  -0.23  -0.05     0.07  -0.27   0.06
  11   6    -0.02  -0.05   0.15    -0.11  -0.25  -0.04    -0.00  -0.21   0.08
  12   1     0.05  -0.03  -0.04     0.06  -0.11  -0.07    -0.07  -0.01   0.03
  13   1     0.08  -0.12  -0.08     0.10  -0.12  -0.07    -0.10   0.11   0.08
  14   1     0.07   0.22   0.07     0.09   0.24   0.10    -0.09  -0.31  -0.12
  15   1    -0.00   0.21  -0.14    -0.02   0.21  -0.14    -0.08  -0.17  -0.05
  16   1     0.21  -0.13   0.02     0.16  -0.11  -0.01    -0.14   0.13   0.00
  17   1     0.01   0.07   0.12    -0.01   0.04   0.08    -0.04  -0.09  -0.10
  18   1     0.06   0.04  -0.12    -0.01   0.02  -0.04    -0.07  -0.05   0.30
  19   1    -0.10  -0.03  -0.29    -0.02   0.09   0.20    -0.07   0.02  -0.05
  20   1    -0.05  -0.06  -0.38     0.12   0.09   0.23     0.03   0.01  -0.16
  21   1     0.00   0.00   0.00    -0.04  -0.00   0.00    -0.02  -0.00   0.01
  22   1    -0.02   0.01   0.01    -0.02   0.00   0.00    -0.02   0.00   0.01
  23   1     0.02   0.04  -0.04     0.06   0.10  -0.01     0.04   0.07  -0.03
  24   1    -0.05  -0.07  -0.24     0.09  -0.00   0.16     0.09  -0.06  -0.06
  25   1    -0.11  -0.06  -0.27    -0.03   0.02   0.22    -0.05  -0.04  -0.02
                     22                     23                     24
                        a                      a                      a 
 Frequencies --   861.6082               872.9888               901.4049
 Red. masses --     3.2992                 5.1426                 4.3713
 Frc consts  --     0.0000                 0.0000                 0.0000
 IR Inten    --     1.1450                15.6583                21.2176
 Raman Activ --     0.0000                 0.0000                 0.0000
 Depolar     --     0.0000                 0.0000                 0.0000
 Atom AN      X      Y      Z        X      Y      Z        X      Y      Z
   1   7     0.01  -0.01   0.01    -0.10  -0.29  -0.01    -0.09  -0.09  -0.24
   2   6    -0.00   0.01   0.00    -0.06   0.18   0.05    -0.07   0.14  -0.06
   3   6    -0.01   0.02   0.01     0.22   0.35   0.04     0.17  -0.06   0.19
   4   6     0.00  -0.00  -0.01     0.00  -0.00  -0.02     0.03  -0.01  -0.03
   5   6    -0.04  -0.02  -0.17    -0.05  -0.11   0.04    -0.06  -0.05  -0.20
   6   6    -0.04  -0.02  -0.21    -0.10  -0.11   0.06    -0.01  -0.06   0.17
   7   6    -0.02  -0.01  -0.05     0.05   0.01  -0.02     0.05  -0.01  -0.00
   8   8     0.01  -0.01   0.00    -0.03   0.03   0.01    -0.02   0.02   0.01
   9   6     0.00   0.00   0.00    -0.02  -0.02   0.01    -0.02  -0.01   0.01
  10   6     0.04   0.02   0.20     0.01   0.10  -0.01    -0.01   0.14   0.11
  11   6     0.06   0.04   0.27     0.01   0.01  -0.00    -0.03   0.03  -0.06
  12   1     0.00   0.02   0.00     0.07   0.07  -0.06     0.01  -0.37  -0.11
  13   1    -0.01  -0.00  -0.01     0.06  -0.35  -0.28     0.06   0.12   0.16
  14   1    -0.01  -0.01  -0.01     0.07   0.23  -0.01     0.04   0.01   0.11
  15   1    -0.00  -0.01  -0.00     0.03   0.18   0.01    -0.01   0.03   0.01
  16   1    -0.00   0.00   0.00     0.01  -0.15  -0.19     0.00   0.09   0.05
  17   1     0.01  -0.01  -0.01     0.09  -0.18  -0.27     0.06   0.02   0.10
  18   1    -0.01  -0.00   0.02     0.00  -0.12   0.37     0.11   0.01   0.02
  19   1     0.06   0.06   0.30    -0.02  -0.04   0.00     0.12   0.09   0.45
  20   1     0.11   0.09   0.44    -0.07  -0.01  -0.01    -0.09  -0.08  -0.30
  21   1     0.00   0.01  -0.00     0.00  -0.00  -0.00     0.01  -0.00   0.00
  22   1    -0.00  -0.01  -0.00     0.00  -0.00   0.00     0.01   0.00   0.00
  23   1     0.01   0.01   0.02    -0.01  -0.02   0.00    -0.01  -0.02  -0.01
  24   1    -0.08  -0.08  -0.37    -0.01   0.02  -0.02    -0.10  -0.04  -0.29
  25   1    -0.13  -0.12  -0.54     0.03  -0.02   0.00     0.05   0.04   0.19
                     25                     26                     27
                        a                      a                      a 
 Frequencies --   905.4530               918.5803              1001.5779
 Red. masses --     4.7694                 3.8006                 8.7713
 Frc consts  --     0.0000                 0.0000                 0.0000
 IR Inten    --    33.2283                 0.9964                 4.3148
 Raman Activ --     0.0000                 0.0000                 0.0000
 Depolar     --     0.0000                 0.0000                 0.0000
 Atom AN      X      Y      Z        X      Y      Z        X      Y      Z
   1   7    -0.09  -0.12  -0.27     0.00   0.01   0.01    -0.11  -0.01  -0.04
   2   6    -0.07   0.18  -0.04     0.01  -0.01   0.00     0.19   0.00   0.02
   3   6     0.18  -0.05   0.22    -0.02   0.00  -0.00     0.04  -0.01  -0.02
   4   6     0.04  -0.01  -0.02    -0.01  -0.00  -0.02    -0.20   0.02   0.01
   5   6     0.04   0.02   0.21     0.05   0.04   0.19     0.01  -0.37   0.07
   6   6    -0.08  -0.11  -0.10    -0.04  -0.04  -0.19     0.10   0.33  -0.09
   7   6     0.04  -0.02  -0.03    -0.00  -0.00  -0.02    -0.18   0.03   0.03
   8   8    -0.02   0.01  -0.01     0.00   0.00   0.01    -0.02  -0.11   0.02
   9   6    -0.01  -0.00   0.00    -0.00  -0.00   0.00     0.14   0.06  -0.04
  10   6    -0.06   0.09  -0.08     0.08   0.06   0.31     0.01  -0.34   0.07
  11   6     0.00   0.06   0.06    -0.06  -0.06  -0.25     0.13   0.36  -0.10
  12   1     0.01  -0.41  -0.12    -0.01   0.02   0.01     0.04  -0.14  -0.07
  13   1     0.05   0.13   0.17    -0.00  -0.00  -0.00     0.06  -0.04   0.00
  14   1     0.04  -0.01   0.11    -0.00  -0.01  -0.01     0.05   0.13   0.10
  15   1    -0.02   0.04  -0.01     0.00  -0.01  -0.00     0.10  -0.01   0.21
  16   1     0.00   0.09   0.06    -0.00  -0.00  -0.00    -0.08   0.02  -0.04
  17   1     0.07   0.02   0.11    -0.01   0.00  -0.01    -0.03   0.00  -0.02
  18   1     0.13   0.01   0.04     0.00  -0.00   0.00    -0.01   0.01  -0.02
  19   1    -0.10  -0.09  -0.43    -0.06  -0.05  -0.29    -0.12  -0.14   0.06
  20   1     0.04   0.04   0.29     0.07   0.06   0.28    -0.09   0.18  -0.02
  21   1     0.00   0.00  -0.00     0.00   0.01  -0.01    -0.03   0.00   0.00
  22   1     0.00  -0.01  -0.00    -0.01  -0.01  -0.00    -0.03   0.00   0.01
  23   1    -0.01  -0.01   0.01     0.00   0.00   0.01     0.07   0.10  -0.03
  24   1     0.01   0.06   0.22    -0.12  -0.11  -0.56    -0.15  -0.15   0.05
  25   1    -0.04  -0.03  -0.19     0.10   0.10   0.45    -0.07   0.18  -0.02
                     28                     29                     30
                        a                      a                      a 
 Frequencies --  1009.9630              1037.7076              1061.1854
 Red. masses --     8.6744                 5.8047                10.4989
 Frc consts  --     0.0000                 0.0000                 0.0000
 IR Inten    --    23.0463                 6.4725                42.4977
 Raman Activ --     0.0000                 0.0000                 0.0000
 Depolar     --     0.0000                 0.0000                 0.0000
 Atom AN      X      Y      Z        X      Y      Z        X      Y      Z
   1   7    -0.12   0.40   0.04     0.19   0.06   0.02    -0.02  -0.01   0.00
   2   6     0.05  -0.52  -0.27    -0.41  -0.06  -0.02     0.06   0.01   0.01
   3   6     0.09   0.27   0.18     0.22   0.05  -0.05    -0.05  -0.00   0.01
   4   6    -0.02   0.04  -0.09     0.11   0.03   0.07     0.00   0.01  -0.02
   5   6    -0.01  -0.02   0.03    -0.01  -0.24   0.04     0.06   0.02  -0.02
   6   6    -0.04  -0.04   0.02    -0.07   0.03   0.00    -0.03  -0.17   0.04
   7   6     0.02   0.02  -0.01    -0.07   0.03   0.01    -0.18   0.03   0.03
   8   8     0.00   0.01  -0.00    -0.08  -0.08   0.03    -0.43  -0.35   0.14
   9   6    -0.01  -0.02   0.00     0.12   0.06  -0.03     0.44   0.31  -0.13
  10   6     0.03  -0.01   0.00    -0.04  -0.04   0.01     0.01   0.15  -0.03
  11   6    -0.01  -0.10   0.04     0.06   0.15  -0.06     0.07  -0.04  -0.01
  12   1     0.01  -0.13  -0.03    -0.07   0.14   0.09     0.01  -0.01  -0.01
  13   1     0.06   0.16   0.14    -0.08   0.12   0.05     0.01  -0.02  -0.01
  14   1     0.05   0.19   0.16    -0.07  -0.23  -0.13     0.01   0.03   0.01
  15   1     0.03  -0.11  -0.02    -0.18   0.08  -0.40     0.02  -0.01   0.05
  16   1    -0.03  -0.10  -0.06     0.21  -0.07   0.10    -0.03   0.01  -0.01
  17   1     0.23  -0.13  -0.06     0.32  -0.07   0.04    -0.05   0.01  -0.01
  18   1    -0.27  -0.02   0.15     0.09  -0.03   0.06    -0.03   0.01  -0.01
  19   1    -0.03  -0.02  -0.02    -0.08  -0.10   0.06     0.15   0.05  -0.05
  20   1    -0.03   0.00  -0.00    -0.11   0.08   0.02     0.07  -0.12   0.01
  21   1    -0.01  -0.00   0.00    -0.03   0.00   0.00    -0.06   0.02   0.01
  22   1    -0.01  -0.00   0.00    -0.03   0.00   0.01    -0.07   0.02   0.01
  23   1     0.00   0.00   0.00     0.06   0.08  -0.02     0.19   0.28  -0.08
  24   1     0.06   0.02  -0.02    -0.08  -0.04   0.03     0.19   0.12  -0.07
  25   1     0.02  -0.06  -0.02    -0.03   0.09   0.01     0.10  -0.07  -0.01
                     31                     32                     33
                        a                      a                      a 
 Frequencies --  1070.9450              1133.0797              1142.8464
 Red. masses --     6.7600                 4.1912                 3.7534
 Frc consts  --     0.0000                 0.0000                 0.0000
 IR Inten    --    10.5152                 9.1084                 2.0716
 Raman Activ --     0.0000                 0.0000                 0.0000
 Depolar     --     0.0000                 0.0000                 0.0000
 Atom AN      X      Y      Z        X      Y      Z        X      Y      Z
   1   7     0.01   0.09   0.17     0.00   0.01  -0.04     0.00  -0.00   0.00
   2   6    -0.10  -0.05  -0.46     0.01  -0.04   0.11    -0.00   0.00  -0.00
   3   6     0.12  -0.19   0.38    -0.04   0.10  -0.08     0.00  -0.00   0.00
   4   6     0.03  -0.11  -0.00     0.01  -0.15   0.03    -0.00   0.00   0.00
   5   6     0.02   0.06  -0.02    -0.07   0.15  -0.01     0.00  -0.01   0.00
   6   6     0.03   0.04  -0.01     0.10   0.12  -0.05    -0.00  -0.00   0.00
   7   6    -0.01  -0.05   0.01     0.04  -0.16   0.02    -0.02   0.00  -0.00
   8   8    -0.03  -0.03   0.01    -0.09  -0.18   0.05     0.05   0.03   0.22
   9   6     0.01   0.04  -0.01    -0.02   0.23  -0.04    -0.08  -0.06  -0.41
  10   6    -0.05   0.07   0.00    -0.05   0.13  -0.01     0.00  -0.00  -0.00
  11   6     0.03   0.12  -0.02     0.13   0.02  -0.04    -0.00   0.00  -0.00
  12   1     0.01   0.20   0.05    -0.01  -0.04  -0.01     0.00   0.00  -0.00
  13   1    -0.03  -0.09  -0.10     0.01   0.04   0.04    -0.00  -0.00  -0.00
  14   1    -0.01   0.06  -0.04     0.00  -0.02   0.02    -0.00  -0.00  -0.00
  15   1    -0.04  -0.11  -0.05     0.00   0.02  -0.01    -0.00  -0.00  -0.00
  16   1    -0.23  -0.05  -0.27     0.05  -0.03   0.04    -0.00   0.00   0.00
  17   1    -0.24   0.08   0.10     0.00  -0.02  -0.06     0.00   0.00   0.00
  18   1     0.40  -0.02   0.09    -0.06  -0.01   0.03    -0.00   0.00  -0.00
  19   1    -0.03   0.00   0.00    -0.33  -0.07   0.09     0.00  -0.00  -0.00
  20   1     0.06  -0.03  -0.01     0.24  -0.14  -0.03     0.01  -0.00   0.01
  21   1     0.02   0.01  -0.00     0.13   0.03   0.00    -0.29  -0.42   0.28
  22   1     0.02   0.01  -0.01     0.13   0.04  -0.06     0.36   0.48   0.02
  23   1    -0.00  -0.01   0.00    -0.09  -0.15   0.04     0.04   0.03   0.24
  24   1    -0.14  -0.03   0.04    -0.46  -0.13   0.13     0.02   0.01  -0.01
  25   1    -0.00   0.04  -0.02     0.36  -0.25  -0.02    -0.01   0.01   0.00
                     34                     35                     36
                        a                      a                      a 
 Frequencies --  1153.7051              1171.5290              1188.5685
 Red. masses --     5.9390                 7.0162                 4.0391
 Frc consts  --     0.0000                 0.0000                 0.0000
 IR Inten    --    82.8623               138.3418                 8.1571
 Raman Activ --     0.0000                 0.0000                 0.0000
 Depolar     --     0.0000                 0.0000                 0.0000
 Atom AN      X      Y      Z        X      Y      Z        X      Y      Z
   1   7    -0.01  -0.01   0.00    -0.01  -0.01   0.01     0.03   0.13  -0.14
   2   6     0.02   0.01   0.01     0.02   0.02  -0.01    -0.03  -0.29   0.27
   3   6    -0.04   0.01   0.01    -0.03  -0.01   0.03    -0.07   0.14  -0.17
   4   6     0.08  -0.02  -0.02     0.09   0.03  -0.04    -0.01  -0.09   0.06
   5   6    -0.01   0.13  -0.02    -0.02   0.07  -0.01     0.02   0.05  -0.03
   6   6     0.02   0.00  -0.00    -0.02   0.04  -0.00    -0.01   0.02  -0.00
   7   6     0.33  -0.00  -0.08     0.43  -0.04  -0.09     0.02  -0.01  -0.00
   8   8    -0.24   0.27   0.02    -0.25  -0.25   0.09    -0.02   0.01   0.00
   9   6     0.17  -0.27  -0.01     0.02   0.33  -0.05     0.01  -0.01  -0.00
  10   6    -0.03  -0.05   0.02     0.06  -0.09   0.01     0.03   0.01  -0.01
  11   6    -0.01  -0.14   0.03    -0.08  -0.12   0.05    -0.02   0.04   0.00
  12   1    -0.00   0.01   0.00    -0.00   0.01   0.00    -0.03  -0.13  -0.02
  13   1     0.00  -0.01  -0.00     0.00  -0.01  -0.01     0.02   0.17   0.14
  14   1     0.00   0.01   0.01     0.00   0.01   0.00     0.00  -0.07   0.06
  15   1    -0.00  -0.02  -0.01    -0.01  -0.03  -0.01     0.02   0.07  -0.01
  16   1    -0.01   0.01   0.01    -0.01   0.02   0.01     0.11  -0.21  -0.01
  17   1    -0.04   0.01  -0.01    -0.04   0.01   0.01    -0.42   0.03  -0.27
  18   1    -0.05   0.01  -0.01    -0.06   0.01  -0.02     0.47  -0.10   0.27
  19   1     0.03   0.05  -0.02     0.07   0.05  -0.03     0.12   0.06  -0.02
  20   1    -0.15   0.13   0.01    -0.39   0.32   0.02     0.00   0.00   0.00
  21   1    -0.27  -0.09   0.03     0.14   0.06  -0.02    -0.01  -0.01   0.00
  22   1    -0.23  -0.04   0.10     0.14   0.06  -0.05    -0.01   0.00   0.00
  23   1     0.20   0.35  -0.08    -0.14  -0.29   0.07     0.01   0.01  -0.00
  24   1    -0.42  -0.18   0.13    -0.05  -0.06   0.02     0.01   0.00  -0.00
  25   1     0.07  -0.09   0.00    -0.23   0.13   0.02    -0.12   0.10   0.00
                     37                     38                     39
                        a                      a                      a 
 Frequencies --  1204.7432              1232.8884              1254.9479
 Red. masses --     3.0213                 3.1776                 8.0763
 Frc consts  --     0.0000                 0.0000                 0.0000
 IR Inten    --    26.9183                 9.6183                71.5572
 Raman Activ --     0.0000                 0.0000                 0.0000
 Depolar     --     0.0000                 0.0000                 0.0000
 Atom AN      X      Y      Z        X      Y      Z        X      Y      Z
   1   7    -0.02   0.01  -0.00    -0.23  -0.05   0.12    -0.03  -0.03   0.02
   2   6     0.03   0.01   0.04     0.20  -0.02  -0.05     0.02  -0.02  -0.09
   3   6    -0.09   0.02   0.02    -0.09   0.09  -0.10     0.12  -0.02  -0.11
   4   6     0.23  -0.05  -0.07     0.14  -0.05   0.01    -0.48   0.13   0.14
   5   6    -0.06  -0.01   0.02     0.04  -0.04  -0.00    -0.17   0.12   0.01
   6   6     0.07  -0.12   0.01    -0.07  -0.01   0.02     0.21   0.09  -0.07
   7   6     0.20  -0.05  -0.04    -0.10   0.03   0.02     0.32  -0.11  -0.05
   8   8    -0.13   0.05   0.02     0.05  -0.01  -0.01    -0.16   0.04   0.03
   9   6     0.04  -0.03  -0.00    -0.01  -0.01   0.00     0.03   0.01  -0.01
  10   6     0.04   0.09  -0.03    -0.02   0.05  -0.01     0.09  -0.18   0.01
  11   6    -0.03   0.06  -0.00     0.05   0.02  -0.02    -0.20   0.00   0.05
  12   1     0.00  -0.02  -0.01     0.06   0.00  -0.05     0.00   0.04   0.00
  13   1     0.01  -0.00  -0.00     0.05  -0.16  -0.07     0.00  -0.03  -0.01
  14   1     0.00   0.01   0.01     0.03   0.21   0.08     0.01   0.04   0.01
  15   1    -0.01  -0.03  -0.03    -0.16  -0.43  -0.36    -0.00  -0.05  -0.01
  16   1    -0.01   0.01   0.01     0.10   0.36   0.43     0.05   0.10   0.12
  17   1    -0.11   0.03  -0.01    -0.04  -0.00  -0.07     0.25  -0.04   0.05
  18   1    -0.12   0.00  -0.01     0.17  -0.03   0.09     0.33  -0.04   0.07
  19   1    -0.59  -0.21   0.18     0.05   0.00  -0.01    -0.13   0.01   0.03
  20   1     0.20  -0.18  -0.01    -0.02  -0.00   0.01     0.17  -0.06  -0.03
  21   1    -0.05  -0.02   0.01     0.01   0.00  -0.00    -0.03  -0.02   0.02
  22   1    -0.05  -0.02   0.01     0.01   0.00  -0.00    -0.03  -0.02   0.00
  23   1     0.04   0.08  -0.02    -0.00  -0.00   0.00     0.01   0.02  -0.01
  24   1     0.14   0.08  -0.05    -0.08  -0.01   0.02     0.27   0.04  -0.07
  25   1    -0.38   0.32   0.02    -0.02   0.04  -0.00     0.07  -0.11   0.01
                     40                     41                     42
                        a                      a                      a 
 Frequencies --  1277.2315              1319.9825              1331.6444
 Red. masses --     3.7061                 3.9558                 5.6534
 Frc consts  --     0.0000                 0.0000                 0.0000
 IR Inten    --     3.1146                26.8620                14.1798
 Raman Activ --     0.0000                 0.0000                 0.0000
 Depolar     --     0.0000                 0.0000                 0.0000
 Atom AN      X      Y      Z        X      Y      Z        X      Y      Z
   1   7     0.02  -0.02   0.02    -0.08   0.16  -0.01     0.02  -0.03   0.04
   2   6    -0.04   0.00  -0.06     0.15   0.16   0.33    -0.17  -0.04  -0.06
   3   6     0.08   0.03  -0.00     0.18  -0.10  -0.00     0.48  -0.01   0.12
   4   6    -0.15  -0.14   0.06    -0.12   0.03   0.02    -0.17  -0.14   0.00
   5   6    -0.17  -0.06   0.05    -0.07  -0.02   0.02     0.04   0.06  -0.02
   6   6    -0.04   0.08  -0.01     0.03   0.03  -0.01    -0.02   0.12  -0.01
   7   6     0.09   0.28  -0.07     0.06   0.03  -0.02     0.04  -0.18   0.03
   8   8    -0.03  -0.08   0.02    -0.02  -0.00   0.00    -0.03   0.03  -0.00
   9   6    -0.04   0.05   0.00    -0.01   0.01  -0.00     0.01  -0.01  -0.00
  10   6     0.14   0.00  -0.03     0.01  -0.05   0.01     0.06   0.00  -0.01
  11   6     0.06  -0.13   0.01    -0.03   0.00   0.01    -0.10   0.12   0.00
  12   1    -0.00   0.01   0.01     0.03  -0.17  -0.05    -0.00   0.02   0.01
  13   1    -0.02  -0.00  -0.01     0.07  -0.06  -0.05    -0.03  -0.01  -0.02
  14   1    -0.00   0.00  -0.02    -0.04  -0.07   0.02    -0.01  -0.00  -0.04
  15   1     0.02   0.04   0.05    -0.21  -0.30  -0.50    -0.03   0.04  -0.03
  16   1     0.03   0.04   0.05    -0.19  -0.26  -0.38     0.15   0.13   0.25
  17   1     0.11  -0.03   0.01    -0.05  -0.00  -0.03    -0.47   0.02  -0.27
  18   1    -0.09   0.01  -0.02    -0.13   0.03  -0.12    -0.37   0.06  -0.16
  19   1     0.35   0.13  -0.11     0.06   0.02  -0.01     0.04   0.03  -0.03
  20   1     0.40  -0.31  -0.03     0.07  -0.04  -0.01     0.02   0.01  -0.01
  21   1     0.05  -0.01   0.02     0.01  -0.01   0.01    -0.01  -0.01   0.00
  22   1     0.04  -0.02  -0.03     0.00  -0.01  -0.00    -0.02  -0.01   0.00
  23   1    -0.01   0.02  -0.01    -0.00   0.00  -0.00     0.01   0.01  -0.00
  24   1    -0.29  -0.13   0.09     0.03  -0.01  -0.01     0.10   0.03  -0.03
  25   1    -0.36   0.26   0.03     0.02  -0.02  -0.00     0.04  -0.02  -0.01
                     43                     44                     45
                        a                      a                      a 
 Frequencies --  1352.9251              1386.3384              1398.9515
 Red. masses --    10.6175                 2.9902                 2.4616
 Frc consts  --     0.0000                 0.0000                 0.0000
 IR Inten    --     4.1132               193.7686                 1.6126
 Raman Activ --     0.0000                 0.0000                 0.0000
 Depolar     --     0.0000                 0.0000                 0.0000
 Atom AN      X      Y      Z        X      Y      Z        X      Y      Z
   1   7    -0.01   0.01  -0.01    -0.01  -0.30  -0.23     0.00  -0.00  -0.00
   2   6     0.05   0.04   0.03     0.04   0.02   0.08    -0.00  -0.00   0.00
   3   6    -0.13   0.04  -0.04     0.05  -0.03   0.00     0.02  -0.01   0.00
   4   6    -0.03  -0.41   0.11    -0.01   0.02  -0.00    -0.02   0.04  -0.00
   5   6     0.30   0.12  -0.09     0.00  -0.02   0.00     0.01   0.01  -0.00
   6   6    -0.28   0.25   0.01    -0.02   0.01   0.00     0.01  -0.02   0.00
   7   6    -0.04  -0.41   0.09     0.00   0.02  -0.01     0.04   0.02  -0.01
   8   8    -0.04   0.04   0.00     0.01  -0.00  -0.00    -0.08  -0.09   0.03
   9   6     0.02  -0.04   0.00    -0.00   0.01  -0.00    -0.22  -0.22   0.08
  10   6     0.32   0.16  -0.11     0.00  -0.02   0.00     0.03  -0.02  -0.00
  11   6    -0.23   0.19   0.01    -0.01   0.01   0.00    -0.03  -0.02   0.01
  12   1    -0.01  -0.00   0.00    -0.22   0.50   0.16    -0.00   0.01   0.00
  13   1     0.01   0.00   0.00    -0.02   0.29   0.33     0.00   0.00   0.00
  14   1     0.00  -0.00   0.01     0.23   0.35   0.33     0.00   0.00   0.01
  15   1    -0.00  -0.02  -0.01    -0.04  -0.01  -0.14    -0.00  -0.00  -0.00
  16   1    -0.06  -0.04  -0.09    -0.10  -0.03  -0.09     0.00  -0.00   0.00
  17   1     0.27  -0.05   0.10    -0.03   0.02   0.01    -0.02   0.00  -0.01
  18   1    -0.02  -0.01   0.02    -0.05  -0.00  -0.02     0.01   0.00  -0.00
  19   1     0.07   0.03  -0.02     0.01  -0.00  -0.00    -0.03  -0.01   0.01
  20   1    -0.01   0.02   0.00     0.02  -0.02  -0.00    -0.04   0.03   0.00
  21   1    -0.01   0.00  -0.01    -0.00  -0.01   0.01     0.38   0.30  -0.29
  22   1    -0.01   0.01   0.01    -0.00  -0.01  -0.00     0.43   0.34   0.03
  23   1     0.03   0.05  -0.01    -0.00  -0.00   0.00     0.16   0.46  -0.09
  24   1     0.00   0.01  -0.00     0.01  -0.00  -0.00    -0.01  -0.01   0.00
  25   1    -0.10   0.08   0.01     0.01  -0.01  -0.00     0.00  -0.01   0.00
                     46                     47                     48
                        a                      a                      a 
 Frequencies --  1426.3307              1432.8536              1437.6636
 Red. masses --     9.0646                 2.2417                 1.8032
 Frc consts  --     0.0000                 0.0000                 0.0000
 IR Inten    --     2.8788                73.2994                84.3556
 Raman Activ --     0.0000                 0.0000                 0.0000
 Depolar     --     0.0000                 0.0000                 0.0000
 Atom AN      X      Y      Z        X      Y      Z        X      Y      Z
   1   7     0.00  -0.06   0.03    -0.10  -0.14   0.12    -0.19   0.05  -0.07
   2   6     0.02   0.00   0.03     0.00  -0.02   0.05    -0.04   0.01  -0.04
   3   6    -0.01   0.06  -0.03     0.00  -0.02  -0.00     0.02   0.01  -0.01
   4   6    -0.05  -0.28   0.07     0.01   0.07  -0.02    -0.00  -0.05   0.01
   5   6    -0.33   0.14   0.05     0.09  -0.04  -0.01    -0.06   0.01   0.01
   6   6     0.36   0.01  -0.09    -0.10   0.00   0.02     0.05   0.01  -0.01
   7   6    -0.06  -0.29   0.07     0.03   0.08  -0.02    -0.00  -0.04   0.01
   8   8    -0.00   0.07  -0.01    -0.00  -0.02   0.00     0.00   0.01  -0.00
   9   6     0.04  -0.06   0.00    -0.01   0.02  -0.00     0.00  -0.01  -0.00
  10   6    -0.31   0.15   0.04     0.08  -0.05  -0.01    -0.05   0.02   0.01
  11   6     0.36  -0.01  -0.09    -0.11   0.01   0.02     0.06   0.00  -0.01
  12   1     0.10  -0.00  -0.06     0.51   0.12  -0.34     0.23   0.35  -0.16
  13   1    -0.11   0.11   0.07    -0.02   0.25   0.32     0.65  -0.17   0.22
  14   1    -0.00   0.14  -0.16    -0.10   0.23  -0.51    -0.08  -0.40   0.21
  15   1    -0.01  -0.00  -0.03    -0.00   0.03  -0.03     0.01   0.02   0.05
  16   1    -0.03  -0.02  -0.03    -0.04  -0.03  -0.03     0.03   0.01   0.02
  17   1     0.11  -0.03   0.02    -0.04   0.02   0.00     0.00   0.04   0.05
  18   1    -0.06   0.00   0.01     0.01  -0.01   0.01    -0.05  -0.03   0.05
  19   1     0.13   0.12  -0.06    -0.03  -0.03   0.01     0.03   0.02  -0.01
  20   1    -0.08   0.15  -0.01     0.02  -0.04   0.00    -0.00   0.02  -0.00
  21   1    -0.06   0.09  -0.08     0.02  -0.02   0.02    -0.01   0.01  -0.01
  22   1    -0.03   0.11   0.07     0.01  -0.03  -0.02    -0.01   0.02   0.01
  23   1     0.00  -0.02  -0.00     0.00   0.01   0.00     0.00  -0.00   0.00
  24   1     0.09   0.12  -0.04    -0.02  -0.03   0.01     0.02   0.02  -0.01
  25   1    -0.11   0.17  -0.00     0.04  -0.05   0.01    -0.02   0.03  -0.01
                     49                     50                     51
                        a                      a                      a 
 Frequencies --  1465.6248              1475.7792              1477.1839
 Red. masses --     2.3837                 2.0503                 1.6027
 Frc consts  --     0.0000                 0.0000                 0.0000
 IR Inten    --    28.0489                14.1621                10.1610
 Raman Activ --     0.0000                 0.0000                 0.0000
 Depolar     --     0.0000                 0.0000                 0.0000
 Atom AN      X      Y      Z        X      Y      Z        X      Y      Z
   1   7    -0.00  -0.00  -0.00     0.01   0.00   0.01    -0.00   0.00   0.00
   2   6    -0.00  -0.00   0.00     0.12  -0.22   0.09    -0.00   0.01  -0.00
   3   6     0.04  -0.02   0.00    -0.05   0.02   0.05    -0.01   0.00   0.01
   4   6    -0.10   0.07   0.01     0.07  -0.02  -0.01     0.04  -0.01  -0.01
   5   6     0.09   0.02  -0.03    -0.04  -0.03   0.01    -0.02  -0.02   0.01
   6   6    -0.02  -0.06   0.01    -0.03   0.04  -0.00    -0.02   0.03  -0.00
   7   6    -0.09   0.09   0.00     0.06  -0.01  -0.01     0.04  -0.01  -0.00
   8   8     0.03  -0.07   0.01    -0.01   0.00   0.00    -0.00   0.01   0.04
   9   6     0.18  -0.10  -0.00     0.00  -0.00   0.00     0.03   0.03   0.21
  10   6     0.15   0.02  -0.04    -0.04  -0.03   0.02    -0.03  -0.02   0.01
  11   6    -0.05  -0.06   0.02    -0.02   0.04  -0.00    -0.01   0.03  -0.00
  12   1     0.00   0.00  -0.00     0.00  -0.03  -0.00     0.00   0.00  -0.00
  13   1     0.00   0.00   0.00     0.03  -0.05  -0.04     0.00   0.00   0.00
  14   1     0.00   0.00  -0.00    -0.02  -0.07   0.00    -0.00   0.00  -0.00
  15   1    -0.00  -0.00  -0.01     0.09   0.55  -0.33    -0.00  -0.02   0.02
  16   1    -0.00   0.00   0.00    -0.54   0.34   0.09     0.02  -0.01  -0.00
  17   1    -0.01  -0.00  -0.01     0.02  -0.11  -0.10    -0.00  -0.00  -0.00
  18   1     0.02   0.00  -0.01     0.07   0.07  -0.11    -0.00   0.00  -0.00
  19   1    -0.07  -0.03   0.02     0.04   0.01  -0.01     0.02   0.00  -0.01
  20   1     0.03  -0.05   0.01     0.04  -0.02  -0.00     0.02  -0.00   0.02
  21   1    -0.36   0.38  -0.34    -0.02   0.02  -0.01    -0.45   0.02   0.01
  22   1    -0.18   0.47   0.30     0.01   0.02   0.01     0.45  -0.07  -0.17
  23   1    -0.12  -0.32   0.03    -0.00  -0.01  -0.01    -0.12  -0.09  -0.69
  24   1    -0.08  -0.04   0.03     0.03   0.01  -0.01     0.02   0.01  -0.01
  25   1    -0.04  -0.00   0.01     0.03  -0.01  -0.00     0.02  -0.01  -0.00
                     52                     53                     54
                        a                      a                      a 
 Frequencies --  1483.7670              1486.0054              1579.2229
 Red. masses --     2.3831                 8.2290                11.6351
 Frc consts  --     0.0000                 0.0000                 0.0000
 IR Inten    --     3.7343                89.1675                 5.4569
 Raman Activ --     0.0000                 0.0000                 0.0000
 Depolar     --     0.0000                 0.0000                 0.0000
 Atom AN      X      Y      Z        X      Y      Z        X      Y      Z
   1   7     0.02   0.01   0.02     0.00  -0.00  -0.00     0.00  -0.00  -0.00
   2   6     0.03  -0.04  -0.01    -0.03   0.04  -0.02    -0.00   0.00   0.00
   3   6     0.09  -0.04  -0.23    -0.16   0.04   0.09    -0.00   0.05  -0.01
   4   6     0.08  -0.02  -0.03     0.38  -0.07  -0.08    -0.05  -0.53   0.12
   5   6    -0.06  -0.07   0.03    -0.16  -0.20   0.08     0.16   0.26  -0.09
   6   6    -0.06   0.09  -0.00    -0.21   0.26  -0.00     0.11  -0.29   0.03
   7   6     0.10  -0.02  -0.02     0.32  -0.06  -0.06     0.06   0.49  -0.11
   8   8    -0.02  -0.00   0.00    -0.05  -0.00   0.01     0.02  -0.05   0.00
   9   6     0.01  -0.01  -0.00     0.02  -0.04  -0.02    -0.02   0.01   0.00
  10   6    -0.07  -0.06   0.03    -0.27  -0.16   0.10    -0.16  -0.25   0.09
  11   6    -0.04   0.08  -0.01    -0.08   0.23  -0.03    -0.11   0.33  -0.04
  12   1    -0.03  -0.05   0.02    -0.00   0.01   0.00    -0.00   0.00   0.00
  13   1    -0.06  -0.01  -0.05    -0.00   0.01   0.01     0.00  -0.00  -0.00
  14   1    -0.00   0.01  -0.02     0.00   0.01   0.00     0.00   0.00   0.01
  15   1     0.02   0.08  -0.06    -0.01  -0.11   0.11    -0.00  -0.00  -0.00
  16   1    -0.09   0.07   0.02     0.12  -0.08  -0.02     0.00   0.00  -0.00
  17   1    -0.12   0.46   0.43     0.02  -0.12  -0.11     0.07  -0.02   0.01
  18   1    -0.26  -0.31   0.48     0.05   0.09  -0.12    -0.06  -0.00   0.00
  19   1     0.09   0.02  -0.02     0.20   0.03  -0.05    -0.07   0.03   0.01
  20   1     0.07  -0.05  -0.01     0.22  -0.15  -0.02    -0.08   0.01   0.02
  21   1    -0.02   0.03  -0.03    -0.02   0.09  -0.09     0.00   0.00  -0.00
  22   1    -0.02   0.04   0.03    -0.08   0.13   0.09     0.01   0.00  -0.00
  23   1    -0.01  -0.02   0.01    -0.01  -0.04   0.08    -0.01  -0.02   0.00
  24   1     0.06   0.01  -0.02     0.19   0.06  -0.06     0.07  -0.02  -0.01
  25   1     0.08  -0.05  -0.01     0.17  -0.09  -0.02     0.08  -0.01  -0.01
                     55                     56                     57
                        a                      a                      a 
 Frequencies --  1615.6492              2947.2903              2950.2620
 Red. masses --    11.5510                 1.9460                 1.9182
 Frc consts  --     0.0000                 0.0000                 0.0000
 IR Inten    --    70.5977                 3.5891                 2.8890
 Raman Activ --     0.0000                 0.0000                 0.0000
 Depolar     --     0.0000                 0.0000                 0.0000
 Atom AN      X      Y      Z        X      Y      Z        X      Y      Z
   1   7     0.00  -0.00  -0.00    -0.00   0.00  -0.00     0.00   0.00   0.00
   2   6    -0.01   0.00  -0.01     0.09   0.03  -0.07    -0.24  -0.01   0.11
   3   6    -0.04   0.01   0.02    -0.04  -0.26   0.02    -0.01  -0.11  -0.03
   4   6     0.29  -0.04  -0.06    -0.00  -0.01   0.00     0.00  -0.00  -0.00
   5   6    -0.46  -0.07   0.12    -0.00   0.00   0.00    -0.00   0.00   0.00
   6   6     0.38  -0.15  -0.06     0.00  -0.00  -0.00     0.00  -0.00   0.00
   7   6    -0.19   0.01   0.04     0.00   0.00  -0.00     0.00   0.00   0.00
   8   8    -0.01   0.00   0.00    -0.00   0.00  -0.00    -0.00   0.00  -0.00
   9   6     0.01   0.00  -0.00    -0.00  -0.00  -0.00    -0.00   0.00  -0.00
  10   6     0.43   0.03  -0.11    -0.00  -0.00   0.00    -0.00  -0.00   0.00
  11   6    -0.42   0.22   0.06     0.00   0.00  -0.00     0.00   0.00  -0.00
  12   1    -0.00   0.00   0.00     0.00   0.00   0.00     0.00   0.00  -0.00
  13   1     0.00   0.00   0.00     0.00   0.01  -0.00    -0.00  -0.01   0.01
  14   1     0.00   0.00   0.01     0.01  -0.00  -0.00    -0.02   0.01   0.01
  15   1    -0.00  -0.00   0.01    -0.24   0.08   0.06     0.74  -0.22  -0.19
  16   1     0.01  -0.00  -0.00    -0.10  -0.21   0.19     0.11   0.25  -0.22
  17   1    -0.01  -0.00  -0.00     0.21   0.42  -0.40     0.04   0.08  -0.08
  18   1    -0.01   0.00  -0.00    -0.05   0.53   0.32    -0.03   0.33   0.19
  19   1     0.10   0.06  -0.03     0.00  -0.00   0.00     0.00  -0.00   0.00
  20   1    -0.04   0.07  -0.01     0.00   0.00  -0.00     0.00   0.00  -0.00
  21   1    -0.00  -0.01   0.01     0.00   0.00   0.00    -0.00  -0.00  -0.00
  22   1    -0.00  -0.01  -0.00     0.00  -0.00   0.00     0.00  -0.00   0.01
  23   1     0.00   0.00  -0.00     0.00  -0.00  -0.00     0.01  -0.00  -0.00
  24   1    -0.06  -0.06   0.03    -0.00   0.00  -0.00     0.00  -0.00  -0.00
  25   1     0.07  -0.09  -0.00    -0.01  -0.01   0.00    -0.00  -0.00   0.00
                     58                     59                     60
                        a                      a                      a 
 Frequencies --  2968.8885              2971.6725              2972.6397
 Red. masses --     1.6211                 1.8598                 1.5206
 Frc consts  --     0.0000                 0.0000                 0.0000
 IR Inten    --    24.7945                26.9142                16.6894
 Raman Activ --     0.0000                 0.0000                 0.0000
 Depolar     --     0.0000                 0.0000                 0.0000
 Atom AN      X      Y      Z        X      Y      Z        X      Y      Z
   1   7     0.00  -0.00   0.00     0.00  -0.00   0.00    -0.00  -0.00  -0.00
   2   6    -0.00   0.00   0.00     0.00  -0.00  -0.00    -0.05   0.05  -0.00
   3   6     0.00  -0.00  -0.00     0.00  -0.00  -0.00    -0.07   0.02   0.19
   4   6    -0.00   0.00  -0.00     0.00  -0.00  -0.00    -0.01  -0.00   0.00
   5   6     0.00   0.00   0.00    -0.00   0.00   0.00     0.00  -0.00  -0.00
   6   6     0.00   0.00  -0.00    -0.00  -0.00  -0.00     0.00   0.00  -0.00
   7   6     0.00  -0.00  -0.00    -0.00   0.00  -0.00     0.00  -0.00  -0.00
   8   8    -0.01  -0.01   0.01     0.01   0.01   0.00     0.00   0.00   0.00
   9   6     0.10  -0.15   0.15     0.01   0.13   0.24     0.00   0.00   0.01
  10   6    -0.00   0.00   0.00     0.00  -0.00  -0.00    -0.00  -0.00   0.00
  11   6     0.00  -0.00  -0.00    -0.00   0.00   0.00     0.00   0.00  -0.00
  12   1    -0.00  -0.00  -0.00    -0.00  -0.00  -0.00     0.00   0.00   0.00
  13   1     0.00   0.00  -0.00     0.00   0.00  -0.00     0.01   0.01  -0.01
  14   1    -0.00   0.00   0.00     0.00  -0.00   0.00    -0.01   0.00   0.00
  15   1     0.01  -0.00  -0.00    -0.01   0.00   0.00     0.25  -0.07  -0.07
  16   1    -0.00   0.00  -0.00     0.00   0.00  -0.00    -0.07  -0.11   0.11
  17   1     0.00   0.00  -0.00    -0.00  -0.01   0.01     0.22   0.49  -0.40
  18   1    -0.00   0.00   0.00    -0.00   0.02   0.01     0.03  -0.56  -0.29
  19   1    -0.00   0.00  -0.00     0.00  -0.00  -0.00    -0.00   0.00  -0.00
  20   1    -0.01  -0.01   0.00     0.00   0.00  -0.00    -0.00  -0.00   0.00
  21   1     0.02   0.16   0.22    -0.00  -0.62  -0.68    -0.00  -0.02  -0.02
  22   1    -0.27   0.38  -0.80    -0.09   0.13  -0.20    -0.00   0.00  -0.00
  23   1    -0.08   0.03   0.03     0.04  -0.00   0.03    -0.00   0.00   0.00
  24   1     0.00  -0.00   0.00    -0.00   0.00   0.00    -0.00   0.00   0.00
  25   1     0.00   0.00  -0.00    -0.00  -0.00   0.00    -0.01  -0.01   0.00
                     61                     62                     63
                        a                      a                      a 
 Frequencies --  2980.0669              2991.6547              3097.7251
 Red. masses --     1.5931                 1.6330                 1.8010
 Frc consts  --     0.0000                 0.0000                 0.0000
 IR Inten    --     6.0397                 9.6773                36.8251
 Raman Activ --     0.0000                 0.0000                 0.0000
 Depolar     --     0.0000                 0.0000                 0.0000
 Atom AN      X      Y      Z        X      Y      Z        X      Y      Z
   1   7     0.00  -0.00   0.00    -0.00   0.00  -0.00     0.00  -0.00   0.00
   2   6    -0.01   0.18  -0.12    -0.00  -0.00   0.00    -0.00   0.00  -0.00
   3   6     0.03   0.04  -0.06    -0.00  -0.00   0.00     0.00   0.00  -0.00
   4   6     0.00   0.00  -0.00    -0.00   0.00  -0.00     0.01   0.00  -0.00
   5   6     0.00  -0.00   0.00    -0.00   0.00   0.00    -0.02   0.04  -0.00
   6   6     0.00   0.00  -0.00     0.00   0.00  -0.00    -0.00  -0.00   0.00
   7   6    -0.00   0.00  -0.00    -0.00  -0.00   0.00     0.00  -0.00   0.00
   8   8     0.00  -0.00   0.00     0.01   0.00  -0.00    -0.00   0.00  -0.00
   9   6     0.00  -0.00  -0.00     0.22  -0.08  -0.03    -0.00  -0.00  -0.00
  10   6     0.00  -0.00  -0.00    -0.00  -0.00   0.00     0.03  -0.06   0.01
  11   6    -0.00  -0.00   0.00     0.00   0.00  -0.00     0.15   0.19  -0.08
  12   1    -0.00   0.00  -0.00     0.00  -0.00   0.00    -0.00   0.00  -0.00
  13   1     0.01   0.02  -0.01    -0.00  -0.00   0.00     0.00   0.00  -0.00
  14   1    -0.01   0.00   0.00     0.00  -0.00  -0.00    -0.00   0.00  -0.00
  15   1     0.37  -0.09  -0.11    -0.00   0.00   0.00     0.00  -0.00  -0.00
  16   1    -0.32  -0.57   0.52     0.00   0.01  -0.01    -0.00  -0.00   0.00
  17   1    -0.10  -0.22   0.19     0.00   0.00  -0.00    -0.01  -0.01   0.01
  18   1    -0.00   0.07   0.03    -0.00   0.00   0.00     0.00  -0.00  -0.00
  19   1    -0.00   0.00   0.00     0.00  -0.00  -0.00     0.05  -0.13   0.01
  20   1    -0.00  -0.00   0.00    -0.00  -0.00   0.00     0.01   0.02  -0.01
  21   1     0.00  -0.00  -0.00     0.03  -0.06  -0.06     0.00   0.00   0.00
  22   1     0.00  -0.00   0.00     0.06  -0.06   0.07    -0.00   0.00  -0.00
  23   1    -0.01   0.00   0.00    -0.88   0.38   0.11     0.00  -0.00  -0.00
  24   1     0.00  -0.00   0.00    -0.00   0.00  -0.00    -0.10   0.23  -0.02
  25   1     0.01   0.01  -0.00    -0.00  -0.00   0.00    -0.54  -0.69   0.28
                     64                     65                     66
                        a                      a                      a 
 Frequencies --  3105.6801              3118.6263              3136.8477
 Red. masses --     1.8146                 1.8629                 1.8464
 Frc consts  --     0.0000                 0.0000                 0.0000
 IR Inten    --    14.3008                 9.9876                10.6689
 Raman Activ --     0.0000                 0.0000                 0.0000
 Depolar     --     0.0000                 0.0000                 0.0000
 Atom AN      X      Y      Z        X      Y      Z        X      Y      Z
   1   7     0.00  -0.00  -0.00    -0.00   0.00  -0.00     0.00   0.00  -0.00
   2   6    -0.00  -0.00   0.00     0.00  -0.00   0.00    -0.00   0.00  -0.00
   3   6    -0.00  -0.00  -0.00     0.00  -0.00   0.00    -0.00  -0.00   0.00
   4   6     0.01  -0.00  -0.00    -0.00   0.00   0.00     0.00   0.00  -0.00
   5   6     0.10  -0.25   0.02    -0.00   0.00  -0.00     0.02  -0.05   0.01
   6   6     0.02   0.03  -0.01    -0.00  -0.00   0.00    -0.16  -0.20   0.08
   7   6     0.00   0.00  -0.00     0.01  -0.00  -0.00    -0.01   0.00   0.00
   8   8     0.00  -0.00  -0.00    -0.00  -0.00   0.00    -0.00  -0.00   0.00
   9   6    -0.00   0.00   0.00     0.00  -0.00   0.00     0.00  -0.00   0.00
  10   6     0.00  -0.01   0.00     0.10  -0.24   0.03     0.00   0.00  -0.00
  11   6     0.02   0.03  -0.01    -0.05  -0.06   0.02     0.00   0.00  -0.00
  12   1    -0.00   0.00  -0.00     0.00  -0.00   0.00    -0.00   0.00  -0.00
  13   1    -0.00  -0.00   0.00     0.00  -0.00   0.00    -0.00  -0.00   0.00
  14   1    -0.01   0.00   0.00    -0.00  -0.00   0.00    -0.00   0.00   0.00
  15   1     0.00   0.00  -0.00    -0.00   0.00   0.00     0.00   0.00  -0.00
  16   1    -0.00   0.00  -0.00     0.00   0.00  -0.00    -0.00  -0.00   0.00
  17   1     0.00   0.00  -0.00     0.00   0.00  -0.00     0.00   0.00  -0.00
  18   1    -0.00   0.01   0.00     0.00   0.00   0.00    -0.00  -0.00  -0.00
  19   1    -0.34   0.87  -0.09     0.00  -0.01   0.00    -0.06   0.15  -0.02
  20   1    -0.10  -0.12   0.05     0.00   0.00  -0.00     0.56   0.72  -0.27
  21   1     0.00  -0.00  -0.00     0.00   0.00   0.00    -0.00   0.01   0.01
  22   1     0.00  -0.00   0.00    -0.00   0.00  -0.00    -0.00   0.01  -0.01
  23   1     0.00  -0.00  -0.00    -0.00   0.00   0.00    -0.00   0.00   0.00
  24   1    -0.02   0.05  -0.00    -0.35   0.85  -0.09     0.00  -0.00   0.00
  25   1    -0.08  -0.10   0.04     0.15   0.19  -0.08    -0.00  -0.00   0.00
                     67                     68                     69
                        a                      a                      a 
 Frequencies --  3196.9633              3203.6326              3222.6185
 Red. masses --     2.0339                 2.0258                 1.2940
 Frc consts  --     0.0000                 0.0000                 0.0000
 IR Inten    --   104.3711                76.9306                22.8845
 Raman Activ --     0.0000                 0.0000                 0.0000
 Depolar     --     0.0000                 0.0000                 0.0000
 Atom AN      X      Y      Z        X      Y      Z        X      Y      Z
   1   7     0.27  -0.05   0.04     0.05   0.11  -0.25     0.04   0.14   0.03
   2   6     0.01  -0.00  -0.00     0.00   0.00  -0.01    -0.00   0.01   0.00
   3   6    -0.00  -0.00   0.00     0.00  -0.00   0.00    -0.00  -0.00   0.00
   4   6    -0.00   0.00  -0.00    -0.00   0.00  -0.00     0.00   0.00  -0.00
   5   6    -0.00   0.00  -0.00    -0.00   0.00  -0.00    -0.00  -0.00   0.00
   6   6     0.00   0.00  -0.00     0.00   0.00  -0.00     0.00   0.00  -0.00
   7   6     0.00  -0.00   0.00     0.00  -0.00   0.00     0.00   0.00  -0.00
   8   8    -0.00   0.00   0.00    -0.00   0.00   0.00    -0.00  -0.00   0.00
   9   6     0.00   0.00  -0.00     0.00   0.00   0.00     0.00   0.00   0.00
  10   6     0.00  -0.00  -0.00     0.00   0.00  -0.00    -0.00  -0.00   0.00
  11   6    -0.00  -0.00  -0.00     0.00   0.00  -0.00     0.00   0.00   0.00
  12   1    -0.28   0.03  -0.44     0.37  -0.03   0.49    -0.30   0.05  -0.44
  13   1    -0.01  -0.08   0.07    -0.26  -0.47   0.40    -0.27  -0.47   0.43
  14   1    -0.73   0.22   0.23    -0.29   0.10   0.06     0.42  -0.11  -0.12
  15   1    -0.02   0.00   0.01    -0.00   0.00   0.00     0.01  -0.00  -0.00
  16   1    -0.00   0.00  -0.00    -0.01  -0.01   0.01    -0.01  -0.01   0.01
  17   1     0.00   0.00  -0.00     0.00   0.00   0.00     0.00   0.00  -0.00
  18   1     0.00   0.00   0.00    -0.00  -0.00  -0.00    -0.00  -0.01  -0.00
  19   1     0.00  -0.01   0.00     0.00  -0.00   0.00    -0.00   0.00   0.00
  20   1    -0.00  -0.00   0.00    -0.00  -0.00   0.00    -0.00  -0.00   0.00
  21   1     0.00   0.00   0.00    -0.00  -0.00  -0.00    -0.00  -0.00  -0.00
  22   1     0.00  -0.00   0.00    -0.00   0.00  -0.00    -0.00   0.00  -0.00
  23   1    -0.00   0.00   0.00    -0.00   0.00   0.00     0.00  -0.00  -0.00
  24   1     0.00  -0.00   0.00     0.00  -0.00   0.00    -0.00   0.00  -0.00
  25   1     0.00   0.00  -0.00    -0.00  -0.00   0.00    -0.00  -0.00   0.00
