22
 energy: -27.506656715217 gnorm: 0.000371879352 xtb: 6.5.1 (fef0646)
N           -1.86169091867884        0.15994422024043        0.89001214771892
C           -1.06878911742441        0.08628626812216       -0.37442808079329
C           -0.13844197277152        1.29039189334486       -0.47919951265928
C            0.97633096703257        1.25343571822201        0.56494203463204
C            1.75967506107811       -0.05070109685672        0.44621460472143
C            0.83696690630138       -1.25269181582215        0.62578441079894
C           -0.27670782857560       -1.21630785708818       -0.41942326822863
Cl           1.17872785358577       -0.13803255291620       -3.80864915741949
H           -2.39917099714377        1.03283601333083        0.92424743610356
H           -1.21132144802081        0.13726438303560        1.68410609803098
H           -2.49973818177465       -0.64004833775685        0.95895318525880
H           -1.76152747868023        0.10444024346028       -1.21821416572154
H           -0.70194246502831        2.22135371529745       -0.40450993407276
H            0.31298506569631        1.26025209921671       -1.47361490290157
H            0.57990728286981        1.35759366497275        1.57705004642324
H            1.64850683551925        2.09505788282724        0.39315302025510
H            2.56614808186097       -0.07758306560621        1.18172718434875
H            2.21204726604797       -0.10020501227613       -0.54791666330839
H            0.43360082461652       -1.26269495118823        1.64052673102530
H            1.41116436622725       -2.17114416110266        0.49754489185113
H           -0.93891399529825       -2.07522767577496       -0.30342482400250
H            0.17371389256082       -1.28290957568176       -1.41248128206061
