      -----------------------------------------------------------      
     |                   =====================                   |     
     |                           x T B                           |     
     |                   =====================                   |     
     |                         S. Grimme                         |     
     |          Mulliken Center for Theoretical Chemistry        |     
     |                    University of Bonn                     |     
      -----------------------------------------------------------      

   * xtb version 6.5.1 (fef0646) compiled by 'conda@b96dff2e9fd6' on 2023-01-04

   xtb is free software: you can redistribute it and/or modify it under
   the terms of the GNU Lesser General Public License as published by
   the Free Software Foundation, either version 3 of the License, or
   (at your option) any later version.
   
   xtb is distributed in the hope that it will be useful,
   but WITHOUT ANY WARRANTY; without even the implied warranty of
   MERCHANTABILITY or FITNESS FOR A PARTICULAR PURPOSE.  See the
   GNU Lesser General Public License for more details.
   
   Cite this work as:
   * C. Bannwarth, E. Caldeweyher, S. Ehlert, A. Hansen, P. Pracht,
     J. Seibert, S. Spicher, S. Grimme, WIREs Comput. Mol. Sci., 2020, 11,
     e01493. DOI: 10.1002/wcms.1493
   
   for GFN2-xTB:
   * C. Bannwarth, S. Ehlert and S. Grimme., J. Chem. Theory Comput., 2019,
     15, 1652-1671. DOI: 10.1021/acs.jctc.8b01176
   for GFN1-xTB:
   * S. Grimme, C. Bannwarth, P. Shushkov, J. Chem. Theory Comput., 2017,
     13, 1989-2009. DOI: 10.1021/acs.jctc.7b00118
   for GFN0-xTB:
   * P. Pracht, E. Caldeweyher, S. Ehlert, S. Grimme, ChemRxiv, 2019, preprint.
     DOI: 10.26434/chemrxiv.8326202.v1
   for GFN-FF:
   * S. Spicher and S. Grimme, Angew. Chem. Int. Ed., 2020, 59, 15665-15673.
     DOI: 10.1002/anie.202004239
   
   for ALPB and GBSA implicit solvation:
   * S. Ehlert, M. Stahn, S. Spicher, S. Grimme, J. Chem. Theory Comput.,
     2021, 17, 4250-4261. DOI: 10.1021/acs.jctc.1c00471
   
   for DFT-D4:
   * E. Caldeweyher, C. Bannwarth and S. Grimme, J. Chem. Phys., 2017,
     147, 034112. DOI: 10.1063/1.4993215
   * E. Caldeweyher, S. Ehlert, A. Hansen, H. Neugebauer, S. Spicher,
     C. Bannwarth and S. Grimme, J. Chem. Phys., 2019, 150, 154122.
     DOI: 10.1063/1.5090222
   * E. Caldeweyher, J.-M. Mewes, S. Ehlert and S. Grimme, Phys. Chem. Chem. Phys.
     2020, 22, 8499-8512. DOI: 10.1039/D0CP00502A
   
   for sTDA-xTB:
   * S. Grimme and C. Bannwarth, J. Chem. Phys., 2016, 145, 054103.
     DOI: 10.1063/1.4959605
   
   in the mass-spec context:
   * V. Asgeirsson, C. Bauer and S. Grimme, Chem. Sci., 2017, 8, 4879.
     DOI: 10.1039/c7sc00601b
   * J. Koopman and S. Grimme, ACS Omega 2019, 4, 12, 15120-15133.
     DOI: 10.1021/acsomega.9b02011
   
   for metadynamics refer to:
   * S. Grimme, J. Chem. Theory Comput., 2019, 155, 2847-2862
     DOI: 10.1021/acs.jctc.9b00143
   
   for SPH calculations refer to:
   * S. Spicher and S. Grimme, J. Chem. Theory Comput., 2021, 17, 1701-1714
     DOI: 10.1021/acs.jctc.0c01306
   
   with help from (in alphabetical order)
   P. Atkinson, C. Bannwarth, F. Bohle, G. Brandenburg, E. Caldeweyher
   M. Checinski, S. Dohm, S. Ehlert, S. Ehrlich, I. Gerasimov, C. Hölzer
   A. Katbashev, J. Koopman, C. Lavigne, S. Lehtola, F. März, M. Müller,
   F. Musil, H. Neugebauer, J. Pisarek, C. Plett, P. Pracht, F. Pultar,
   J. Seibert, P. Shushkov, S. Spicher, M. Stahn, M. Steiner, T. Strunk,
   J. Stückrath, T. Rose, and J. Unsleber
   
 * started run on 2023/01/24 at 14:56:43.176     

           -------------------------------------------------
          |                Calculation Setup                |
           -------------------------------------------------

          program call               : xtb init.xyz --opt -c 0 -u 0 -P 16 --alpb water
          hostname                   : gpg-woodward
          coordinate file            : init.xyz
          omp threads                :                    16

   ID    Z sym.   atoms
    1    7 N      1, 24, 26
    2    6 C      2-21, 23, 27
    3   16 S      22, 25, 28, 29
    4   17 Cl     30
    5    1 H      31-50

molecular fragmentation (1/2 indicates fragments):
11111111111111111111111111111211111111111111111111
# atoms in fragment 1/2:    49     1
 fragment masses (1/2) :      454.67       35.45
CMA distance (Bohr)    :  23.152
constraining FC (au)   :  0.0500

           -------------------------------------------------
          |                 G F N 2 - x T B                 |
           -------------------------------------------------

        Reference                      10.1021/acs.jctc.8b01176
      * Hamiltonian:
        H0-scaling (s, p, d)           1.850000    2.230000    2.230000
        zeta-weighting                 0.500000
      * Dispersion:
        s8                             2.700000
        a1                             0.520000
        a2                             5.000000
        s9                             5.000000
      * Repulsion:
        kExp                           1.500000    1.000000
        rExp                           1.000000
      * Coulomb:
        alpha                          2.000000
        third order                    shell-resolved
        anisotropic                    true
        a3                             3.000000
        a5                             4.000000
        cn-shift                       1.200000
        cn-exp                         4.000000
        max-rad                        5.000000

      * Solvation model:               ALPB
        Solvent                        water
        Parameter file                 internal GFN2-xTB/ALPB
        Dielectric constant                8.0200E+01
        Reference state                gsolv [1 M gas/solution]
        Free energy shift                  1.0808E-03 Eh       6.7819E-01 kcal/mol
        Temperature                        2.9815E+02 K
        Density                            1.0000E+00 kg/L
        Solvent mass                       1.8000E+01 g/mol
        Interaction kernel             P16
        Born radius scaling (c1)           1.4744E+00
        Born radii integrator          GBOBC
        Born offset                        0.0000E+00 a0       0.0000E+00 AA
        H-bond correction              true
        Ion screening                  false
        Surface tension                    1.0000E-05 Eh       1.5569E+01 dyn/cm
        Grid points                               230 per atom

          ...................................................
          :                      SETUP                      :
          :.................................................:
          :  # basis functions                 170          :
          :  # atomic orbitals                 165          :
          :  # shells                           85          :
          :  # electrons                       154          :
          :  max. iterations                   250          :
          :  Hamiltonian                  GFN2-xTB          :
          :  restarted?                      false          :
          :  GBSA solvation                   true          :
          :  PC potential                    false          :
          :  electronic temp.          300.0000000     K    :
          :  accuracy                    1.0000000          :
          :  -> integral cutoff          0.2500000E+02      :
          :  -> integral neglect         0.1000000E-07      :
          :  -> SCF convergence          0.1000000E-05 Eh   :
          :  -> wf. convergence          0.1000000E-03 e    :
          :  Broyden damping             0.4000000          :
          ...................................................

 iter      E             dE          RMSdq      gap      omega  full diag
   1    -84.5476671 -0.845477E+02  0.412E+00    1.35       0.0  T
   2    -84.6658870 -0.118220E+00  0.237E+00    1.33       1.0  T
   3    -84.6602779  0.560912E-02  0.132E+00    1.24       1.0  T
   4    -84.6901031 -0.298252E-01  0.545E-01    1.24       1.0  T
   5    -84.6940721 -0.396903E-02  0.277E-01    1.21       1.0  T
   6    -84.6954656 -0.139347E-02  0.176E-01    1.21       1.0  T
   7    -84.6958646 -0.399031E-03  0.102E-01    1.21       1.0  T
   8    -84.6959881 -0.123431E-03  0.636E-02    1.20       1.0  T
   9    -84.6960645 -0.764429E-04  0.264E-02    1.19       1.0  T
  10    -84.6960767 -0.122185E-04  0.132E-02    1.20       1.1  T
  11    -84.6960798 -0.309811E-05  0.678E-03    1.19       2.1  T
  12    -84.6960805 -0.657401E-06  0.261E-03    1.19       5.4  T
  13    -84.6960805 -0.519481E-07  0.152E-03    1.19       9.3  T
  14    -84.6960805 -0.122590E-07  0.769E-04    1.19      18.4  T
  15    -84.6960805 -0.616640E-08  0.343E-04    1.19      41.2  T

   *** convergence criteria satisfied after 15 iterations ***

         #    Occupation            Energy/Eh            Energy/eV
      -------------------------------------------------------------
         1        2.0000           -1.0099551             -27.4823
       ...           ...                  ...                  ...
        71        2.0000           -0.4019079             -10.9365
        72        2.0000           -0.3990634             -10.8591
        73        2.0000           -0.3936095             -10.7107
        74        2.0000           -0.3908313             -10.6351
        75        2.0000           -0.3892942             -10.5932
        76        2.0000           -0.3781859             -10.2910
        77        2.0000           -0.3605459              -9.8110 (HOMO)
        78                         -0.3166393              -8.6162 (LUMO)
        79                         -0.2692258              -7.3260
        80                         -0.2520620              -6.8590
        81                         -0.2356223              -6.4116
        82                         -0.2296576              -6.2493
       ...                                ...                  ...
       165                          0.7031173              19.1328
      -------------------------------------------------------------
                  HL-Gap            0.0439066 Eh            1.1948 eV
             Fermi-level           -0.3385926 Eh           -9.2136 eV

 SCC (total)                   0 d,  0 h,  0 min,  0.462 sec
 SCC setup                      ...        0 min,  0.002 sec (  0.421%)
 Dispersion                     ...        0 min,  0.002 sec (  0.431%)
 classical contributions        ...        0 min,  0.000 sec (  0.049%)
 integral evaluation            ...        0 min,  0.011 sec (  2.387%)
 iterations                     ...        0 min,  0.428 sec ( 92.616%)
 molecular gradient             ...        0 min,  0.017 sec (  3.576%)
 printout                       ...        0 min,  0.002 sec (  0.438%)

         :::::::::::::::::::::::::::::::::::::::::::::::::::::
         ::                     SUMMARY                     ::
         :::::::::::::::::::::::::::::::::::::::::::::::::::::
         :: total energy             -83.626972178643 Eh    ::
         :: total w/o Gsasa/hb       -83.620170227393 Eh    ::
         :: gradient norm              0.100102540347 Eh/a0 ::
         :: HOMO-LUMO gap              1.194759678511 eV    ::
         ::.................................................::
         :: SCC energy               -84.696080542479 Eh    ::
         :: -> isotropic ES            0.136662933330 Eh    ::
         :: -> anisotropic ES         -0.026738772146 Eh    ::
         :: -> anisotropic XC          0.032733992008 Eh    ::
         :: -> dispersion             -0.064939767002 Eh    ::
         :: -> Gsolv                  -0.071816583809 Eh    ::
         ::    -> Gelec               -0.065014632559 Eh    ::
         ::    -> Gsasa                0.000556139802 Eh    ::
         ::    -> Ghb                 -0.008438850750 Eh    ::
         ::    -> Gshift               0.001080759698 Eh    ::
         :: repulsion energy           1.069664182011 Eh    ::
         :: add. restraining           0.000000000000 Eh    ::
         :: total charge               0.000000000000 e     ::
         :::::::::::::::::::::::::::::::::::::::::::::::::::::

      ----------------------------------------------------------- 
     |                   =====================                   |
     |                        A N C O P T                        |
     |                   =====================                   |
     |               Approximate Normal Coordinate               |
     |                Rational Function Optimizer                |
      ----------------------------------------------------------- 

          ...................................................
          :                      SETUP                      :
          :.................................................:
          :   optimization level            normal          :
          :   max. optcycles                   200          :
          :   ANC micro-cycles                  20          :
          :   degrees of freedom               144          :
          :.................................................:
          :   RF solver                   davidson          :
          :   write xtbopt.log                true          :
          :   linear?                        false          :
          :   energy convergence         0.5000000E-05 Eh   :
          :   grad. convergence          0.1000000E-02 Eh/α :
          :   maximium RF displ.         1.0000000          :
          :   Hlow (freq-cutoff)         0.1000000E-01      :
          :   Hmax (freq-cutoff)         5.0000000          :
          :   S6 in model hess.         20.0000000          :
          ...................................................

generating ANC from model Hessian ...
Using Lindh-Hessian (1995)
 Shifting diagonal of input Hessian by    9.9302162048035009E-003
 Lowest  eigenvalues of input Hessian
    0.000000    0.000000    0.000000    0.000000    0.000000    0.000000
    0.010000    0.010095    0.010124    0.010426    0.010456    0.010731
    0.011148    0.011321    0.011923    0.012355    0.012989    0.013219
 Highest eigenvalues
    1.815386    1.828221    1.840737    1.926274    1.946958    1.973571


........................................................................
.............................. CYCLE    1 ..............................
........................................................................
   1    -84.6960805 -0.846961E+02  0.192E-04    1.19       0.0  T
   2    -84.6960805 -0.196309E-09  0.135E-04    1.19     105.1  T
   3    -84.6960805 -0.148574E-09  0.106E-04    1.19     133.4  T
     SCC iter.                  ...        0 min,  0.068 sec
     gradient                   ...        0 min,  0.015 sec
 * total energy  :   -83.6269722 Eh     change       -0.1844484E-08 Eh
   gradient norm :     0.1001030 Eh/α   predicted     0.0000000E+00 (-100.00%)
   displ. norm   :     0.4389749 α      lambda       -0.2362494E-01
   maximum displ.:     0.1595968 α      in ANC's #35, #26, #31, ...

........................................................................
.............................. CYCLE    2 ..............................
........................................................................
   1    -84.7605989 -0.847606E+02  0.215E-01    1.28       0.0  T
   2    -84.7607563 -0.157357E-03  0.125E-01    1.28       1.0  T
   3    -84.7607240  0.322826E-04  0.526E-02    1.27       1.0  T
   4    -84.7607889 -0.649377E-04  0.228E-02    1.26       1.0  T
   5    -84.7607965 -0.760967E-05  0.889E-03    1.26       1.6  T
   6    -84.7607976 -0.104378E-05  0.505E-03    1.26       2.8  T
   7    -84.7607978 -0.245274E-06  0.279E-03    1.26       5.1  T
   8    -84.7607979 -0.587980E-07  0.136E-03    1.26      10.4  T
   9    -84.7607979 -0.181593E-07  0.770E-04    1.26      18.4  T
  10    -84.7607979 -0.835205E-08  0.412E-04    1.26      34.3  T
     SCC iter.                  ...        0 min,  0.230 sec
     gradient                   ...        0 min,  0.014 sec
 * total energy  :   -83.6438813 Eh     change       -0.1690912E-01 Eh
   gradient norm :     0.0521770 Eh/α   predicted    -0.1408891E-01 ( -16.68%)
   displ. norm   :     0.4313639 α      lambda       -0.9762863E-02
   maximum displ.:     0.1749746 α      in ANC's #26, #16, #29, ...

........................................................................
.............................. CYCLE    3 ..............................
........................................................................
   1    -84.8002879 -0.848003E+02  0.168E-01    1.33       0.0  T
   2    -84.8003827 -0.948677E-04  0.950E-02    1.33       1.0  T
   3    -84.8003695  0.132471E-04  0.389E-02    1.32       1.0  T
   4    -84.8003998 -0.303375E-04  0.189E-02    1.31       1.0  T
   5    -84.8004059 -0.611092E-05  0.702E-03    1.31       2.0  T
   6    -84.8004066 -0.637209E-06  0.425E-03    1.31       3.3  T
   7    -84.8004068 -0.201318E-06  0.266E-03    1.31       5.3  T
   8    -84.8004068 -0.650378E-07  0.135E-03    1.31      10.5  T
   9    -84.8004069 -0.195547E-07  0.789E-04    1.31      17.9  T
  10    -84.8004069 -0.779870E-08  0.464E-04    1.31      30.5  T
     SCC iter.                  ...        0 min,  0.228 sec
     gradient                   ...        0 min,  0.014 sec
 * total energy  :   -83.6498940 Eh     change       -0.6012734E-02 Eh
   gradient norm :     0.0213640 Eh/α   predicted    -0.5789747E-02 (  -3.71%)
   displ. norm   :     0.3572420 α      lambda       -0.2536118E-02
   maximum displ.:     0.1639680 α      in ANC's #16, #13, #26, ...

........................................................................
.............................. CYCLE    4 ..............................
........................................................................
   1    -84.8060170 -0.848060E+02  0.101E-01    1.31       0.0  T
   2    -84.8060392 -0.221927E-04  0.550E-02    1.31       1.0  T
   3    -84.8060364  0.276383E-05  0.210E-02    1.31       1.0  T
   4    -84.8060441 -0.765876E-05  0.986E-03    1.31       1.4  T
   5    -84.8060452 -0.111886E-05  0.547E-03    1.31       2.6  T
   6    -84.8060456 -0.381073E-06  0.363E-03    1.31       3.9  T
   7    -84.8060457 -0.152422E-06  0.222E-03    1.31       6.4  T
   8    -84.8060458 -0.635913E-07  0.975E-04    1.31      14.5  T
   9    -84.8060458 -0.135975E-07  0.464E-04    1.31      30.5  T
     SCC iter.                  ...        0 min,  0.183 sec
     gradient                   ...        0 min,  0.012 sec
 * total energy  :   -83.6517488 Eh     change       -0.1854750E-02 Eh
   gradient norm :     0.0138354 Eh/α   predicted    -0.1430077E-02 ( -22.90%)
   displ. norm   :     0.4299130 α      lambda       -0.1752568E-02
   maximum displ.:     0.1970671 α      in ANC's #16, #13, #6, ...

........................................................................
.............................. CYCLE    5 ..............................
........................................................................
   1    -84.8068351 -0.848068E+02  0.996E-02    1.29       0.0  T
   2    -84.8068509 -0.157647E-04  0.558E-02    1.29       1.0  T
   3    -84.8068462  0.460930E-05  0.213E-02    1.29       1.0  T
   4    -84.8068560 -0.976845E-05  0.994E-03    1.29       1.4  T
   5    -84.8068570 -0.957563E-06  0.610E-03    1.29       2.3  T
   6    -84.8068574 -0.446245E-06  0.417E-03    1.29       3.4  T
   7    -84.8068576 -0.218211E-06  0.234E-03    1.29       6.1  T
   8    -84.8068577 -0.674625E-07  0.999E-04    1.29      14.2  T
   9    -84.8068577 -0.218814E-07  0.403E-04    1.29      35.1  T
     SCC iter.                  ...        0 min,  0.184 sec
     gradient                   ...        0 min,  0.013 sec
 * total energy  :   -83.6529854 Eh     change       -0.1236570E-02 Eh
   gradient norm :     0.0105489 Eh/α   predicted    -0.1038246E-02 ( -16.04%)
   displ. norm   :     0.3934988 α      lambda       -0.9740103E-03
   maximum displ.:     0.1762362 α      in ANC's #6, #13, #16, ...

........................................................................
.............................. CYCLE    6 ..............................
........................................................................
   1    -84.8071730 -0.848072E+02  0.752E-02    1.28       0.0  T
   2    -84.8071794 -0.639307E-05  0.429E-02    1.27       1.0  T
   3    -84.8071774  0.196223E-05  0.148E-02    1.27       1.0  T
   4    -84.8071820 -0.458043E-05  0.790E-03    1.27       1.8  T
   5    -84.8071827 -0.689597E-06  0.491E-03    1.27       2.9  T
   6    -84.8071829 -0.224157E-06  0.346E-03    1.27       4.1  T
   7    -84.8071831 -0.171226E-06  0.178E-03    1.27       8.0  T
   8    -84.8071832 -0.411347E-07  0.716E-04    1.27      19.7  T
   9    -84.8071832 -0.110350E-07  0.275E-04    1.27      51.4  T
     SCC iter.                  ...        0 min,  0.183 sec
     gradient                   ...        0 min,  0.013 sec
 * total energy  :   -83.6537224 Eh     change       -0.7370419E-03 Eh
   gradient norm :     0.0117037 Eh/α   predicted    -0.5624152E-03 ( -23.69%)
   displ. norm   :     0.4150283 α      lambda       -0.8763457E-03
   maximum displ.:     0.2064758 α      in ANC's #6, #13, #8, ...

........................................................................
.............................. CYCLE    7 ..............................
........................................................................
   1    -84.8086156 -0.848086E+02  0.779E-02    1.26       0.0  T
   2    -84.8086214 -0.574609E-05  0.450E-02    1.26       1.0  T
   3    -84.8086214  0.894332E-09  0.124E-02    1.26       1.1  T
   4    -84.8086236 -0.221951E-05  0.799E-03    1.26       1.8  T
   5    -84.8086244 -0.856426E-06  0.501E-03    1.26       2.8  T
   6    -84.8086247 -0.233621E-06  0.330E-03    1.26       4.3  T
   7    -84.8086248 -0.146509E-06  0.180E-03    1.26       7.9  T
   8    -84.8086249 -0.524830E-07  0.595E-04    1.26      23.8  T
   9    -84.8086249 -0.612997E-08  0.259E-04    1.26      54.6  T
     SCC iter.                  ...        0 min,  0.181 sec
     gradient                   ...        0 min,  0.014 sec
 * total energy  :   -83.6543958 Eh     change       -0.6734252E-03 Eh
   gradient norm :     0.0105284 Eh/α   predicted    -0.5136485E-03 ( -23.73%)
   displ. norm   :     0.4065422 α      lambda       -0.7076041E-03
   maximum displ.:     0.2203594 α      in ANC's #6, #8, #13, ...

........................................................................
.............................. CYCLE    8 ..............................
........................................................................
   1    -84.8105705 -0.848106E+02  0.823E-02    1.26       0.0  T
   2    -84.8105771 -0.656554E-05  0.472E-02    1.25       1.0  T
   3    -84.8105774 -0.305784E-06  0.122E-02    1.26       1.2  T
   4    -84.8105794 -0.201120E-05  0.763E-03    1.26       1.9  T
   5    -84.8105801 -0.694701E-06  0.496E-03    1.26       2.9  T
   6    -84.8105803 -0.241170E-06  0.338E-03    1.26       4.2  T
   7    -84.8105805 -0.165929E-06  0.176E-03    1.26       8.0  T
   8    -84.8105805 -0.443518E-07  0.592E-04    1.26      23.9  T
   9    -84.8105805 -0.689897E-08  0.266E-04    1.26      53.2  T
     SCC iter.                  ...        0 min,  0.180 sec
     gradient                   ...        0 min,  0.012 sec
 * total energy  :   -83.6549239 Eh     change       -0.5281028E-03 Eh
   gradient norm :     0.0079950 Eh/α   predicted    -0.4122778E-03 ( -21.93%)
   displ. norm   :     0.3912765 α      lambda       -0.4704092E-03
   maximum displ.:     0.2197122 α      in ANC's #6, #5, #13, ...

........................................................................
.............................. CYCLE    9 ..............................
........................................................................
   1    -84.8113295 -0.848113E+02  0.815E-02    1.25       0.0  T
   2    -84.8113344 -0.491139E-05  0.466E-02    1.25       1.0  T
   3    -84.8113342  0.219003E-06  0.123E-02    1.25       1.2  T
   4    -84.8113368 -0.254971E-05  0.751E-03    1.25       1.9  T
   5    -84.8113374 -0.575520E-06  0.487E-03    1.25       2.9  T
   6    -84.8113376 -0.249670E-06  0.338E-03    1.25       4.2  T
   7    -84.8113378 -0.173444E-06  0.159E-03    1.25       8.9  T
   8    -84.8113378 -0.335510E-07  0.534E-04    1.25      26.5  T
   9    -84.8113378 -0.632494E-08  0.225E-04    1.25      62.8  T
     SCC iter.                  ...        0 min,  0.180 sec
     gradient                   ...        0 min,  0.013 sec
 * total energy  :   -83.6552848 Eh     change       -0.3608950E-03 Eh
   gradient norm :     0.0069217 Eh/α   predicted    -0.2712146E-03 ( -24.85%)
   displ. norm   :     0.4061474 α      lambda       -0.4164324E-03
   maximum displ.:     0.2316594 α      in ANC's #6, #5, #12, ...

........................................................................
.............................. CYCLE   10 ..............................
........................................................................
   1    -84.8124824 -0.848125E+02  0.893E-02    1.25       0.0  T
   2    -84.8124873 -0.486281E-05  0.509E-02    1.25       1.0  T
   3    -84.8124868  0.513249E-06  0.129E-02    1.25       1.1  T
   4    -84.8124896 -0.281263E-05  0.793E-03    1.25       1.8  T
   5    -84.8124903 -0.692276E-06  0.499E-03    1.25       2.8  T
   6    -84.8124906 -0.260339E-06  0.348E-03    1.25       4.1  T
   7    -84.8124907 -0.180997E-06  0.171E-03    1.25       8.3  T
   8    -84.8124908 -0.387453E-07  0.551E-04    1.25      25.7  T
   9    -84.8124908 -0.778108E-08  0.205E-04    1.25      69.0  T
     SCC iter.                  ...        0 min,  0.183 sec
     gradient                   ...        0 min,  0.013 sec
 * total energy  :   -83.6556092 Eh     change       -0.3243968E-03 Eh
   gradient norm :     0.0071836 Eh/α   predicted    -0.2425647E-03 ( -25.23%)
   displ. norm   :     0.5074748 α      lambda       -0.4508344E-03
   maximum displ.:     0.2838868 α      in ANC's #6, #5, #18, ...

........................................................................
.............................. CYCLE   11 ..............................
........................................................................
   1    -84.8093980 -0.848094E+02  0.110E-01    1.25       0.0  T
   2    -84.8094045 -0.658828E-05  0.634E-02    1.25       1.0  T
   3    -84.8094038  0.770661E-06  0.155E-02    1.25       1.0  T
   4    -84.8094077 -0.396617E-05  0.964E-03    1.25       1.5  T
   5    -84.8094088 -0.110849E-05  0.584E-03    1.25       2.4  T
   6    -84.8094092 -0.312665E-06  0.409E-03    1.25       3.5  T
   7    -84.8094094 -0.245678E-06  0.215E-03    1.25       6.6  T
   8    -84.8094095 -0.679300E-07  0.593E-04    1.25      23.9  T
   9    -84.8094095 -0.748450E-08  0.256E-04    1.25      55.2  T
     SCC iter.                  ...        0 min,  0.186 sec
     gradient                   ...        0 min,  0.013 sec
 * total energy  :   -83.6559008 Eh     change       -0.2916180E-03 Eh
   gradient norm :     0.0095468 Eh/α   predicted    -0.2834730E-03 (  -2.79%)
   displ. norm   :     0.3827018 α      lambda       -0.5170421E-03
   maximum displ.:     0.1975680 α      in ANC's #6, #5, #12, ...

........................................................................
.............................. CYCLE   12 ..............................
........................................................................
   1    -84.8130860 -0.848131E+02  0.929E-02    1.25       0.0  T
   2    -84.8130923 -0.630484E-05  0.523E-02    1.25       1.0  T
   3    -84.8130914  0.879868E-06  0.119E-02    1.25       1.2  T
   4    -84.8130932 -0.173935E-05  0.685E-03    1.25       2.1  T
   5    -84.8130940 -0.895725E-06  0.352E-03    1.25       4.0  T
   6    -84.8130942 -0.122182E-06  0.222E-03    1.25       6.4  T
   7    -84.8130942 -0.419318E-07  0.149E-03    1.25       9.5  T
   8    -84.8130943 -0.400504E-07  0.490E-04    1.25      28.9  T
   9    -84.8130943 -0.325953E-08  0.244E-04    1.25      58.0  T
     SCC iter.                  ...        0 min,  0.192 sec
     gradient                   ...        0 min,  0.013 sec
 * total energy  :   -83.6561943 Eh     change       -0.2934207E-03 Eh
   gradient norm :     0.0095416 Eh/α   predicted    -0.2963870E-03 (   1.01%)
   displ. norm   :     0.3333627 α      lambda       -0.3103704E-03
   maximum displ.:     0.1717083 α      in ANC's #6, #5, #25, ...

........................................................................
.............................. CYCLE   13 ..............................
........................................................................
   1    -84.8104140 -0.848104E+02  0.759E-02    1.25       0.0  T
   2    -84.8104162 -0.227257E-05  0.432E-02    1.25       1.0  T
   3    -84.8104155  0.705110E-06  0.813E-03    1.25       1.7  T
   4    -84.8104167 -0.114061E-05  0.453E-03    1.25       3.1  T
   5    -84.8104170 -0.361532E-06  0.211E-03    1.25       6.7  T
   6    -84.8104171 -0.447359E-07  0.142E-03    1.25       9.9  T
   7    -84.8104171 -0.213119E-07  0.979E-04    1.25      14.4  T
   8    -84.8104171 -0.140767E-07  0.321E-04    1.25      44.0  T
     SCC iter.                  ...        0 min,  0.165 sec
     gradient                   ...        0 min,  0.013 sec
 * total energy  :   -83.6564377 Eh     change       -0.2434176E-03 Eh
   gradient norm :     0.0077824 Eh/α   predicted    -0.1724335E-03 ( -29.16%)
   displ. norm   :     0.3906415 α      lambda       -0.3869939E-03
   maximum displ.:     0.1899958 α      in ANC's #5, #6, #25, ...

........................................................................
.............................. CYCLE   14 ..............................
........................................................................
   1    -84.8095210 -0.848095E+02  0.879E-02    1.25       0.0  T
   2    -84.8095248 -0.382448E-05  0.494E-02    1.25       1.0  T
   3    -84.8095225  0.231413E-05  0.112E-02    1.25       1.3  T
   4    -84.8095254 -0.290605E-05  0.505E-03    1.25       2.8  T
   5    -84.8095259 -0.480706E-06  0.207E-03    1.25       6.8  T
   6    -84.8095259 -0.721566E-07  0.113E-03    1.25      12.5  T
   7    -84.8095260 -0.140949E-07  0.739E-04    1.25      19.1  T
   8    -84.8095260 -0.425638E-08  0.443E-04    1.25      31.9  T
     SCC iter.                  ...        0 min,  0.164 sec
     gradient                   ...        0 min,  0.012 sec
 * total energy  :   -83.6567066 Eh     change       -0.2689061E-03 Eh
   gradient norm :     0.0065371 Eh/α   predicted    -0.2230258E-03 ( -17.06%)
   displ. norm   :     0.3993291 α      lambda       -0.2627035E-03
   maximum displ.:     0.2010625 α      in ANC's #5, #6, #12, ...

........................................................................
.............................. CYCLE   15 ..............................
........................................................................
   1    -84.8060360 -0.848060E+02  0.964E-02    1.24       0.0  T
   2    -84.8060401 -0.415238E-05  0.543E-02    1.24       1.0  T
   3    -84.8060383  0.182263E-05  0.113E-02    1.24       1.2  T
   4    -84.8060410 -0.270454E-05  0.529E-03    1.24       2.7  T
   5    -84.8060414 -0.387925E-06  0.226E-03    1.24       6.2  T
   6    -84.8060414 -0.456895E-07  0.154E-03    1.24       9.2  T
   7    -84.8060414 -0.279124E-07  0.106E-03    1.24      13.3  T
   8    -84.8060415 -0.125019E-07  0.521E-04    1.24      27.1  T
   9    -84.8060415 -0.608740E-08  0.222E-04    1.24      63.6  T
     SCC iter.                  ...        0 min,  0.181 sec
     gradient                   ...        0 min,  0.013 sec
 * total energy  :   -83.6568468 Eh     change       -0.1402345E-03 Eh
   gradient norm :     0.0085307 Eh/α   predicted    -0.1522984E-03 (   8.60%)
   displ. norm   :     0.2568505 α      lambda       -0.2974149E-03
   maximum displ.:     0.0929649 α      in ANC's #10, #1, #5, ...

........................................................................
.............................. CYCLE   16 ..............................
........................................................................
   1    -84.8131928 -0.848132E+02  0.614E-02    1.24       0.0  T
   2    -84.8131969 -0.407001E-05  0.344E-02    1.24       1.0  T
   3    -84.8131946  0.232278E-05  0.113E-02    1.24       1.2  T
   4    -84.8131978 -0.324630E-05  0.413E-03    1.24       3.4  T
   5    -84.8131981 -0.247862E-06  0.200E-03    1.24       7.1  T
   6    -84.8131981 -0.344383E-07  0.142E-03    1.24      10.0  T
   7    -84.8131981 -0.267466E-07  0.885E-04    1.24      16.0  T
   8    -84.8131981 -0.887020E-08  0.485E-04    1.24      29.2  T
     SCC iter.                  ...        0 min,  0.159 sec
     gradient                   ...        0 min,  0.013 sec
 * total energy  :   -83.6569687 Eh     change       -0.1218996E-03 Eh
   gradient norm :     0.0078953 Eh/α   predicted    -0.1585314E-03 (  30.05%)
   displ. norm   :     0.2342358 α      lambda       -0.1811970E-03
   maximum displ.:     0.1169015 α      in ANC's #5, #6, #12, ...

........................................................................
.............................. CYCLE   17 ..............................
........................................................................
   1    -84.8123029 -0.848123E+02  0.542E-02    1.24       0.0  T
   2    -84.8123052 -0.229945E-05  0.304E-02    1.24       1.0  T
   3    -84.8123034  0.175739E-05  0.985E-03    1.24       1.4  T
   4    -84.8123061 -0.269265E-05  0.447E-03    1.24       3.2  T
   5    -84.8123063 -0.170604E-06  0.264E-03    1.24       5.4  T
   6    -84.8123064 -0.826534E-07  0.184E-03    1.24       7.7  T
   7    -84.8123064 -0.414628E-07  0.113E-03    1.24      12.5  T
   8    -84.8123064 -0.178721E-07  0.359E-04    1.24      39.4  T
   9    -84.8123064 -0.282034E-08  0.144E-04    1.24      98.4  T
     SCC iter.                  ...        0 min,  0.181 sec
     gradient                   ...        0 min,  0.013 sec
 * total energy  :   -83.6570775 Eh     change       -0.1087710E-03 Eh
   gradient norm :     0.0063990 Eh/α   predicted    -0.9557823E-04 ( -12.13%)
   displ. norm   :     0.2264916 α      lambda       -0.2096956E-03
   maximum displ.:     0.0981687 α      in ANC's #5, #6, #12, ...

........................................................................
.............................. CYCLE   18 ..............................
........................................................................
   1    -84.8128974 -0.848129E+02  0.495E-02    1.23       0.0  T
   2    -84.8129012 -0.385044E-05  0.274E-02    1.23       1.0  T
   3    -84.8128999  0.129049E-05  0.108E-02    1.23       1.3  T
   4    -84.8129023 -0.234188E-05  0.554E-03    1.23       2.6  T
   5    -84.8129027 -0.453885E-06  0.321E-03    1.23       4.4  T
   6    -84.8129028 -0.929088E-07  0.222E-03    1.23       6.4  T
   7    -84.8129029 -0.687759E-07  0.124E-03    1.23      11.4  T
   8    -84.8129029 -0.189342E-07  0.522E-04    1.23      27.1  T
   9    -84.8129029 -0.542055E-08  0.229E-04    1.23      61.8  T
     SCC iter.                  ...        0 min,  0.179 sec
     gradient                   ...        0 min,  0.013 sec
 * total energy  :   -83.6571776 Eh     change       -0.1001376E-03 Eh
   gradient norm :     0.0053597 Eh/α   predicted    -0.1102276E-03 (  10.08%)
   displ. norm   :     0.2204211 α      lambda       -0.9926141E-04
   maximum displ.:     0.1098377 α      in ANC's #5, #1, #6, ...

........................................................................
.............................. CYCLE   19 ..............................
........................................................................
   1    -84.8126370 -0.848126E+02  0.469E-02    1.23       0.0  T
   2    -84.8126377 -0.690953E-06  0.267E-02    1.23       1.0  T
   3    -84.8126378 -0.153696E-06  0.412E-03    1.23       3.4  T
   4    -84.8126379 -0.508029E-07  0.257E-03    1.23       5.5  T
   5    -84.8126380 -0.118171E-06  0.142E-03    1.23       9.9  T
   6    -84.8126380 -0.182698E-07  0.102E-03    1.23      13.8  T
   7    -84.8126380 -0.111264E-07  0.618E-04    1.23      22.9  T
   8    -84.8126380 -0.808230E-08  0.187E-04    1.23      75.5  T
     SCC iter.                  ...        0 min,  0.161 sec
     gradient                   ...        0 min,  0.013 sec
 * total energy  :   -83.6572559 Eh     change       -0.7827360E-04 Eh
   gradient norm :     0.0046836 Eh/α   predicted    -0.5204555E-04 ( -33.51%)
   displ. norm   :     0.3227136 α      lambda       -0.1434609E-03
   maximum displ.:     0.1576059 α      in ANC's #5, #1, #2, ...

........................................................................
.............................. CYCLE   20 ..............................
........................................................................
   1    -84.8138635 -0.848139E+02  0.626E-02    1.23       0.0  T
   2    -84.8138649 -0.147209E-05  0.357E-02    1.23       1.0  T
   3    -84.8138651 -0.195949E-06  0.683E-03    1.23       2.1  T
   4    -84.8138656 -0.431268E-06  0.454E-03    1.23       3.1  T
   5    -84.8138659 -0.302318E-06  0.257E-03    1.23       5.5  T
   6    -84.8138659 -0.603867E-07  0.185E-03    1.23       7.7  T
   7    -84.8138660 -0.428959E-07  0.932E-04    1.23      15.2  T
   8    -84.8138660 -0.169724E-07  0.281E-04    1.23      50.3  T
     SCC iter.                  ...        0 min,  0.158 sec
     gradient                   ...        0 min,  0.012 sec
 * total energy  :   -83.6573603 Eh     change       -0.1044281E-03 Eh
   gradient norm :     0.0046194 Eh/α   predicted    -0.7920398E-04 ( -24.15%)
   displ. norm   :     0.4570006 α      lambda       -0.1460040E-03
   maximum displ.:     0.2315242 α      in ANC's #5, #1, #2, ...
 * RMSD in coord.:     0.7886995 α      energy gain  -0.3038814E-01 Eh

generating ANC from model Hessian ...
Using Lindh-Hessian (1995)
 Shifting diagonal of input Hessian by    1.0013210375039567E-002
 Lowest  eigenvalues of input Hessian
    0.010000    0.000000    0.000000    0.000000    0.000000    0.000000
    0.000000    0.010136    0.010243    0.010399    0.010554    0.010776
    0.011378    0.011426    0.011852    0.012588    0.013050    0.013692
 Highest eigenvalues
    1.901406    1.930841    1.949414    2.011966    2.095926    2.177075


........................................................................
.............................. CYCLE   21 ..............................
........................................................................
   1    -84.8124670 -0.848125E+02  0.895E-02    1.22       0.0  T
   2    -84.8124693 -0.230762E-05  0.516E-02    1.22       1.0  T
   3    -84.8124699 -0.556986E-06  0.935E-03    1.22       1.5  T
   4    -84.8124707 -0.796610E-06  0.648E-03    1.22       2.2  T
   5    -84.8124713 -0.628452E-06  0.363E-03    1.22       3.9  T
   6    -84.8124714 -0.118028E-06  0.257E-03    1.22       5.5  T
   7    -84.8124715 -0.977906E-07  0.893E-04    1.22      15.8  T
   8    -84.8124716 -0.192092E-07  0.338E-04    1.22      41.8  T
     SCC iter.                  ...        0 min,  0.161 sec
     gradient                   ...        0 min,  0.013 sec
 * total energy  :   -83.6574716 Eh     change       -0.1112779E-03 Eh
   gradient norm :     0.0056777 Eh/α   predicted     0.0000000E+00 (-100.00%)
   displ. norm   :     0.0517818 α      lambda       -0.8079628E-04
   maximum displ.:     0.0179699 α      in ANC's #5, #24, #1, ...

........................................................................
.............................. CYCLE   22 ..............................
........................................................................
   1    -84.8135742 -0.848136E+02  0.144E-02    1.22       0.0  T
   2    -84.8135745 -0.218099E-06  0.811E-03    1.22       1.7  T
   3    -84.8135744  0.832421E-07  0.269E-03    1.22       5.3  T
   4    -84.8135745 -0.137848E-06  0.131E-03    1.22      10.8  T
   5    -84.8135745 -0.257904E-07  0.715E-04    1.22      19.8  T
   6    -84.8135745 -0.379205E-08  0.490E-04    1.22      28.9  T
     SCC iter.                  ...        0 min,  0.121 sec
     gradient                   ...        0 min,  0.014 sec
 * total energy  :   -83.6575355 Eh     change       -0.6394965E-04 Eh
   gradient norm :     0.0024993 Eh/α   predicted    -0.4106539E-04 ( -35.78%)
   displ. norm   :     0.1305064 α      lambda       -0.1040764E-03
   maximum displ.:     0.0511711 α      in ANC's #5, #6, #3, ...

........................................................................
.............................. CYCLE   23 ..............................
........................................................................
   1    -84.8145121 -0.848145E+02  0.283E-02    1.23       0.0  T
   2    -84.8145127 -0.645430E-06  0.159E-02    1.23       1.0  T
   3    -84.8145126  0.176772E-06  0.463E-03    1.23       3.1  T
   4    -84.8145129 -0.361475E-06  0.257E-03    1.23       5.5  T
   5    -84.8145130 -0.102072E-06  0.147E-03    1.23       9.6  T
   6    -84.8145130 -0.184010E-07  0.102E-03    1.23      13.9  T
   7    -84.8145131 -0.143909E-07  0.575E-04    1.23      24.6  T
   8    -84.8145131 -0.430526E-08  0.231E-04    1.23      61.2  T
     SCC iter.                  ...        0 min,  0.165 sec
     gradient                   ...        0 min,  0.013 sec
 * total energy  :   -83.6576076 Eh     change       -0.7206631E-04 Eh
   gradient norm :     0.0027615 Eh/α   predicted    -0.5292536E-04 ( -26.56%)
   displ. norm   :     0.1506745 α      lambda       -0.6909438E-04
   maximum displ.:     0.0632006 α      in ANC's #5, #2, #3, ...

........................................................................
.............................. CYCLE   24 ..............................
........................................................................
   1    -84.8143795 -0.848144E+02  0.296E-02    1.23       0.0  T
   2    -84.8143800 -0.503560E-06  0.167E-02    1.23       1.0  T
   3    -84.8143799  0.980947E-07  0.400E-03    1.23       3.5  T
   4    -84.8143802 -0.259399E-06  0.235E-03    1.23       6.0  T
   5    -84.8143802 -0.815233E-07  0.137E-03    1.23      10.3  T
   6    -84.8143803 -0.182387E-07  0.964E-04    1.23      14.7  T
   7    -84.8143803 -0.127240E-07  0.536E-04    1.23      26.4  T
     SCC iter.                  ...        0 min,  0.143 sec
     gradient                   ...        0 min,  0.014 sec
 * total energy  :   -83.6576624 Eh     change       -0.5479253E-04 Eh
   gradient norm :     0.0042757 Eh/α   predicted    -0.3539391E-04 ( -35.40%)
   displ. norm   :     0.2348632 α      lambda       -0.9567126E-04
   maximum displ.:     0.1030912 α      in ANC's #5, #2, #3, ...

........................................................................
.............................. CYCLE   25 ..............................
........................................................................
   1    -84.8133675 -0.848134E+02  0.450E-02    1.23       0.0  T
   2    -84.8133684 -0.872662E-06  0.257E-02    1.23       1.0  T
   3    -84.8133682  0.179179E-06  0.562E-03    1.23       2.5  T
   4    -84.8133687 -0.531229E-06  0.335E-03    1.23       4.2  T
   5    -84.8133689 -0.142588E-06  0.193E-03    1.23       7.3  T
   6    -84.8133689 -0.380783E-07  0.137E-03    1.23      10.3  T
   7    -84.8133689 -0.243651E-07  0.751E-04    1.23      18.8  T
   8    -84.8133689 -0.879508E-08  0.243E-04    1.23      58.3  T
     SCC iter.                  ...        0 min,  0.159 sec
     gradient                   ...        0 min,  0.013 sec
 * total energy  :   -83.6577370 Eh     change       -0.7460860E-04 Eh
   gradient norm :     0.0044913 Eh/α   predicted    -0.5056959E-04 ( -32.22%)
   displ. norm   :     0.2642783 α      lambda       -0.9753770E-04
   maximum displ.:     0.1238278 α      in ANC's #5, #2, #3, ...

........................................................................
.............................. CYCLE   26 ..............................
........................................................................
   1    -84.8122171 -0.848122E+02  0.502E-02    1.23       0.0  T
   2    -84.8122180 -0.869242E-06  0.287E-02    1.23       1.0  T
   3    -84.8122177  0.311461E-06  0.644E-03    1.23       2.2  T
   4    -84.8122184 -0.755897E-06  0.366E-03    1.23       3.9  T
   5    -84.8122185 -0.141877E-06  0.197E-03    1.23       7.2  T
   6    -84.8122186 -0.381656E-07  0.145E-03    1.23       9.8  T
   7    -84.8122186 -0.255630E-07  0.741E-04    1.23      19.1  T
   8    -84.8122186 -0.102841E-07  0.234E-04    1.23      60.4  T
     SCC iter.                  ...        0 min,  0.158 sec
     gradient                   ...        0 min,  0.011 sec
 * total energy  :   -83.6578135 Eh     change       -0.7643701E-04 Eh
   gradient norm :     0.0037800 Eh/α   predicted    -0.5217610E-04 ( -31.74%)
   displ. norm   :     0.2706881 α      lambda       -0.1027066E-03
   maximum displ.:     0.1349947 α      in ANC's #5, #2, #3, ...

........................................................................
.............................. CYCLE   27 ..............................
........................................................................
   1    -84.8117737 -0.848118E+02  0.511E-02    1.22       0.0  T
   2    -84.8117747 -0.953050E-06  0.291E-02    1.22       1.0  T
   3    -84.8117743  0.378910E-06  0.700E-03    1.22       2.0  T
   4    -84.8117752 -0.897603E-06  0.391E-03    1.22       3.6  T
   5    -84.8117754 -0.158055E-06  0.210E-03    1.22       6.7  T
   6    -84.8117754 -0.392019E-07  0.155E-03    1.22       9.1  T
   7    -84.8117754 -0.292371E-07  0.799E-04    1.22      17.7  T
   8    -84.8117754 -0.119415E-07  0.272E-04    1.22      51.9  T
     SCC iter.                  ...        0 min,  0.162 sec
     gradient                   ...        0 min,  0.012 sec
 * total energy  :   -83.6578978 Eh     change       -0.8437204E-04 Eh
   gradient norm :     0.0031643 Eh/α   predicted    -0.5511682E-04 ( -34.67%)
   displ. norm   :     0.3287038 α      lambda       -0.1228158E-03
   maximum displ.:     0.1699175 α      in ANC's #5, #2, #3, ...

........................................................................
.............................. CYCLE   28 ..............................
........................................................................
   1    -84.8118177 -0.848118E+02  0.611E-02    1.22       0.0  T
   2    -84.8118193 -0.157043E-05  0.346E-02    1.22       1.0  T
   3    -84.8118189  0.405362E-06  0.841E-03    1.22       1.7  T
   4    -84.8118201 -0.118878E-05  0.486E-03    1.22       2.9  T
   5    -84.8118203 -0.259381E-06  0.272E-03    1.22       5.2  T
   6    -84.8118204 -0.680756E-07  0.196E-03    1.22       7.2  T
   7    -84.8118205 -0.488063E-07  0.994E-04    1.22      14.2  T
   8    -84.8118205 -0.160348E-07  0.396E-04    1.22      35.7  T
     SCC iter.                  ...        0 min,  0.156 sec
     gradient                   ...        0 min,  0.012 sec
 * total energy  :   -83.6579996 Eh     change       -0.1017462E-03 Eh
   gradient norm :     0.0035647 Eh/α   predicted    -0.6807071E-04 ( -33.10%)
   displ. norm   :     0.3996703 α      lambda       -0.1328074E-03
   maximum displ.:     0.2096234 α      in ANC's #5, #2, #3, ...

........................................................................
.............................. CYCLE   29 ..............................
........................................................................
   1    -84.8118682 -0.848119E+02  0.729E-02    1.21       0.0  T
   2    -84.8118704 -0.219272E-05  0.414E-02    1.21       1.0  T
   3    -84.8118702  0.226315E-06  0.944E-03    1.21       1.5  T
   4    -84.8118715 -0.132810E-05  0.571E-03    1.21       2.5  T
   5    -84.8118719 -0.373475E-06  0.325E-03    1.21       4.4  T
   6    -84.8118720 -0.999208E-07  0.234E-03    1.21       6.1  T
   7    -84.8118721 -0.740994E-07  0.107E-03    1.21      13.2  T
   8    -84.8118721 -0.193214E-07  0.421E-04    1.21      33.6  T
   9    -84.8118721 -0.376839E-08  0.185E-04    1.21      76.6  T
     SCC iter.                  ...        0 min,  0.179 sec
     gradient                   ...        0 min,  0.014 sec
 * total energy  :   -83.6581077 Eh     change       -0.1081517E-03 Eh
   gradient norm :     0.0039789 Eh/α   predicted    -0.7701116E-04 ( -28.79%)
   displ. norm   :     0.4067146 α      lambda       -0.1209904E-03
   maximum displ.:     0.2176767 α      in ANC's #5, #2, #3, ...

........................................................................
.............................. CYCLE   30 ..............................
........................................................................
   1    -84.8126382 -0.848126E+02  0.729E-02    1.20       0.0  T
   2    -84.8126402 -0.197600E-05  0.416E-02    1.21       1.0  T
   3    -84.8126402 -0.136469E-07  0.885E-03    1.21       1.6  T
   4    -84.8126412 -0.105739E-05  0.558E-03    1.21       2.5  T
   5    -84.8126416 -0.365526E-06  0.319E-03    1.21       4.4  T
   6    -84.8126417 -0.996361E-07  0.230E-03    1.21       6.2  T
   7    -84.8126418 -0.732065E-07  0.952E-04    1.21      14.9  T
   8    -84.8126418 -0.187549E-07  0.384E-04    1.21      36.8  T
     SCC iter.                  ...        0 min,  0.160 sec
     gradient                   ...        0 min,  0.014 sec
 * total energy  :   -83.6582065 Eh     change       -0.9879153E-04 Eh
   gradient norm :     0.0038939 Eh/α   predicted    -0.7050318E-04 ( -28.63%)
   displ. norm   :     0.4747544 α      lambda       -0.1151736E-03
   maximum displ.:     0.2519802 α      in ANC's #5, #2, #3, ...

........................................................................
.............................. CYCLE   31 ..............................
........................................................................
   1    -84.8119169 -0.848119E+02  0.856E-02    1.20       0.0  T
   2    -84.8119193 -0.238766E-05  0.490E-02    1.20       1.0  T
   3    -84.8119198 -0.464222E-06  0.945E-03    1.20       1.5  T
   4    -84.8119206 -0.840953E-06  0.628E-03    1.20       2.3  T
   5    -84.8119211 -0.527945E-06  0.356E-03    1.20       4.0  T
   6    -84.8119212 -0.118573E-06  0.258E-03    1.20       5.5  T
   7    -84.8119213 -0.906126E-07  0.107E-03    1.20      13.3  T
   8    -84.8119214 -0.305479E-07  0.371E-04    1.20      38.1  T
   9    -84.8119214 -0.177366E-08  0.199E-04    1.20      70.9  T
     SCC iter.                  ...        0 min,  0.181 sec
     gradient                   ...        0 min,  0.013 sec
 * total energy  :   -83.6582950 Eh     change       -0.8853067E-04 Eh
   gradient norm :     0.0037281 Eh/α   predicted    -0.7056649E-04 ( -20.29%)
   displ. norm   :     0.4090751 α      lambda       -0.1221954E-03
   maximum displ.:     0.2237787 α      in ANC's #5, #2, #3, ...

........................................................................
.............................. CYCLE   32 ..............................
........................................................................
   1    -84.8146867 -0.848147E+02  0.723E-02    1.20       0.0  T
   2    -84.8146886 -0.188662E-05  0.414E-02    1.20       1.0  T
   3    -84.8146891 -0.468492E-06  0.728E-03    1.20       1.9  T
   4    -84.8146895 -0.419483E-06  0.488E-03    1.20       2.9  T
   5    -84.8146898 -0.298575E-06  0.295E-03    1.20       4.8  T
   6    -84.8146899 -0.931971E-07  0.206E-03    1.20       6.9  T
   7    -84.8146899 -0.504804E-07  0.103E-03    1.20      13.7  T
   8    -84.8146899 -0.238104E-07  0.330E-04    1.20      42.8  T
   9    -84.8146899 -0.201771E-08  0.172E-04    1.20      82.1  T
     SCC iter.                  ...        0 min,  0.182 sec
     gradient                   ...        0 min,  0.013 sec
 * total energy  :   -83.6583681 Eh     change       -0.7309516E-04 Eh
   gradient norm :     0.0039701 Eh/α   predicted    -0.7132361E-04 (  -2.42%)
   displ. norm   :     0.4594593 α      lambda       -0.1075083E-03
   maximum displ.:     0.2496541 α      in ANC's #5, #2, #3, ...

........................................................................
.............................. CYCLE   33 ..............................
........................................................................
   1    -84.8125603 -0.848126E+02  0.845E-02    1.20       0.0  T
   2    -84.8125627 -0.231145E-05  0.482E-02    1.20       1.0  T
   3    -84.8125628 -0.112179E-06  0.832E-03    1.20       1.7  T
   4    -84.8125635 -0.721085E-06  0.519E-03    1.20       2.7  T
   5    -84.8125639 -0.381185E-06  0.287E-03    1.20       4.9  T
   6    -84.8125640 -0.794379E-07  0.209E-03    1.20       6.8  T
   7    -84.8125640 -0.516289E-07  0.119E-03    1.20      11.8  T
   8    -84.8125640 -0.267901E-07  0.373E-04    1.20      37.9  T
   9    -84.8125640 -0.243551E-08  0.190E-04    1.20      74.5  T
     SCC iter.                  ...        0 min,  0.182 sec
     gradient                   ...        0 min,  0.012 sec
 * total energy  :   -83.6584497 Eh     change       -0.8157461E-04 Eh
   gradient norm :     0.0033338 Eh/α   predicted    -0.6515630E-04 ( -20.13%)
   displ. norm   :     0.4268699 α      lambda       -0.1077379E-03
   maximum displ.:     0.2335138 α      in ANC's #5, #2, #3, ...

........................................................................
.............................. CYCLE   34 ..............................
........................................................................
   1    -84.8123917 -0.848124E+02  0.772E-02    1.20       0.0  T
   2    -84.8123936 -0.186947E-05  0.439E-02    1.20       1.0  T
   3    -84.8123936 -0.171399E-07  0.726E-03    1.20       1.9  T
   4    -84.8123942 -0.586328E-06  0.444E-03    1.20       3.2  T
   5    -84.8123945 -0.280882E-06  0.242E-03    1.20       5.8  T
   6    -84.8123946 -0.613042E-07  0.175E-03    1.20       8.1  T
   7    -84.8123946 -0.380402E-07  0.975E-04    1.20      14.5  T
   8    -84.8123946 -0.149570E-07  0.341E-04    1.20      41.4  T
     SCC iter.                  ...        0 min,  0.162 sec
     gradient                   ...        0 min,  0.012 sec
 * total energy  :   -83.6585341 Eh     change       -0.8439089E-04 Eh
   gradient norm :     0.0037499 Eh/α   predicted    -0.6368537E-04 ( -24.54%)
   displ. norm   :     0.4194309 α      lambda       -0.1178226E-03
   maximum displ.:     0.2247905 α      in ANC's #5, #2, #3, ...

........................................................................
.............................. CYCLE   35 ..............................
........................................................................
   1    -84.8129992 -0.848130E+02  0.755E-02    1.20       0.0  T
   2    -84.8130009 -0.166957E-05  0.427E-02    1.20       1.0  T
   3    -84.8130008  0.102692E-06  0.709E-03    1.20       2.0  T
   4    -84.8130014 -0.589372E-06  0.428E-03    1.20       3.3  T
   5    -84.8130017 -0.274604E-06  0.214E-03    1.20       6.6  T
   6    -84.8130017 -0.566281E-07  0.153E-03    1.20       9.2  T
   7    -84.8130018 -0.280144E-07  0.842E-04    1.20      16.8  T
   8    -84.8130018 -0.109316E-07  0.326E-04    1.20      43.4  T
     SCC iter.                  ...        0 min,  0.160 sec
     gradient                   ...        0 min,  0.013 sec
 * total energy  :   -83.6586228 Eh     change       -0.8869700E-04 Eh
   gradient norm :     0.0040767 Eh/α   predicted    -0.6927715E-04 ( -21.89%)
   displ. norm   :     0.4492999 α      lambda       -0.9447470E-04
   maximum displ.:     0.2382114 α      in ANC's #5, #2, #3, ...

........................................................................
.............................. CYCLE   36 ..............................
........................................................................
   1    -84.8121934 -0.848122E+02  0.802E-02    1.20       0.0  T
   2    -84.8121950 -0.152602E-05  0.455E-02    1.20       1.0  T
   3    -84.8121953 -0.346416E-06  0.676E-03    1.20       2.1  T
   4    -84.8121955 -0.140442E-06  0.425E-03    1.19       3.3  T
   5    -84.8121958 -0.332493E-06  0.206E-03    1.20       6.9  T
   6    -84.8121958 -0.329956E-07  0.157E-03    1.20       9.0  T
   7    -84.8121959 -0.318215E-07  0.718E-04    1.20      19.7  T
   8    -84.8121959 -0.109421E-07  0.283E-04    1.20      50.1  T
     SCC iter.                  ...        0 min,  0.163 sec
     gradient                   ...        0 min,  0.013 sec
 * total energy  :   -83.6586989 Eh     change       -0.7607426E-04 Eh
   gradient norm :     0.0043422 Eh/α   predicted    -0.5677546E-04 ( -25.37%)
   displ. norm   :     0.3870949 α      lambda       -0.1213746E-03
   maximum displ.:     0.1827085 α      in ANC's #2, #5, #4, ...

........................................................................
.............................. CYCLE   37 ..............................
........................................................................
   1    -84.8150376 -0.848150E+02  0.682E-02    1.20       0.0  T
   2    -84.8150390 -0.133430E-05  0.385E-02    1.20       1.0  T
   3    -84.8150387  0.258239E-06  0.623E-03    1.20       2.3  T
   4    -84.8150393 -0.553341E-06  0.342E-03    1.20       4.1  T
   5    -84.8150395 -0.202342E-06  0.132E-03    1.20      10.7  T
   6    -84.8150395 -0.172071E-07  0.951E-04    1.20      14.9  T
   7    -84.8150395 -0.102699E-07  0.639E-04    1.20      22.1  T
     SCC iter.                  ...        0 min,  0.143 sec
     gradient                   ...        0 min,  0.013 sec
 * total energy  :   -83.6587784 Eh     change       -0.7947696E-04 Eh
   gradient norm :     0.0041367 Eh/α   predicted    -0.6978959E-04 ( -12.19%)
   displ. norm   :     0.6199805 α      lambda       -0.1302244E-03
   maximum displ.:     0.3212631 α      in ANC's #5, #2, #4, ...

........................................................................
.............................. CYCLE   38 ..............................
........................................................................
   1    -84.8099370 -0.848099E+02  0.117E-01    1.19       0.0  T
   2    -84.8099413 -0.428895E-05  0.659E-02    1.18       1.0  T
   3    -84.8099401  0.114427E-05  0.122E-02    1.19       1.2  T
   4    -84.8099426 -0.248102E-05  0.692E-03    1.18       2.0  T
   5    -84.8099433 -0.658066E-06  0.313E-03    1.18       4.5  T
   6    -84.8099434 -0.903843E-07  0.240E-03    1.18       5.9  T
   7    -84.8099434 -0.678004E-07  0.148E-03    1.18       9.6  T
   8    -84.8099435 -0.366813E-07  0.516E-04    1.18      27.4  T
   9    -84.8099435 -0.380645E-08  0.261E-04    1.18      54.2  T
     SCC iter.                  ...        0 min,  0.187 sec
     gradient                   ...        0 min,  0.013 sec
 * total energy  :   -83.6588428 Eh     change       -0.6441939E-04 Eh
   gradient norm :     0.0057341 Eh/α   predicted    -0.9014184E-04 (  39.93%)
   displ. norm   :     0.1132125 α      lambda       -0.8676010E-04
   maximum displ.:     0.0642376 α      in ANC's #8, #4, #12, ...

........................................................................
.............................. CYCLE   39 ..............................
........................................................................
   1    -84.8125990 -0.848126E+02  0.226E-02    1.18       0.0  T
   2    -84.8125997 -0.718232E-06  0.128E-02    1.18       1.1  T
   3    -84.8125992  0.475026E-06  0.506E-03    1.18       2.8  T
   4    -84.8125999 -0.688666E-06  0.152E-03    1.18       9.3  T
   5    -84.8125999 -0.308129E-07  0.651E-04    1.18      21.7  T
   6    -84.8125999 -0.865626E-08  0.343E-04    1.18      41.2  T
     SCC iter.                  ...        0 min,  0.120 sec
     gradient                   ...        0 min,  0.012 sec
 * total energy  :   -83.6589036 Eh     change       -0.6081006E-04 Eh
   gradient norm :     0.0032528 Eh/α   predicted    -0.4394127E-04 ( -27.74%)
   displ. norm   :     0.3045611 α      lambda       -0.6402606E-04
   maximum displ.:     0.1414983 α      in ANC's #2, #4, #5, ...

........................................................................
.............................. CYCLE   40 ..............................
........................................................................
   1    -84.8134227 -0.848134E+02  0.532E-02    1.18       0.0  T
   2    -84.8134236 -0.838088E-06  0.303E-02    1.18       1.0  T
   3    -84.8134228  0.707366E-06  0.616E-03    1.18       2.3  T
   4    -84.8134238 -0.966142E-06  0.306E-03    1.18       4.6  T
   5    -84.8134239 -0.122834E-06  0.138E-03    1.18      10.2  T
   6    -84.8134240 -0.285289E-07  0.929E-04    1.18      15.2  T
   7    -84.8134240 -0.844980E-08  0.583E-04    1.18      24.3  T
     SCC iter.                  ...        0 min,  0.142 sec
     gradient                   ...        0 min,  0.014 sec
 * total energy  :   -83.6589513 Eh     change       -0.4770974E-04 Eh
   gradient norm :     0.0025572 Eh/α   predicted    -0.3498450E-04 ( -26.67%)
   displ. norm   :     0.3790027 α      lambda       -0.6214422E-04
   maximum displ.:     0.1758710 α      in ANC's #2, #4, #5, ...

........................................................................
.............................. CYCLE   41 ..............................
........................................................................
   1    -84.8138490 -0.848138E+02  0.695E-02    1.18       0.0  T
   2    -84.8138501 -0.111587E-05  0.397E-02    1.18       1.0  T
   3    -84.8138499  0.146186E-06  0.649E-03    1.18       2.2  T
   4    -84.8138504 -0.481641E-06  0.428E-03    1.18       3.3  T
   5    -84.8138507 -0.314515E-06  0.199E-03    1.18       7.1  T
   6    -84.8138508 -0.387068E-07  0.148E-03    1.18       9.5  T
   7    -84.8138508 -0.265712E-07  0.710E-04    1.18      19.9  T
   8    -84.8138508 -0.995730E-08  0.263E-04    1.18      53.8  T
     SCC iter.                  ...        0 min,  0.163 sec
     gradient                   ...        0 min,  0.012 sec
 * total energy  :   -83.6589924 Eh     change       -0.4112991E-04 Eh
   gradient norm :     0.0028966 Eh/α   predicted    -0.3554056E-04 ( -13.59%)
   displ. norm   :     0.3275112 α      lambda       -0.4163434E-04
   maximum displ.:     0.1603546 α      in ANC's #2, #4, #3, ...

........................................................................
.............................. CYCLE   42 ..............................
........................................................................
   1    -84.8131381 -0.848131E+02  0.566E-02    1.18       0.0  T
   2    -84.8131390 -0.883153E-06  0.323E-02    1.18       1.0  T
   3    -84.8131390 -0.233105E-07  0.547E-03    1.17       2.6  T
   4    -84.8131393 -0.292848E-06  0.371E-03    1.17       3.8  T
   5    -84.8131395 -0.215401E-06  0.195E-03    1.17       7.2  T
   6    -84.8131395 -0.406696E-07  0.139E-03    1.17      10.2  T
   7    -84.8131396 -0.239711E-07  0.637E-04    1.17      22.2  T
   8    -84.8131396 -0.841139E-08  0.220E-04    1.17      64.3  T
     SCC iter.                  ...        0 min,  0.161 sec
     gradient                   ...        0 min,  0.013 sec
 * total energy  :   -83.6590156 Eh     change       -0.2320538E-04 Eh
   gradient norm :     0.0027780 Eh/α   predicted    -0.2305369E-04 (  -0.65%)
   displ. norm   :     0.0963234 α      lambda       -0.3149816E-04
   maximum displ.:     0.0376342 α      in ANC's #4, #8, #3, ...
 * RMSD in coord.:     0.9284509 α      energy gain  -0.1655308E-02 Eh

generating ANC from model Hessian ...
Using Lindh-Hessian (1995)
 Shifting diagonal of input Hessian by    1.0007409729317934E-002
 Lowest  eigenvalues of input Hessian
    0.010000    0.000000    0.000000    0.000000    0.000000    0.000000
    0.000000    0.010139    0.010233    0.010480    0.010512    0.010691
    0.011343    0.011472    0.011958    0.012591    0.012997    0.013947
 Highest eigenvalues
    1.907485    1.933059    1.952182    2.015528    2.100124    2.177570


........................................................................
.............................. CYCLE   43 ..............................
........................................................................
   1    -84.8151119 -0.848151E+02  0.214E-02    1.18       0.0  T
   2    -84.8151123 -0.449205E-06  0.120E-02    1.18       1.2  T
   3    -84.8151123  0.352702E-07  0.340E-03    1.18       4.2  T
   4    -84.8151125 -0.189003E-06  0.182E-03    1.18       7.8  T
   5    -84.8151125 -0.402567E-07  0.115E-03    1.18      12.3  T
   6    -84.8151125 -0.103096E-07  0.804E-04    1.18      17.6  T
   7    -84.8151125 -0.960584E-08  0.412E-04    1.18      34.3  T
     SCC iter.                  ...        0 min,  0.147 sec
     gradient                   ...        0 min,  0.013 sec
 * total energy  :   -83.6590319 Eh     change       -0.1625405E-04 Eh
   gradient norm :     0.0025777 Eh/α   predicted     0.0000000E+00 (-100.00%)
   displ. norm   :     0.0245054 α      lambda       -0.1751186E-04
   maximum displ.:     0.0106582 α      in ANC's #3, #4, #20, ...

........................................................................
.............................. CYCLE   44 ..............................
........................................................................
   1    -84.8144182 -0.848144E+02  0.790E-03    1.18       0.0  T
   2    -84.8144182 -0.449953E-07  0.439E-03    1.18       3.2  T
   3    -84.8144182  0.126430E-07  0.126E-03    1.18      11.2  T
   4    -84.8144182 -0.277805E-07  0.682E-04    1.18      20.7  T
   5    -84.8144182 -0.489938E-08  0.384E-04    1.18      36.8  T
     SCC iter.                  ...        0 min,  0.103 sec
     gradient                   ...        0 min,  0.014 sec
 * total energy  :   -83.6590461 Eh     change       -0.1420376E-04 Eh
   gradient norm :     0.0011717 Eh/α   predicted    -0.9105724E-05 ( -35.89%)
   displ. norm   :     0.0901788 α      lambda       -0.2074749E-04
   maximum displ.:     0.0418795 α      in ANC's #3, #4, #11, ...

........................................................................
.............................. CYCLE   45 ..............................
........................................................................
   1    -84.8132194 -0.848132E+02  0.239E-02    1.18       0.0  T
   2    -84.8132197 -0.334139E-06  0.135E-02    1.18       1.0  T
   3    -84.8132196  0.160089E-06  0.394E-03    1.18       3.6  T
   4    -84.8132199 -0.316310E-06  0.216E-03    1.18       6.5  T
   5    -84.8132199 -0.513974E-07  0.128E-03    1.18      11.1  T
   6    -84.8132199 -0.190264E-07  0.881E-04    1.18      16.1  T
   7    -84.8132200 -0.865819E-08  0.456E-04    1.18      31.0  T
     SCC iter.                  ...        0 min,  0.143 sec
     gradient                   ...        0 min,  0.013 sec
 * total energy  :   -83.6590629 Eh     change       -0.1681897E-04 Eh
   gradient norm :     0.0020612 Eh/α   predicted    -0.1123145E-04 ( -33.22%)
   displ. norm   :     0.0314544 α      lambda       -0.8176936E-05
   maximum displ.:     0.0161883 α      in ANC's #3, #4, #11, ...

........................................................................
.............................. CYCLE   46 ..............................
........................................................................
   1    -84.8134436 -0.848134E+02  0.644E-03    1.18       0.0  T
   2    -84.8134436 -0.232676E-07  0.372E-03    1.18       3.8  T
   3    -84.8134436 -0.570009E-08  0.820E-04    1.18      17.2  T
   4    -84.8134436 -0.664238E-08  0.559E-04    1.18      25.3  T
     SCC iter.                  ...        0 min,  0.080 sec
     gradient                   ...        0 min,  0.012 sec
 * total energy  :   -83.6590707 Eh     change       -0.7833337E-05 Eh
   gradient norm :     0.0017149 Eh/α   predicted    -0.4242566E-05 ( -45.84%)
   displ. norm   :     0.2209759 α      lambda       -0.3538654E-04
   maximum displ.:     0.1103228 α      in ANC's #3, #11, #4, ...

........................................................................
.............................. CYCLE   47 ..............................
........................................................................
   1    -84.8143909 -0.848144E+02  0.440E-02    1.18       0.0  T
   2    -84.8143918 -0.850677E-06  0.256E-02    1.18       1.0  T
   3    -84.8143921 -0.264394E-06  0.485E-03    1.18       2.9  T
   4    -84.8143923 -0.232717E-06  0.332E-03    1.18       4.3  T
   5    -84.8143924 -0.114972E-06  0.219E-03    1.18       6.5  T
   6    -84.8143925 -0.560261E-07  0.143E-03    1.18       9.9  T
   7    -84.8143925 -0.254705E-07  0.726E-04    1.18      19.5  T
   8    -84.8143925 -0.117438E-07  0.185E-04    1.18      76.3  T
     SCC iter.                  ...        0 min,  0.161 sec
     gradient                   ...        0 min,  0.013 sec
 * total energy  :   -83.6591011 Eh     change       -0.3033404E-04 Eh
   gradient norm :     0.0016645 Eh/α   predicted    -0.1808889E-04 ( -40.37%)
   displ. norm   :     0.1059048 α      lambda       -0.9954751E-05
   maximum displ.:     0.0572426 α      in ANC's #3, #11, #4, ...

........................................................................
.............................. CYCLE   48 ..............................
........................................................................
   1    -84.8143057 -0.848143E+02  0.195E-02    1.18       0.0  T
   2    -84.8143059 -0.132123E-06  0.113E-02    1.18       1.3  T
   3    -84.8143059 -0.437893E-07  0.212E-03    1.18       6.7  T
   4    -84.8143060 -0.459395E-07  0.148E-03    1.18       9.5  T
   5    -84.8143060 -0.276188E-07  0.882E-04    1.18      16.0  T
   6    -84.8143060 -0.723341E-08  0.609E-04    1.18      23.2  T
     SCC iter.                  ...        0 min,  0.122 sec
     gradient                   ...        0 min,  0.013 sec
 * total energy  :   -83.6591137 Eh     change       -0.1259168E-04 Eh
   gradient norm :     0.0012727 Eh/α   predicted    -0.5002766E-05 ( -60.27%)
   displ. norm   :     0.1714540 α      lambda       -0.1764707E-04
   maximum displ.:     0.0964475 α      in ANC's #3, #11, #4, ...

........................................................................
.............................. CYCLE   49 ..............................
........................................................................
   1    -84.8141390 -0.848141E+02  0.306E-02    1.18       0.0  T
   2    -84.8141393 -0.285978E-06  0.178E-02    1.18       1.0  T
   3    -84.8141392  0.616396E-07  0.341E-03    1.18       4.1  T
   4    -84.8141395 -0.243228E-06  0.196E-03    1.18       7.2  T
   5    -84.8141395 -0.375281E-07  0.120E-03    1.18      11.8  T
   6    -84.8141395 -0.150004E-07  0.846E-04    1.18      16.7  T
   7    -84.8141395 -0.978062E-08  0.354E-04    1.18      40.0  T
     SCC iter.                  ...        0 min,  0.142 sec
     gradient                   ...        0 min,  0.012 sec
 * total energy  :   -83.6591337 Eh     change       -0.2008108E-04 Eh
   gradient norm :     0.0007032 Eh/α   predicted    -0.8938664E-05 ( -55.49%)
   displ. norm   :     0.1765992 α      lambda       -0.1327370E-04
   maximum displ.:     0.1056378 α      in ANC's #3, #11, #4, ...

........................................................................
.............................. CYCLE   50 ..............................
........................................................................
   1    -84.8139264 -0.848139E+02  0.304E-02    1.18       0.0  T
   2    -84.8139267 -0.260835E-06  0.177E-02    1.18       1.0  T
   3    -84.8139266  0.376582E-07  0.323E-03    1.18       4.4  T
   4    -84.8139268 -0.207937E-06  0.188E-03    1.18       7.5  T
   5    -84.8139269 -0.346176E-07  0.111E-03    1.18      12.7  T
   6    -84.8139269 -0.123863E-07  0.799E-04    1.18      17.7  T
   7    -84.8139269 -0.879859E-08  0.307E-04    1.18      46.1  T
     SCC iter.                  ...        0 min,  0.144 sec
     gradient                   ...        0 min,  0.014 sec
 * total energy  :   -83.6591483 Eh     change       -0.1456646E-04 Eh
   gradient norm :     0.0012777 Eh/α   predicted    -0.6731785E-05 ( -53.79%)
   displ. norm   :     0.1105207 α      lambda       -0.1085650E-04
   maximum displ.:     0.0719336 α      in ANC's #3, #9, #4, ...

........................................................................
.............................. CYCLE   51 ..............................
........................................................................
   1    -84.8143746 -0.848144E+02  0.190E-02    1.18       0.0  T
   2    -84.8143747 -0.103926E-06  0.111E-02    1.18       1.3  T
   3    -84.8143748 -0.330010E-07  0.190E-03    1.18       7.4  T
   4    -84.8143748 -0.419662E-07  0.130E-03    1.18      10.9  T
   5    -84.8143748 -0.190545E-07  0.789E-04    1.18      17.9  T
   6    -84.8143748 -0.626454E-08  0.537E-04    1.18      26.3  T
     SCC iter.                  ...        0 min,  0.123 sec
     gradient                   ...        0 min,  0.013 sec
 * total energy  :   -83.6591620 Eh     change       -0.1368368E-04 Eh
   gradient norm :     0.0012480 Eh/α   predicted    -0.5468796E-05 ( -60.03%)
   displ. norm   :     0.1576527 α      lambda       -0.1644071E-04
   maximum displ.:     0.1015932 α      in ANC's #3, #9, #4, ...

........................................................................
.............................. CYCLE   52 ..............................
........................................................................
   1    -84.8144629 -0.848145E+02  0.280E-02    1.18       0.0  T
   2    -84.8144631 -0.227999E-06  0.164E-02    1.18       1.0  T
   3    -84.8144633 -0.134167E-06  0.268E-03    1.18       5.3  T
   4    -84.8144633 -0.398153E-07  0.198E-03    1.18       7.2  T
   5    -84.8144634 -0.568987E-07  0.121E-03    1.18      11.7  T
   6    -84.8144634 -0.141502E-07  0.775E-04    1.18      18.2  T
   7    -84.8144634 -0.100201E-07  0.258E-04    1.18      54.8  T
     SCC iter.                  ...        0 min,  0.142 sec
     gradient                   ...        0 min,  0.013 sec
 * total energy  :   -83.6591828 Eh     change       -0.2078230E-04 Eh
   gradient norm :     0.0008687 Eh/α   predicted    -0.8312559E-05 ( -60.00%)
   displ. norm   :     0.1966921 α      lambda       -0.1842433E-04
   maximum displ.:     0.1286464 α      in ANC's #3, #9, #2, ...

........................................................................
.............................. CYCLE   53 ..............................
........................................................................
   1    -84.8144730 -0.848145E+02  0.356E-02    1.18       0.0  T
   2    -84.8144734 -0.407800E-06  0.208E-02    1.18       1.0  T
   3    -84.8144736 -0.267007E-06  0.362E-03    1.18       3.9  T
   4    -84.8144737 -0.798503E-07  0.263E-03    1.18       5.4  T
   5    -84.8144738 -0.826211E-07  0.166E-03    1.18       8.5  T
   6    -84.8144738 -0.284465E-07  0.108E-03    1.18      13.1  T
   7    -84.8144738 -0.196981E-07  0.330E-04    1.18      42.8  T
   8    -84.8144738 -0.292137E-08  0.130E-04    1.18     108.4  T
     SCC iter.                  ...        0 min,  0.163 sec
     gradient                   ...        0 min,  0.012 sec
 * total energy  :   -83.6592047 Eh     change       -0.2188762E-04 Eh
   gradient norm :     0.0006588 Eh/α   predicted    -0.9375051E-05 ( -57.17%)
   displ. norm   :     0.1941377 α      lambda       -0.1485894E-04
   maximum displ.:     0.1307622 α      in ANC's #3, #9, #2, ...

........................................................................
.............................. CYCLE   54 ..............................
........................................................................
   1    -84.8142893 -0.848143E+02  0.349E-02    1.19       0.0  T
   2    -84.8142898 -0.452020E-06  0.204E-02    1.19       1.0  T
   3    -84.8142900 -0.253369E-06  0.386E-03    1.19       3.7  T
   4    -84.8142901 -0.109531E-06  0.281E-03    1.19       5.0  T
   5    -84.8142902 -0.876602E-07  0.178E-03    1.19       7.9  T
   6    -84.8142903 -0.357267E-07  0.117E-03    1.19      12.1  T
   7    -84.8142903 -0.201116E-07  0.351E-04    1.19      40.3  T
   8    -84.8142903 -0.307729E-08  0.138E-04    1.19     102.5  T
     SCC iter.                  ...        0 min,  0.163 sec
     gradient                   ...        0 min,  0.012 sec
 * total energy  :   -83.6592237 Eh     change       -0.1906370E-04 Eh
   gradient norm :     0.0009418 Eh/α   predicted    -0.7554588E-05 ( -60.37%)
   displ. norm   :     0.2123276 α      lambda       -0.1837108E-04
   maximum displ.:     0.1471519 α      in ANC's #3, #2, #4, ...

........................................................................
.............................. CYCLE   55 ..............................
........................................................................
   1    -84.8143001 -0.848143E+02  0.379E-02    1.19       0.0  T
   2    -84.8143007 -0.614329E-06  0.222E-02    1.19       1.0  T
   3    -84.8143010 -0.286249E-06  0.486E-03    1.19       2.9  T
   4    -84.8143012 -0.245127E-06  0.349E-03    1.19       4.0  T
   5    -84.8143014 -0.129719E-06  0.220E-03    1.19       6.4  T
   6    -84.8143014 -0.607221E-07  0.139E-03    1.19      10.1  T
   7    -84.8143015 -0.270942E-07  0.398E-04    1.19      35.5  T
   8    -84.8143015 -0.421446E-08  0.161E-04    1.19      87.8  T
     SCC iter.                  ...        0 min,  0.159 sec
     gradient                   ...        0 min,  0.012 sec
 * total energy  :   -83.6592492 Eh     change       -0.2548098E-04 Eh
   gradient norm :     0.0010997 Eh/α   predicted    -0.9370455E-05 ( -63.23%)
   displ. norm   :     0.5237546 α      lambda       -0.4838722E-04
   maximum displ.:     0.3706508 α      in ANC's #3, #4, #2, ...

........................................................................
.............................. CYCLE   56 ..............................
........................................................................
   1    -84.8123011 -0.848123E+02  0.908E-02    1.19       0.0  T
   2    -84.8123052 -0.410145E-05  0.534E-02    1.19       1.0  T
   3    -84.8123072 -0.207276E-05  0.123E-02    1.19       1.2  T
   4    -84.8123087 -0.143636E-05  0.899E-03    1.19       1.6  T
   5    -84.8123096 -0.891262E-06  0.565E-03    1.19       2.5  T
   6    -84.8123100 -0.397482E-06  0.350E-03    1.19       4.0  T
   7    -84.8123101 -0.170267E-06  0.103E-03    1.19      13.7  T
   8    -84.8123102 -0.256454E-07  0.421E-04    1.19      33.6  T
   9    -84.8123102 -0.254052E-08  0.190E-04    1.19      74.3  T
     SCC iter.                  ...        0 min,  0.182 sec
     gradient                   ...        0 min,  0.013 sec
 * total energy  :   -83.6592837 Eh     change       -0.3451255E-04 Eh
   gradient norm :     0.0032975 Eh/α   predicted    -0.2714640E-04 ( -21.34%)
   displ. norm   :     0.0515998 α      lambda       -0.3420791E-04
   maximum displ.:     0.0228728 α      in ANC's #11, #3, #9, ...

........................................................................
.............................. CYCLE   57 ..............................
........................................................................
[...]
          :  restarted?                      false          :
          :  GBSA solvation                   true          :
          :  PC potential                    false          :
          :  electronic temp.          300.0000000     K    :
          :  accuracy                    1.0000000          :
          :  -> integral cutoff          0.2500000E+02      :
          :  -> integral neglect         0.1000000E-07      :
          :  -> SCF convergence          0.1000000E-05 Eh   :
          :  -> wf. convergence          0.1000000E-03 e    :
          :  Broyden damping             0.4000000          :
          ...................................................

 iter      E             dE          RMSdq      gap      omega  full diag
   1    -84.8151828 -0.848152E+02  0.328E-04    1.20       0.0  T
   2    -84.8151828 -0.701036E-09  0.264E-04    1.20      53.5  T
   3    -84.8151828 -0.324789E-09  0.213E-04    1.20      66.4  T

   *** convergence criteria satisfied after 3 iterations ***

         #    Occupation            Energy/Eh            Energy/eV
      -------------------------------------------------------------
         1        2.0000           -1.0055920             -27.3636
       ...           ...                  ...                  ...
        71        2.0000           -0.3993011             -10.8655
        72        2.0000           -0.3992856             -10.8651
        73        2.0000           -0.3941769             -10.7261
        74        2.0000           -0.3910478             -10.6410
        75        2.0000           -0.3891196             -10.5885
        76        2.0000           -0.3792981             -10.3212
        77        2.0000           -0.3570059              -9.7146 (HOMO)
        78                         -0.3128500              -8.5131 (LUMO)
        79                         -0.2739731              -7.4552
        80                         -0.2526230              -6.8742
        81                         -0.2274710              -6.1898
        82                         -0.2254488              -6.1348
       ...                                ...                  ...
       165                          0.7177360              19.5306
      -------------------------------------------------------------
                  HL-Gap            0.0441559 Eh            1.2015 eV
             Fermi-level           -0.3349280 Eh           -9.1139 eV

 SCC (total)                   0 d,  0 h,  0 min,  0.085 sec
 SCC setup                      ...        0 min,  0.000 sec (  0.585%)
 Dispersion                     ...        0 min,  0.001 sec (  1.077%)
 classical contributions        ...        0 min,  0.000 sec (  0.073%)
 integral evaluation            ...        0 min,  0.005 sec (  6.153%)
 iterations                     ...        0 min,  0.062 sec ( 73.551%)
 molecular gradient             ...        0 min,  0.014 sec ( 16.004%)
 printout                       ...        0 min,  0.002 sec (  2.204%)

         :::::::::::::::::::::::::::::::::::::::::::::::::::::
         ::                     SUMMARY                     ::
         :::::::::::::::::::::::::::::::::::::::::::::::::::::
         :: total energy             -83.659481193144 Eh    ::
         :: total w/o Gsasa/hb       -83.652887898361 Eh    ::
         :: gradient norm              0.000587472201 Eh/a0 ::
         :: HOMO-LUMO gap              1.201544095295 eV    ::
         ::.................................................::
         :: SCC energy               -84.815182770730 Eh    ::
         :: -> isotropic ES            0.151090914721 Eh    ::
         :: -> anisotropic ES         -0.029817777034 Eh    ::
         :: -> anisotropic XC          0.031780185173 Eh    ::
         :: -> dispersion             -0.066188477653 Eh    ::
         :: -> Gsolv                  -0.081422061774 Eh    ::
         ::    -> Gelec               -0.074828766992 Eh    ::
         ::    -> Gsasa                0.000833798591 Eh    ::
         ::    -> Ghb                 -0.008507853072 Eh    ::
         ::    -> Gshift               0.001080759698 Eh    ::
         :: repulsion energy           1.156350791940 Eh    ::
         :: add. restraining           0.000000000000 Eh    ::
         :: total charge               0.000000000000 e     ::
         :::::::::::::::::::::::::::::::::::::::::::::::::::::

           -------------------------------------------------
          |                Property Printout                |
           -------------------------------------------------

    * Orbital Energies and Occupations

         #    Occupation            Energy/Eh            Energy/eV
      -------------------------------------------------------------
         1        2.0000           -1.0055920             -27.3636
       ...           ...                  ...                  ...
        65        2.0000           -0.4258956             -11.5892
        66        2.0000           -0.4179033             -11.3717
        67        2.0000           -0.4175711             -11.3627
        68        2.0000           -0.4164215             -11.3314
        69        2.0000           -0.4049402             -11.0190
        70        2.0000           -0.4020995             -10.9417
        71        2.0000           -0.3993011             -10.8655
        72        2.0000           -0.3992856             -10.8651
        73        2.0000           -0.3941769             -10.7261
        74        2.0000           -0.3910478             -10.6410
        75        2.0000           -0.3891196             -10.5885
        76        2.0000           -0.3792981             -10.3212
        77        2.0000           -0.3570059              -9.7146 (HOMO)
        78                         -0.3128500              -8.5131 (LUMO)
        79                         -0.2739731              -7.4552
        80                         -0.2526230              -6.8742
        81                         -0.2274710              -6.1898
        82                         -0.2254488              -6.1348
        83                         -0.2217103              -6.0330
        84                         -0.2075728              -5.6483
        85                         -0.1994881              -5.4283
        86                         -0.1974884              -5.3739
        87                         -0.1912966              -5.2054
        88                         -0.1729684              -4.7067
       ...                                ...                  ...
       165                          0.7177360              19.5306
      -------------------------------------------------------------
                  HL-Gap            0.0441559 Eh            1.2015 eV
             Fermi-level           -0.3349280 Eh           -9.1139 eV

     #   Z          covCN         q      C6AA      α(0)
     1   7 N        3.483    -0.166    24.573     7.362
     2   6 C        3.734    -0.023    21.069     6.551
     3   6 C        3.827    -0.090    22.196     6.704
     4   6 C        2.989     0.030    27.334     8.576
     5   6 C        3.107    -0.061    29.365     8.879
     6   6 C        3.108    -0.055    29.205     8.854
     7   6 C        3.023     0.012    27.728     8.637
     8   6 C        3.017     0.020    27.543     8.609
     9   6 C        3.106    -0.066    29.501     8.899
    10   6 C        3.124     0.001    27.814     8.636
    11   6 C        3.755    -0.118    22.824     6.812
    12   6 C        2.994     0.008    27.835     8.654
    13   6 C        3.000    -0.009    28.237     8.717
    14   6 C        2.923    -0.050    29.231     8.866
    15   6 C        2.923    -0.047    29.173     8.857
    16   6 C        2.996    -0.010    28.252     8.719
    17   6 C        2.997     0.007    27.850     8.657
    18   6 C        3.137    -0.002    27.844     8.637
    19   6 C        3.755    -0.118    22.810     6.810
    20   6 C        3.117    -0.059    29.297     8.866
    21   6 C        2.933    -0.026    28.644     8.777
    22  16 S        2.328    -0.054   143.277    20.146
    23   6 C        3.346     0.068    23.935     7.721
    24   7 N        1.859    -0.299    28.603     7.927
    25  16 S        2.660     0.352   127.511    19.005
    26   7 N        1.878    -0.296    28.520     7.917
    27   6 C        3.345     0.069    23.950     7.727
    28  16 S        2.368    -0.070   143.948    20.193
    29  16 S        2.355    -0.041   142.771    20.110
    30  17 Cl       0.060    -0.945   124.799    17.002
    31   1 H        0.916     0.297     0.719     1.326
    32   1 H        0.859     0.300     0.714     1.323
    33   1 H        0.859     0.302     0.708     1.318
    34   1 H        0.925     0.100     1.785     2.089
    35   1 H        0.925     0.104     1.750     2.069
    36   1 H        0.924     0.096     1.820     2.110
    37   1 H        0.925     0.090     1.876     2.142
    38   1 H        0.926     0.059     2.215     2.327
    39   1 H        0.926     0.040     2.452     2.449
    40   1 H        0.926     0.054     2.268     2.355
    41   1 H        0.925     0.064     2.157     2.297
    42   1 H        0.925     0.055     2.263     2.352
    43   1 H        0.925     0.062     2.181     2.310
    44   1 H        0.926     0.064     2.152     2.294
    45   1 H        0.926     0.063     2.169     2.303
    46   1 H        0.925     0.052     2.299     2.371
    47   1 H        0.925     0.062     2.174     2.306
    48   1 H        0.925     0.061     2.188     2.313
    49   1 H        0.926     0.053     2.287     2.365
    50   1 H        0.927     0.062     2.172     2.305

 Mol. C6AA /au·bohr⁶  :      46223.385317
 Mol. C8AA /au·bohr⁸  :    1397562.040421
 Mol. α(0) /au        :        344.552261


Wiberg/Mayer (AO) data.
largest (>0.10) Wiberg bond orders for each atom

 ---------------------------------------------------------------------------
     #   Z sym  total        # sym  WBO       # sym  WBO       # sym  WBO
 ---------------------------------------------------------------------------
     1   7 N    3.645 --     2 C    0.974    32 H    0.894    33 H    0.894
                            31 H    0.827
     2   6 C    3.929 --     3 C    0.989     1 N    0.974    34 H    0.968
                            35 H    0.966
     3   6 C    3.985 --     4 C    1.025     2 C    0.989    37 H    0.963
                            36 H    0.958
     4   6 C    3.923 --     5 C    1.571    29 S    1.157     3 C    1.025
     5   6 C    3.982 --     4 C    1.571     6 C    1.303    38 H    0.962
     6   6 C    3.970 --     7 C    1.503     5 C    1.303    39 H    0.961
     7   6 C    3.950 --     6 C    1.503     8 C    1.164    29 S    1.119
     8   6 C    3.928 --     9 C    1.475     7 C    1.164    28 S    1.131
     9   6 C    3.976 --     8 C    1.475    10 C    1.315    40 H    0.960
    10   6 C    3.950 --    12 C    1.447     9 C    1.315    11 C    1.026
    11   6 C    3.992 --    10 C    1.026    41 H    0.979    42 H    0.974
                            43 H    0.962
    12   6 C    3.928 --    10 C    1.447    13 C    1.144    28 S    1.116
    13   6 C    3.952 --    14 C    1.429    27 C    1.188    12 C    1.144
    14   6 C    3.975 --    13 C    1.429    15 C    1.364    44 H    0.961
    15   6 C    3.987 --    16 C    1.439    14 C    1.364    45 H    0.963
    16   6 C    3.942 --    15 C    1.439    23 C    1.196    17 C    1.121
    17   6 C    3.942 --    18 C    1.491    22 S    1.123    16 C    1.121
    18   6 C    3.952 --    17 C    1.491    20 C    1.268    19 C    1.026
    19   6 C    3.994 --    18 C    1.026    48 H    0.978    46 H    0.976
                            47 H    0.963
    20   6 C    3.982 --    21 C    1.608    18 C    1.268    49 H    0.963
    21   6 C    3.925 --    20 C    1.608    22 S    1.201    50 H    0.967
    22  16 S    2.621 --    21 C    1.201    17 C    1.123
    23   6 C    3.971 --    24 N    1.384    16 C    1.196    27 C    1.171
    24   7 N    3.077 --    25 S    1.419    23 C    1.384    26 N    0.161
    25  16 S    3.166 --    24 N    1.419    26 N    1.411    27 C    0.101
    26   7 N    3.091 --    25 S    1.411    27 C    1.389    24 N    0.161
    27   6 C    3.969 --    26 N    1.389    13 C    1.188    23 C    1.171
                            25 S    0.101
    28  16 S    2.601 --     8 C    1.131    12 C    1.116
    29  16 S    2.575 --     4 C    1.157     7 C    1.119
    30  17 Cl   0.106
    31   1 H    0.911 --     1 N    0.827
    32   1 H    0.910 --     1 N    0.894
    33   1 H    0.909 --     1 N    0.894
    34   1 H    0.990 --     2 C    0.968
    35   1 H    0.989 --     2 C    0.966
    36   1 H    0.989 --     3 C    0.958
    37   1 H    0.991 --     3 C    0.963
    38   1 H    0.996 --     5 C    0.962
    39   1 H    0.998 --     6 C    0.961
    40   1 H    0.996 --     9 C    0.960
    41   1 H    0.995 --    11 C    0.979
    42   1 H    0.996 --    11 C    0.974
    43   1 H    0.994 --    11 C    0.962
    44   1 H    0.994 --    14 C    0.961
    45   1 H    0.994 --    15 C    0.963
    46   1 H    0.997 --    19 C    0.976
    47   1 H    0.994 --    19 C    0.963
    48   1 H    0.996 --    19 C    0.978
    49   1 H    0.997 --    20 C    0.963
    50   1 H    0.995 --    21 C    0.967
 ---------------------------------------------------------------------------

Topologies differ in total number of bonds
Writing topology from bond orders to xtbtopo.mol

molecular dipole:
                 x           y           z       tot (Debye)
 q only:        3.121       3.088       1.748
   full:        2.950       2.304       1.314      10.085
molecular quadrupole (traceless):
                xx          xy          yy          xz          yz          zz
 q only:        7.405     -33.426      -2.830      25.964      31.732      -4.575
  q+dip:       15.573     -44.712      -7.473      15.754      33.921      -8.100
   full:       16.515     -42.919      -8.521      17.935      35.785      -7.994

           -------------------------------------------------
          |                Geometry Summary                 |
           -------------------------------------------------

      molecular mass/u    :      490.1272016
   center of mass at/Å    :        9.7781491       1.1113193      -3.2948789
  moments of inertia/u·Å² :        0.1528044E+04   0.1580578E+05   0.1649373E+05
rotational constants/cm⁻¹ :        0.1103216E-01   0.1066549E-02   0.1022063E-02

 * 50 selected distances

     #   Z          #   Z                                           value/Å
     1   7 N        2   6 C                                       1.4733532
     2   6 C        3   6 C                                       1.5329422
     4   6 C        5   6 C                                       1.3628629
     5   6 C        6   6 C                                       1.4057899
     6   6 C        7   6 C                                       1.3716446
     7   6 C        8   6 C                                       1.4238839
     8   6 C        9   6 C                                       1.3729653
     9   6 C       10   6 C                                       1.4046049
    10   6 C       11   6 C                                       1.4935955
    10   6 C       12   6 C                                       1.3841657
    13   6 C       14   6 C                                       1.3860295
    14   6 C       15   6 C                                       1.3968782
    15   6 C       16   6 C                                       1.3840610
    17   6 C       18   6 C                                       1.3775429
    18   6 C       19   6 C                                       1.4936192
    18   6 C       20   6 C                                       1.4150769
    20   6 C       21   6 C                                       1.3569373
    17   6 C       22  16 S                                       1.7440128
    21   6 C       22  16 S                                       1.7171823
    16   6 C       23   6 C                                       1.4182139
    23   6 C       24   7 N                                       1.3342807
    24   7 N       25  16 S                                       1.6076192
    25  16 S       26   7 N                                       1.6094193
    13   6 C       27   6 C                                       1.4210875
    23   6 C       27   6 C                                       1.4372136
    26   7 N       27   6 C                                       1.3332631
     8   6 C       28  16 S                                       1.7387092
    12   6 C       28  16 S                                       1.7452867 (max)
     4   6 C       29  16 S                                       1.7369853
     7   6 C       29  16 S                                       1.7380145
     1   7 N       31   1 H                                       1.0533993
     1   7 N       32   1 H                                       1.0231732
     1   7 N       33   1 H                                       1.0228375 (min)
     2   6 C       34   1 H                                       1.0896385
     2   6 C       35   1 H                                       1.0900109
     3   6 C       36   1 H                                       1.0908355
     3   6 C       37   1 H                                       1.0899812
     5   6 C       38   1 H                                       1.0746694
     6   6 C       39   1 H                                       1.0756370
     9   6 C       40   1 H                                       1.0763265
    11   6 C       41   1 H                                       1.0870032
    11   6 C       42   1 H                                       1.0875560
    11   6 C       43   1 H                                       1.0896968
    14   6 C       44   1 H                                       1.0755896
    15   6 C       45   1 H                                       1.0766947
    19   6 C       46   1 H                                       1.0873502
    19   6 C       47   1 H                                       1.0898713
    19   6 C       48   1 H                                       1.0871828
    20   6 C       49   1 H                                       1.0751378
    21   6 C       50   1 H                                       1.0710994

 * 6 distinct bonds (by element types)

   Z      Z             #   av. dist./Å        max./Å        min./Å
   1 H    6 C          17     1.0831930     1.0908355     1.0710994
   6 C    6 C          19     1.4125850     1.5329422     1.3569373
   1 H    7 N           3     1.0331367     1.0533993     1.0228375
   6 C    7 N           3     1.3802990     1.4733532     1.3332631
   6 C   16 S           6     1.7366985     1.7452867     1.7171823
   7 N   16 S           2     1.6085193     1.6094193     1.6076192


optimized geometry written to: xtbopt.xyz


           -------------------------------------------------
          | TOTAL ENERGY              -83.659481193144 Eh   |
          | GRADIENT NORM               0.000587472201 Eh/α |
          | HOMO-LUMO GAP               1.201544095295 eV   |
           -------------------------------------------------

------------------------------------------------------------------------
 * finished run on 2023/01/24 at 14:56:56.457     
------------------------------------------------------------------------
 total:
 * wall-time:     0 d,  0 h,  0 min, 13.281 sec
 *  cpu-time:     0 d,  0 h, 31 min, 25.802 sec
 * ratio c/w:   141.993 speedup
 SCF:
 * wall-time:     0 d,  0 h,  0 min,  0.463 sec
 *  cpu-time:     0 d,  0 h,  1 min,  2.879 sec
 * ratio c/w:   135.849 speedup
 ANC optimizer:
 * wall-time:     0 d,  0 h,  0 min, 12.779 sec
 *  cpu-time:     0 d,  0 h, 30 min, 17.719 sec
 * ratio c/w:   142.239 speedup

