 Entering Gaussian System
 *********************************************
 Gaussian 98:
 frequency output generated by the xtb code
 *********************************************
                         Standard orientation:
 --------------------------------------------------------------------
  Center     Atomic     Atomic              Coordinates (Angstroms)
  Number     Number      Type              X           Y           Z
 --------------------------------------------------------------------
    1          7             0       -0.569147    1.144181   -0.914750
    2          6             0       -0.066530    1.679791    0.379037
    3          6             0        0.220658    0.574821    1.397158
    4          6             0        0.924160   -0.643574    0.798208
    5          6             0        2.143609   -0.274091   -0.001547
    6          8             0        2.042963   -0.409303   -1.346637
    7          8             0        3.135013    0.134135    0.562299
    8         17             0       -3.274446   -0.956603   -0.194697
    9          1             0       -0.808166    1.887862   -1.587851
   10          1             0       -1.399540    0.551526   -0.767876
   11          1             0        0.175868    0.557177   -1.324472
   12          1             0       -0.780105    2.405626    0.787379
   13          1             0        0.852172    2.247166    0.185413
   14          1             0       -0.717822    0.256207    1.866242
   15          1             0        0.831373    0.980160    2.212816
   16          1             0        0.239604   -1.191641    0.144361
   17          1             0        1.217329   -1.347974    1.582808
   18          1             0        2.887603   -0.162208   -1.747910
 --------------------------------------------------------------------
     1 basis functions        1 primitive gaussians
     1 alpha electrons        1 beta electrons

 Harmonic frequencies (cm**-1), IR intensities (km*mol⁻¹),
 Raman scattering activities (A**4/amu), Raman depolarization ratios,
 reduced masses (AMU), force constants (mDyne/A) and normal coordinates:
                      1                      2                      3
                        a                      a                      a 
 Frequencies --  -134.9789                52.5698                88.2615
 Red. masses --    22.1902                21.4787                16.5813
 Frc consts  --     0.0000                 0.0000                 0.0000
 IR Inten    --   140.2422                 9.7033                15.2443
 Raman Activ --     0.0000                 0.0000                 0.0000
 Depolar     --     0.0000                 0.0000                 0.0000
 Atom AN      X      Y      Z        X      Y      Z        X      Y      Z
   1   7    -0.48  -0.31   0.14    -0.17  -0.22   0.03     0.02  -0.08   0.22
   2   6    -0.20  -0.14  -0.04    -0.01  -0.19  -0.03     0.03   0.05   0.15
   3   6    -0.01  -0.04   0.01     0.08  -0.17  -0.03     0.25   0.19   0.25
   4   6     0.01  -0.03   0.02     0.26  -0.07  -0.02     0.15   0.11   0.29
   5   6    -0.02  -0.01  -0.00     0.23   0.10   0.01    -0.01   0.00  -0.02
   6   8    -0.01  -0.06   0.01     0.35  -0.02   0.03    -0.34  -0.23   0.03
   7   8    -0.03   0.04  -0.01     0.16   0.33   0.04     0.12   0.10  -0.33
   8  17     0.54   0.40  -0.10    -0.59   0.19  -0.02    -0.14  -0.09  -0.42
   9   1    -0.18  -0.10   0.03    -0.01  -0.06  -0.00     0.01  -0.03   0.04
  10   1    -0.13  -0.10   0.10    -0.08  -0.01   0.03    -0.00  -0.02   0.04
  11   1    -0.15  -0.08   0.01    -0.08  -0.10   0.01     0.01  -0.03   0.07
  12   1    -0.04  -0.03   0.01     0.01  -0.05   0.01    -0.01   0.00   0.04
  13   1    -0.07  -0.04  -0.07    -0.01  -0.06  -0.04    -0.01   0.04   0.01
  14   1     0.01  -0.02   0.04     0.03  -0.08  -0.02     0.10   0.07   0.14
  15   1     0.01   0.01  -0.02     0.00  -0.03  -0.00     0.11   0.09   0.02
  16   1     0.00  -0.02   0.01     0.10  -0.05  -0.01     0.01   0.01   0.14
  17   1     0.01  -0.00   0.01     0.09  -0.01  -0.00     0.09   0.07   0.10
  18   1    -0.01   0.00   0.00     0.08   0.03   0.01    -0.11  -0.08  -0.06
                      4                      5                      6
                        a                      a                      a 
 Frequencies --    98.8219               107.6816               171.1441
 Red. masses --    14.8063                12.5013                 9.4160
 Frc consts  --     0.0000                 0.0000                 0.0000
 IR Inten    --     6.8719                 6.8793                 2.4598
 Raman Activ --     0.0000                 0.0000                 0.0000
 Depolar     --     0.0000                 0.0000                 0.0000
 Atom AN      X      Y      Z        X      Y      Z        X      Y      Z
   1   7    -0.28  -0.04   0.01     0.22  -0.30  -0.17    -0.22  -0.00   0.15
   2   6    -0.13   0.12  -0.10     0.12  -0.20  -0.16     0.54   0.03  -0.16
   3   6     0.14   0.24  -0.04    -0.10  -0.11  -0.01     0.25   0.08  -0.03
   4   6     0.04   0.17  -0.00     0.11  -0.12   0.23    -0.12  -0.12  -0.05
   5   6     0.14  -0.06   0.05    -0.04   0.05   0.09    -0.12  -0.04   0.02
   6   8     0.06   0.34   0.02    -0.40   0.51   0.06    -0.02   0.12   0.02
   7   8     0.34  -0.59   0.13     0.07  -0.04  -0.05    -0.26   0.11   0.16
   8  17    -0.18  -0.14  -0.04     0.00   0.14   0.03    -0.04  -0.15  -0.07
   9   1    -0.12  -0.03  -0.00     0.12  -0.09  -0.08    -0.09  -0.01   0.04
  10   1    -0.05  -0.04   0.04     0.02  -0.02  -0.05    -0.07   0.04   0.15
  11   1    -0.06   0.01  -0.01     0.05  -0.13   0.00    -0.15  -0.06  -0.03
  12   1    -0.04   0.02  -0.01     0.05  -0.02  -0.09     0.31   0.15  -0.02
  13   1    -0.07   0.06  -0.08     0.06  -0.09  -0.03     0.23  -0.15  -0.17
  14   1     0.07   0.07   0.05    -0.06  -0.03  -0.06     0.05   0.12   0.02
  15   1     0.08   0.10  -0.06    -0.09  -0.01   0.03     0.13  -0.01  -0.04
  16   1     0.00   0.07  -0.01     0.05  -0.10   0.10    -0.06   0.02  -0.02
  17   1    -0.02   0.04   0.01     0.08   0.02   0.10    -0.06  -0.06  -0.03
  18   1     0.03   0.06   0.01    -0.14   0.19  -0.03    -0.01   0.10   0.03
                      7                      8                      9
                        a                      a                      a 
 Frequencies --   203.7881               302.6011               345.1153
 Red. masses --     9.1808                 9.7048                 1.8258
 Frc consts  --     0.0000                 0.0000                 0.0000
 IR Inten    --    16.4221                17.4491                 2.4793
 Raman Activ --     0.0000                 0.0000                 0.0000
 Depolar     --     0.0000                 0.0000                 0.0000
 Atom AN      X      Y      Z        X      Y      Z        X      Y      Z
   1   7    -0.29   0.34   0.02     0.16  -0.38   0.32     0.08  -0.10   0.02
   2   6     0.17   0.06  -0.04     0.14   0.10   0.09     0.11  -0.02  -0.02
   3   6    -0.36  -0.11  -0.12    -0.32   0.09   0.13    -0.07  -0.02   0.00
   4   6     0.17   0.04   0.16    -0.15   0.31  -0.13    -0.00   0.03   0.00
   5   6     0.12   0.02   0.06    -0.05   0.16  -0.13     0.00   0.05   0.02
   6   8    -0.10  -0.15   0.11     0.18   0.02  -0.17    -0.04   0.01   0.03
   7   8     0.29  -0.06  -0.14     0.04  -0.13  -0.09     0.04   0.03  -0.03
   8  17     0.05  -0.09  -0.03    -0.03  -0.02  -0.02    -0.08   0.04  -0.01
   9   1    -0.06   0.12   0.03     0.10  -0.18  -0.02    -0.52  -0.04   0.19
  10   1    -0.10   0.14   0.05    -0.00  -0.03   0.14     0.34  -0.45   0.10
  11   1    -0.15   0.04  -0.04     0.02  -0.19   0.17     0.22   0.41  -0.26
  12   1     0.17   0.12   0.01     0.09   0.12  -0.06     0.04   0.01  -0.02
  13   1     0.13  -0.12  -0.03     0.10  -0.07   0.01     0.04  -0.02  -0.01
  14   1    -0.18  -0.08  -0.22    -0.15  -0.01  -0.10    -0.05  -0.01  -0.05
  15   1    -0.27  -0.05   0.10    -0.18  -0.04   0.14    -0.06  -0.02   0.04
  16   1     0.11  -0.07   0.05    -0.04   0.09  -0.05     0.02   0.02  -0.03
  17   1     0.08   0.07   0.09    -0.03   0.05  -0.07    -0.01  -0.01  -0.01
  18   1    -0.04  -0.07  -0.02     0.09  -0.09  -0.00     0.01  -0.08   0.00
                     10                     11                     12
                        a                      a                      a 
 Frequencies --   409.3576               467.0310               546.8205
 Red. masses --     9.9461                 8.4567                10.1691
 Frc consts  --     0.0000                 0.0000                 0.0000
 IR Inten    --     8.7272                 3.1850                48.5706
 Raman Activ --     0.0000                 0.0000                 0.0000
 Depolar     --     0.0000                 0.0000                 0.0000
 Atom AN      X      Y      Z        X      Y      Z        X      Y      Z
   1   7    -0.03   0.07  -0.03     0.08  -0.08   0.30     0.00   0.00  -0.02
   2   6    -0.01  -0.00  -0.00    -0.05   0.44   0.02    -0.03   0.01  -0.00
   3   6    -0.06   0.07   0.09     0.02   0.05  -0.43    -0.10   0.05   0.10
   4   6     0.10  -0.06   0.40     0.10  -0.22  -0.03    -0.28  -0.11   0.09
   5   6    -0.20  -0.13  -0.19     0.10  -0.26   0.02    -0.01  -0.30   0.18
   6   8     0.41   0.11  -0.31    -0.06  -0.02   0.00     0.26   0.06   0.19
   7   8    -0.30  -0.13  -0.07    -0.08   0.08   0.06     0.20   0.12  -0.52
   8  17    -0.00   0.00  -0.00    -0.02  -0.00  -0.02    -0.00   0.00   0.00
   9   1    -0.05   0.03   0.02    -0.04  -0.16  -0.05    -0.01   0.00  -0.00
  10   1     0.02  -0.02  -0.02     0.06  -0.06   0.18     0.00  -0.00  -0.00
  11   1    -0.00   0.06  -0.05     0.06  -0.04   0.18     0.01   0.01  -0.01
  12   1     0.00   0.01  -0.00    -0.09   0.02   0.05     0.00   0.03  -0.03
  13   1     0.00  -0.01   0.00    -0.08   0.24   0.01     0.01  -0.02   0.00
  14   1    -0.02   0.02   0.01    -0.04  -0.00  -0.22    -0.03   0.06   0.06
  15   1    -0.06   0.07   0.03    -0.06  -0.06  -0.04     0.00   0.01   0.01
  16   1    -0.02  -0.19   0.32     0.07  -0.17   0.03    -0.09   0.10  -0.08
  17   1     0.23   0.17   0.20     0.01   0.06   0.11    -0.26  -0.13  -0.00
  18   1     0.17   0.10   0.10    -0.10   0.22  -0.04     0.01   0.42   0.18
                     13                     14                     15
                        a                      a                      a 
 Frequencies --   623.2902               712.0224               783.7085
 Red. masses --     5.7255                10.0548                 3.8072
 Frc consts  --     0.0000                 0.0000                 0.0000
 IR Inten    --   125.1779                86.0998                40.4064
 Raman Activ --     0.0000                 0.0000                 0.0000
 Depolar     --     0.0000                 0.0000                 0.0000
 Atom AN      X      Y      Z        X      Y      Z        X      Y      Z
   1   7     0.00   0.00  -0.07     0.05   0.01   0.04    -0.02  -0.05  -0.08
   2   6    -0.00  -0.09   0.03     0.04   0.01  -0.02     0.19  -0.04  -0.05
   3   6    -0.05   0.06   0.18     0.04  -0.11  -0.17     0.28   0.03   0.04
   4   6     0.11   0.23  -0.05    -0.05  -0.04  -0.07     0.15   0.13   0.07
   5   6     0.16  -0.07  -0.11    -0.34   0.61   0.02    -0.15  -0.00   0.01
   6   8    -0.05  -0.28  -0.19     0.10  -0.22   0.25     0.01   0.01   0.10
   7   8    -0.05  -0.03   0.27     0.06  -0.25  -0.12    -0.14  -0.06  -0.08
   8  17    -0.00   0.00   0.00    -0.00  -0.00  -0.00    -0.00  -0.01  -0.00
   9   1    -0.03   0.04   0.04    -0.03  -0.02   0.00    -0.04   0.04   0.05
  10   1     0.01  -0.01  -0.04     0.02   0.01   0.07    -0.06   0.09   0.11
  11   1    -0.00   0.03  -0.06    -0.02  -0.02  -0.02    -0.13  -0.07  -0.16
  12   1     0.02   0.02  -0.03    -0.03  -0.05   0.03    -0.20  -0.29   0.05
  13   1     0.03  -0.07   0.01    -0.02   0.07   0.03    -0.14   0.31   0.03
  14   1    -0.02  -0.05  -0.00     0.04   0.04   0.05    -0.08  -0.12  -0.38
  15   1    -0.08   0.05   0.08     0.12  -0.07  -0.11    -0.27  -0.03   0.28
  16   1    -0.01   0.11  -0.01     0.06  -0.16   0.02    -0.06   0.24  -0.05
  17   1     0.01   0.02  -0.05     0.17   0.08  -0.00    -0.04  -0.14  -0.11
  18   1    -0.30   0.68  -0.20    -0.06   0.34   0.12     0.05   0.00   0.13
                     16                     17                     18
                        a                      a                      a 
 Frequencies --   849.9196               882.6547               911.0766
 Red. masses --     9.3625                 5.7464                 6.1122
 Frc consts  --     0.0000                 0.0000                 0.0000
 IR Inten    --     1.9809                14.2317                17.8030
 Raman Activ --     0.0000                 0.0000                 0.0000
 Depolar     --     0.0000                 0.0000                 0.0000
 Atom AN      X      Y      Z        X      Y      Z        X      Y      Z
   1   7     0.03  -0.04   0.17    -0.17  -0.02  -0.19     0.06   0.06  -0.25
   2   6    -0.05  -0.26   0.08    -0.15   0.31   0.09     0.03   0.16   0.03
   3   6     0.07   0.04  -0.27     0.17  -0.07   0.19    -0.11  -0.12   0.25
   4   6     0.12   0.41  -0.26     0.26  -0.09  -0.05     0.13   0.13  -0.24
   5   6    -0.07  -0.28  -0.00    -0.13   0.05  -0.01     0.04  -0.23  -0.08
   6   8    -0.02   0.07   0.32     0.01  -0.01   0.14    -0.03   0.06   0.24
   7   8    -0.20  -0.01  -0.13    -0.13  -0.08  -0.06    -0.11   0.01  -0.06
   8  17     0.00   0.00   0.00    -0.00   0.01   0.01    -0.00  -0.00  -0.01
   9   1     0.11   0.13   0.16     0.05  -0.14  -0.24    -0.21  -0.17  -0.19
  10   1    -0.02  -0.03  -0.20     0.04  -0.17  -0.26     0.04   0.11   0.40
  11   1     0.06   0.08   0.02     0.20   0.09   0.25    -0.16  -0.16  -0.12
  12   1     0.09   0.00   0.06     0.19   0.29   0.06    -0.08   0.05  -0.14
  13   1     0.04  -0.17  -0.04     0.06  -0.14  -0.16     0.06   0.02   0.21
  14   1     0.07  -0.12  -0.07     0.01  -0.14  -0.09     0.06  -0.08   0.21
  15   1    -0.01   0.05  -0.08    -0.09  -0.04   0.16     0.11  -0.06  -0.02
  16   1     0.04  -0.02   0.04     0.01   0.10  -0.06     0.07  -0.10   0.02
  17   1     0.09   0.28   0.05     0.09  -0.17  -0.15     0.20   0.12  -0.05
  18   1     0.04   0.04   0.17     0.03   0.03   0.10     0.02  -0.02   0.08
                     19                     20                     21
                        a                      a                      a 
 Frequencies --   966.7979              1006.4901              1051.8851
 Red. masses --     6.4277                 6.3241                 6.6699
 Frc consts  --     0.0000                 0.0000                 0.0000
 IR Inten    --     3.4869                57.0970               101.3856
 Raman Activ --     0.0000                 0.0000                 0.0000
 Depolar     --     0.0000                 0.0000                 0.0000
 Atom AN      X      Y      Z        X      Y      Z        X      Y      Z
   1   7     0.17   0.18   0.23     0.11  -0.10   0.23     0.03   0.26   0.18
   2   6    -0.20  -0.13  -0.23    -0.14   0.13  -0.23    -0.06  -0.23  -0.33
   3   6    -0.09  -0.04  -0.17    -0.12   0.20   0.21     0.07  -0.00   0.11
   4   6     0.33   0.03   0.21     0.18  -0.30  -0.18    -0.21  -0.06  -0.08
   5   6    -0.12   0.04   0.04     0.01  -0.01  -0.10     0.11  -0.00  -0.19
   6   8    -0.02  -0.03  -0.09    -0.00   0.01   0.16     0.09   0.05   0.27
   7   8    -0.12  -0.06  -0.01    -0.05  -0.03  -0.02     0.02   0.01  -0.03
   8  17    -0.00  -0.00  -0.00     0.00  -0.00   0.00    -0.00   0.00  -0.00
   9   1    -0.05  -0.08  -0.04     0.10   0.27   0.36    -0.03  -0.13  -0.16
  10   1     0.07   0.07   0.27    -0.08   0.08  -0.11     0.10  -0.04   0.12
  11   1    -0.00  -0.03   0.08    -0.08   0.03  -0.22     0.10   0.03   0.26
  12   1     0.03   0.05  -0.07    -0.09   0.13  -0.31     0.01  -0.12   0.05
  13   1     0.06  -0.16   0.07    -0.03   0.01  -0.10    -0.05  -0.01  -0.08
  14   1     0.10  -0.12   0.13    -0.06   0.09   0.02    -0.03   0.00  -0.07
  15   1    -0.03   0.28  -0.19    -0.03   0.02   0.07    -0.14   0.15   0.07
  16   1     0.08   0.28  -0.18     0.05  -0.08  -0.05    -0.30  -0.02   0.24
  17   1    -0.14  -0.27  -0.11     0.21  -0.13  -0.15     0.24  -0.03  -0.14
  18   1     0.06   0.02   0.13    -0.01  -0.01   0.00    -0.11  -0.04  -0.25
                     22                     23                     24
                        a                      a                      a 
 Frequencies --  1089.9109              1100.3412              1139.7147
 Red. masses --     4.8582                 8.6587                 7.6390
 Frc consts  --     0.0000                 0.0000                 0.0000
 IR Inten    --    15.6669               109.8944                93.8484
 Raman Activ --     0.0000                 0.0000                 0.0000
 Depolar     --     0.0000                 0.0000                 0.0000
 Atom AN      X      Y      Z        X      Y      Z        X      Y      Z
   1   7     0.15  -0.04  -0.05    -0.02  -0.16  -0.18     0.00   0.03  -0.11
   2   6    -0.32   0.05   0.09     0.09   0.03   0.41     0.00  -0.22   0.25
   3   6     0.35   0.00  -0.10    -0.14   0.17  -0.26    -0.03   0.43  -0.01
   4   6    -0.20  -0.08   0.00     0.09  -0.13   0.13     0.02  -0.26  -0.27
   5   6    -0.01   0.11   0.03     0.07   0.05  -0.30    -0.02   0.01   0.14
   6   8     0.02  -0.01  -0.03     0.14   0.06   0.32    -0.16  -0.07  -0.18
   7   8     0.10   0.02   0.01    -0.12  -0.06  -0.06     0.15   0.05   0.08
   8  17    -0.00  -0.00  -0.00     0.00  -0.00   0.00    -0.00   0.00  -0.00
   9   1    -0.08   0.05   0.10    -0.02   0.02   0.03    -0.05  -0.07  -0.10
  10   1    -0.01   0.11   0.17    -0.04   0.01  -0.03     0.03   0.00   0.09
  11   1    -0.11  -0.08  -0.18    -0.06  -0.05  -0.12    -0.01  -0.04   0.02
  12   1     0.05   0.28  -0.20     0.04   0.01   0.13     0.05  -0.05   0.14
  13   1     0.11  -0.27   0.10     0.06  -0.04   0.16     0.03  -0.09   0.09
  14   1     0.13  -0.34  -0.19     0.01   0.07   0.04    -0.04   0.10  -0.09
  15   1    -0.12   0.00   0.13    -0.04   0.23  -0.15    -0.17   0.29   0.03
  16   1    -0.21  -0.01   0.17    -0.13   0.15   0.04    -0.05  -0.13   0.04
  17   1    -0.13   0.11   0.14    -0.02  -0.18  -0.09     0.19  -0.02  -0.10
  18   1    -0.02  -0.03  -0.08    -0.13  -0.07  -0.32     0.14   0.06   0.38
                     25                     26                     27
                        a                      a                      a 
 Frequencies --  1164.4435              1216.5780              1225.5648
 Red. masses --     4.8978                 7.0791                 3.9452
 Frc consts  --     0.0000                 0.0000                 0.0000
 IR Inten    --     8.5384                83.0129                13.3101
 Raman Activ --     0.0000                 0.0000                 0.0000
 Depolar     --     0.0000                 0.0000                 0.0000
 Atom AN      X      Y      Z        X      Y      Z        X      Y      Z
   1   7     0.01   0.13  -0.02     0.07   0.05  -0.00     0.20  -0.01  -0.08
   2   6    -0.07  -0.25   0.03    -0.13  -0.08   0.02    -0.28  -0.06   0.09
   3   6     0.08   0.31   0.15     0.02  -0.02  -0.02     0.05   0.02  -0.10
   4   6     0.11  -0.13  -0.09     0.01  -0.02   0.13    -0.04   0.15   0.12
   5   6    -0.06   0.07  -0.03     0.24   0.07  -0.59    -0.05  -0.10   0.21
   6   8     0.12   0.04   0.11    -0.16  -0.04   0.16     0.05   0.02  -0.06
   7   8    -0.16  -0.08  -0.09     0.03   0.02   0.12    -0.02   0.01  -0.04
   8  17     0.00  -0.00  -0.00     0.00  -0.00   0.00     0.00  -0.00  -0.00
   9   1    -0.03  -0.07  -0.10    -0.02  -0.01  -0.02    -0.09   0.01   0.05
  10   1     0.06  -0.01   0.11     0.04   0.00   0.06     0.00   0.13   0.20
  11   1     0.01  -0.02   0.09    -0.03  -0.03   0.00    -0.06  -0.08  -0.10
  12   1    -0.00  -0.02  -0.03     0.04   0.05   0.01     0.17   0.08   0.27
  13   1    -0.01  -0.08  -0.01    -0.03  -0.06  -0.11    -0.07  -0.12  -0.28
  14   1    -0.07   0.11  -0.12    -0.12   0.26  -0.07    -0.14   0.32  -0.11
  15   1    -0.03  -0.08   0.16     0.10  -0.26   0.05     0.12  -0.30   0.04
  16   1     0.40  -0.20  -0.29    -0.08   0.07   0.05     0.07   0.03  -0.05
  17   1    -0.33   0.13   0.25    -0.22  -0.01   0.10     0.31  -0.13  -0.23
  18   1    -0.10  -0.06  -0.27     0.14   0.07   0.43    -0.05  -0.02  -0.16
                     28                     29                     30
                        a                      a                      a 
 Frequencies --  1248.9194              1320.7229              1329.3556
 Red. masses --     2.6747                 5.0543                 4.2141
 Frc consts  --     0.0000                 0.0000                 0.0000
 IR Inten    --    14.3320                47.9377                28.3307
 Raman Activ --     0.0000                 0.0000                 0.0000
 Depolar     --     0.0000                 0.0000                 0.0000
 Atom AN      X      Y      Z        X      Y      Z        X      Y      Z
   1   7    -0.17   0.09   0.06     0.07   0.10   0.05    -0.06  -0.12  -0.07
   2   6     0.04  -0.15   0.08     0.03  -0.09   0.17    -0.06   0.04  -0.29
   3   6     0.08   0.11  -0.17    -0.11  -0.10   0.01    -0.16   0.26   0.03
   4   6     0.01   0.06   0.10     0.38  -0.08  -0.25     0.22  -0.10  -0.10
   5   6    -0.03  -0.03   0.09    -0.12   0.04   0.23    -0.05   0.03   0.07
   6   8     0.01   0.00  -0.04     0.04   0.00  -0.05     0.01  -0.01  -0.01
   7   8     0.01   0.01  -0.01    -0.01  -0.02  -0.04     0.01  -0.00  -0.01
   8  17    -0.00   0.00   0.00    -0.00   0.00  -0.00    -0.00  -0.00  -0.00
   9   1     0.05  -0.06  -0.11    -0.11  -0.10  -0.08     0.09   0.11   0.11
  10   1     0.03  -0.12  -0.09     0.01   0.01  -0.07    -0.04   0.05   0.14
  11   1     0.04   0.05   0.12    -0.07  -0.07  -0.03     0.14   0.10   0.07
  12   1    -0.21   0.03  -0.50    -0.06   0.05  -0.20     0.11  -0.13   0.39
  13   1     0.15  -0.12   0.44    -0.11   0.07  -0.30     0.11  -0.07   0.33
  14   1    -0.09   0.21  -0.14    -0.10   0.21   0.02     0.05  -0.14   0.05
  15   1     0.14  -0.32   0.03     0.06  -0.05  -0.05     0.17  -0.38   0.07
  16   1    -0.04   0.08   0.03    -0.39   0.22   0.26    -0.23   0.12   0.16
  17   1     0.17  -0.11  -0.15    -0.21   0.13   0.18    -0.10   0.03   0.08
  18   1    -0.01   0.00  -0.02    -0.03  -0.02  -0.09    -0.01  -0.01  -0.03
                     31                     32                     33
                        a                      a                      a 
 Frequencies --  1351.8953              1374.0097              1398.4863
 Red. masses --     4.0348                 2.5890                 1.5339
 Frc consts  --     0.0000                 0.0000                 0.0000
 IR Inten    --    11.7533               136.4977                65.9945
 Raman Activ --     0.0000                 0.0000                 0.0000
 Depolar     --     0.0000                 0.0000                 0.0000
 Atom AN      X      Y      Z        X      Y      Z        X      Y      Z
   1   7    -0.05  -0.12  -0.04     0.19   0.08   0.21     0.07  -0.15   0.00
   2   6    -0.12   0.13  -0.13    -0.05   0.08  -0.16     0.06  -0.06   0.04
   3   6     0.20  -0.36   0.09     0.01   0.03   0.05    -0.01   0.02  -0.00
   4   6     0.06   0.04  -0.11     0.00  -0.00  -0.01    -0.04  -0.05   0.03
   5   6    -0.01  -0.00   0.05    -0.00  -0.01  -0.00     0.01   0.00  -0.04
   6   8     0.01   0.00  -0.01     0.00   0.01   0.00    -0.01  -0.01   0.01
   7   8    -0.02  -0.01  -0.02     0.00   0.00   0.00     0.00   0.00   0.01
   8  17     0.00  -0.00  -0.00     0.00   0.00   0.01     0.01  -0.01  -0.00
   9   1     0.08   0.08   0.08    -0.40  -0.25  -0.11    -0.34  -0.16  -0.03
  10   1    -0.06   0.05   0.09    -0.09   0.02  -0.58    -0.41   0.57  -0.04
  11   1     0.08   0.09  -0.01    -0.27  -0.23  -0.16     0.37   0.36   0.11
  12   1     0.05   0.03   0.12     0.04  -0.09   0.22    -0.04   0.01  -0.12
  13   1     0.12  -0.08   0.36     0.11  -0.09   0.24    -0.02   0.02  -0.04
  14   1    -0.22   0.55  -0.07    -0.02   0.02  -0.04     0.00  -0.02  -0.02
  15   1    -0.17   0.32  -0.01     0.02  -0.03   0.01     0.02  -0.00  -0.02
  16   1    -0.01   0.02  -0.00     0.03  -0.01  -0.01     0.02   0.07  -0.08
  17   1    -0.07   0.12   0.10    -0.01  -0.00   0.00     0.06   0.06   0.04
  18   1    -0.01   0.00  -0.02     0.00  -0.00   0.00     0.01   0.00   0.02
                     34                     35                     36
                        a                      a                      a 
 Frequencies --  1435.4061              1479.5459              1484.3804
 Red. masses --     1.8803                 1.8552                 1.9181
 Frc consts  --     0.0000                 0.0000                 0.0000
 IR Inten    --    92.8657                17.0519                 2.2844
 Raman Activ --     0.0000                 0.0000                 0.0000
 Depolar     --     0.0000                 0.0000                 0.0000
 Atom AN      X      Y      Z        X      Y      Z        X      Y      Z
   1   7    -0.06  -0.02   0.23     0.01   0.02  -0.01    -0.01  -0.03   0.05
   2   6    -0.04   0.01  -0.00     0.02   0.06   0.00     0.01   0.05   0.02
   3   6    -0.01   0.03   0.01     0.05  -0.00  -0.24     0.03   0.00  -0.09
   4   6    -0.03  -0.07   0.01    -0.03  -0.10   0.01     0.10   0.23  -0.06
   5   6    -0.00  -0.01  -0.02     0.01  -0.00  -0.00    -0.01   0.01   0.03
   6   8     0.00  -0.00   0.01    -0.00  -0.00  -0.00     0.00  -0.00  -0.00
   7   8     0.01   0.01   0.01    -0.01  -0.00  -0.00    -0.01  -0.01  -0.01
   8  17    -0.00  -0.00   0.00     0.00   0.00   0.00     0.00  -0.00  -0.00
   9   1     0.40  -0.26  -0.41    -0.04   0.02   0.03     0.04  -0.07  -0.09
  10   1    -0.02   0.01   0.05     0.02  -0.02  -0.02    -0.07   0.10   0.01
  11   1    -0.05   0.35  -0.58    -0.01  -0.05   0.06     0.05   0.15  -0.12
  12   1    -0.00  -0.04   0.07    -0.13  -0.13  -0.00    -0.11  -0.11   0.00
  13   1     0.01  -0.06  -0.03     0.08  -0.14  -0.09     0.06  -0.13  -0.07
  14   1    -0.00  -0.02  -0.01     0.22   0.17   0.53     0.08   0.09   0.20
  15   1     0.02  -0.03   0.00    -0.43  -0.16   0.39    -0.16  -0.05   0.15
  16   1    -0.01   0.13  -0.10    -0.02   0.21  -0.17     0.05  -0.49   0.38
  17   1     0.10   0.11   0.06     0.15   0.16   0.09    -0.34  -0.37  -0.23
  18   1    -0.01   0.00  -0.02     0.00   0.00   0.01    -0.00   0.00  -0.01
                     37                     38                     39
                        a                      a                      a 
 Frequencies --  1494.4519              1726.7251              2939.5551
 Red. masses --     1.9262                13.2223                 1.9125
 Frc consts  --     0.0000                 0.0000                 0.0000
 IR Inten    --     7.3222               417.4518               274.5482
 Raman Activ --     0.0000                 0.0000                 0.0000
 Depolar     --     0.0000                 0.0000                 0.0000
 Atom AN      X      Y      Z        X      Y      Z        X      Y      Z
   1   7     0.01   0.01  -0.03    -0.01  -0.00   0.00     0.08   0.05  -0.02
   2   6     0.03   0.26   0.05     0.00   0.00   0.00    -0.21  -0.03   0.07
   3   6    -0.01  -0.01   0.10    -0.01   0.01   0.00     0.13   0.06   0.03
   4   6    -0.01  -0.03   0.00    -0.06  -0.03   0.01    -0.01  -0.00  -0.02
   5   6    -0.01   0.00  -0.01     0.68   0.27   0.30     0.00  -0.00   0.00
   6   8    -0.00  -0.00   0.00    -0.04  -0.02  -0.05    -0.00   0.00  -0.00
   7   8     0.01   0.00   0.00    -0.49  -0.20  -0.26    -0.00   0.00  -0.00
   8  17    -0.00  -0.00  -0.00     0.00   0.00   0.00    -0.00  -0.00   0.00
   9   1    -0.01   0.05   0.05     0.00  -0.00  -0.00     0.01  -0.00   0.00
  10   1     0.03  -0.01   0.06    -0.00   0.01  -0.00    -0.28  -0.19   0.05
  11   1     0.02  -0.02   0.07     0.00   0.00  -0.02    -0.02   0.03   0.01
  12   1    -0.44  -0.44   0.04    -0.00  -0.00   0.00     0.20  -0.23  -0.12
  13   1     0.27  -0.52  -0.27     0.00  -0.01   0.00     0.57   0.34  -0.12
  14   1    -0.09  -0.05  -0.20     0.00  -0.02  -0.01    -0.31  -0.11   0.16
  15   1     0.15   0.07  -0.14     0.02  -0.00  -0.01    -0.17  -0.12  -0.24
  16   1    -0.01   0.05  -0.04    -0.04   0.00   0.04     0.04   0.04   0.04
  17   1     0.03   0.04   0.03     0.03   0.01   0.00     0.01  -0.03   0.03
  18   1     0.00   0.00   0.00     0.04   0.02   0.10    -0.00  -0.00  -0.00
                     40                     41                     42
                        a                      a                      a 
 Frequencies --  2948.3557              2959.9959              2967.5398
 Red. masses --     1.9739                 1.9671                 1.9195
 Frc consts  --     0.0000                 0.0000                 0.0000
 IR Inten    --   408.1685               754.0201                85.5879
 Raman Activ --     0.0000                 0.0000                 0.0000
 Depolar     --     0.0000                 0.0000                 0.0000
 Atom AN      X      Y      Z        X      Y      Z        X      Y      Z
   1   7     0.11   0.07  -0.03     0.17   0.11  -0.04    -0.06  -0.04   0.02
   2   6    -0.09  -0.01   0.03     0.14  -0.04  -0.05    -0.06   0.02   0.03
   3   6    -0.21  -0.10  -0.07     0.02   0.02   0.06    -0.08  -0.02   0.04
   4   6     0.02   0.01   0.03    -0.05   0.02  -0.08    -0.13   0.07  -0.21
   5   6     0.00   0.00   0.00     0.00   0.00  -0.00    -0.00   0.00  -0.01
   6   8    -0.00   0.00  -0.00    -0.00   0.00  -0.00     0.00   0.00   0.00
   7   8    -0.00   0.00  -0.00    -0.00  -0.00  -0.00     0.00  -0.00   0.00
   8  17    -0.00  -0.00   0.00    -0.01  -0.01   0.00     0.00   0.00  -0.00
   9   1     0.01  -0.00   0.00     0.01  -0.01   0.01    -0.00   0.00  -0.00
  10   1    -0.36  -0.25   0.07    -0.56  -0.39   0.11     0.21   0.14  -0.04
  11   1    -0.02   0.03   0.02    -0.03   0.04   0.02     0.01  -0.01  -0.01
  12   1     0.10  -0.11  -0.06    -0.28   0.29   0.17     0.14  -0.14  -0.08
  13   1     0.22   0.14  -0.05    -0.21  -0.14   0.04     0.08   0.06  -0.01
  14   1     0.38   0.13  -0.21     0.07   0.03  -0.03     0.29   0.10  -0.14
  15   1     0.35   0.23   0.47    -0.15  -0.10  -0.19    -0.03  -0.02  -0.02
  16   1    -0.08  -0.06  -0.07     0.13   0.10   0.12     0.26   0.22   0.23
  17   1    -0.01   0.03  -0.03     0.06  -0.16   0.18     0.19  -0.46   0.52
  18   1    -0.00  -0.00   0.00    -0.00  -0.00   0.00    -0.00   0.00   0.00
                     43                     44                     45
                        a                      a                      a 
 Frequencies --  2975.9204              2979.0483              2989.9982
 Red. masses --     1.6096                 1.5677                 1.5578
 Frc consts  --     0.0000                 0.0000                 0.0000
 IR Inten    --    17.7885                46.2011                 4.7475
 Raman Activ --     0.0000                 0.0000                 0.0000
 Depolar     --     0.0000                 0.0000                 0.0000
 Atom AN      X      Y      Z        X      Y      Z        X      Y      Z
   1   7    -0.03  -0.02   0.00     0.06   0.03  -0.01     0.01   0.01  -0.00
   2   6    -0.04  -0.05   0.01    -0.02   0.19   0.05     0.00   0.03   0.01
   3   6    -0.07  -0.00   0.18     0.01   0.01   0.05     0.03   0.02   0.01
   4   6     0.05  -0.02   0.09     0.00  -0.04   0.02     0.10   0.19   0.03
   5   6     0.00  -0.00   0.00    -0.00  -0.00   0.00     0.01   0.01   0.00
   6   8     0.00  -0.00  -0.00     0.00   0.00  -0.00    -0.00  -0.00   0.00
   7   8     0.00   0.00  -0.00    -0.00  -0.00  -0.00    -0.00  -0.00  -0.00
   8  17     0.00   0.00  -0.00    -0.00  -0.00   0.00    -0.00  -0.00   0.00
   9   1    -0.00  -0.00   0.00     0.01  -0.00   0.00     0.00   0.00  -0.00
  10   1     0.08   0.06  -0.02    -0.17  -0.12   0.03    -0.04  -0.03   0.01
  11   1     0.01  -0.01  -0.01    -0.04   0.03   0.02    -0.00   0.00  -0.00
  12   1    -0.07   0.06   0.04     0.50  -0.46  -0.28     0.06  -0.06  -0.03
  13   1     0.21   0.12  -0.04    -0.45  -0.24   0.10    -0.08  -0.04   0.02
  14   1     0.59   0.21  -0.26     0.10   0.04  -0.04    -0.05  -0.01   0.02
  15   1    -0.33  -0.21  -0.39    -0.12  -0.08  -0.15    -0.06  -0.04  -0.08
  16   1    -0.11  -0.09  -0.10     0.04   0.03   0.04    -0.52  -0.39  -0.50
  17   1    -0.07   0.17  -0.19    -0.05   0.10  -0.12     0.15  -0.29   0.38
  18   1     0.00   0.00   0.00    -0.00  -0.00   0.00     0.00   0.00  -0.00
                     46                     47                     48
                        a                      a                      a 
 Frequencies --  3163.3768              3219.6596              3492.3119
 Red. masses --     1.8065                 1.7262                 1.8521
 Frc consts  --     0.0000                 0.0000                 0.0000
 IR Inten    --   162.0267                35.5836                52.1081
 Raman Activ --     0.0000                 0.0000                 0.0000
 Depolar     --     0.0000                 0.0000                 0.0000
 Atom AN      X      Y      Z        X      Y      Z        X      Y      Z
   1   7    -0.16   0.17   0.08     0.05  -0.16   0.16    -0.00   0.00   0.00
   2   6    -0.00   0.01   0.01     0.00  -0.00   0.00    -0.00   0.00   0.00
   3   6     0.00   0.00   0.00    -0.00   0.00   0.00     0.00   0.00  -0.00
   4   6    -0.00  -0.00   0.00    -0.00  -0.00  -0.00    -0.00   0.00   0.00
   5   6    -0.00  -0.00  -0.01     0.00  -0.00  -0.00     0.00   0.00  -0.01
   6   8    -0.00  -0.00   0.01    -0.00   0.00   0.00     0.21   0.06  -0.09
   7   8     0.00   0.00   0.00    -0.00   0.00   0.00     0.00   0.00   0.00
   8  17    -0.00  -0.00   0.00     0.00   0.00  -0.00    -0.00  -0.00  -0.00
   9   1     0.00  -0.04   0.06    -0.23   0.71  -0.62     0.00  -0.00   0.00
  10   1    -0.09  -0.04   0.02    -0.03  -0.04   0.02    -0.00   0.00   0.00
  11   1     0.70  -0.55  -0.37     0.06  -0.06  -0.02     0.01  -0.01  -0.00
  12   1     0.02  -0.02  -0.01    -0.00   0.00  -0.00    -0.00   0.00   0.00
  13   1    -0.01  -0.01   0.00    -0.00  -0.00  -0.00     0.00  -0.00  -0.00
  14   1    -0.00  -0.00   0.00     0.00   0.00  -0.00    -0.00  -0.00   0.00
  15   1    -0.00  -0.00  -0.00    -0.00  -0.00  -0.00     0.00   0.00   0.00
  16   1     0.00   0.00   0.00     0.00   0.00   0.00    -0.00  -0.00  -0.00
  17   1    -0.00   0.00  -0.00    -0.00   0.00  -0.00     0.00  -0.00  -0.00
  18   1     0.01   0.00  -0.00    -0.00  -0.00   0.00    -0.84  -0.24   0.42
