22
 energy: -34.283729104557 gnorm: 0.000296015144 xtb: 6.5.1 (fef0646)
N            0.99694466826918        0.04840817710971       -0.24061687429641
C            2.45579259698730        0.09820286572015       -0.29522107953854
C            2.95596806742452        1.39267924806463        0.35492466186711
C            4.45132415233589        1.37053506185491        0.48396615620516
C            5.26365962698724        1.85188899983694       -0.53518762139818
C            6.64203822041456        1.80400050435739       -0.42950822806358
C            7.20990684518331        1.26457978576795        0.71110807872970
Br           9.10943343641020        1.19866209476986        0.86938675467616
C            6.42338086614329        0.77510256943709        1.73965742645053
C            5.04732051119061        0.82976497344380        1.61729516284256
Cl           0.23432729845098        0.06900057378707        2.59994620246709
H            0.64164707114270       -0.80362052613370       -0.65952649412122
H            0.58811724439703        0.84431068167510       -0.71940073020093
H            0.57205293047396        0.06313159587691        1.27483185110668
H            2.84081170929568        0.03106915784931       -1.32277764006596
H            2.83528503510887       -0.75891395417240        0.26598458013667
H            2.49639242704159        1.47927588621660        1.33937274305441
H            2.64377937349947        2.24524948653374       -0.25157250859536
H            4.81787052789041        2.27659755324846       -1.42290081861937
H            7.26861545022257        2.18224755902105       -1.22260181813609
H            6.88135562818067        0.35999654682939        2.62420472996602
H            4.42706631295063        0.45268115890630        2.41654546553377
