 Entering Gaussian System
 *********************************************
 Gaussian 98:
 frequency output generated by the xtb code
 *********************************************
                         Standard orientation:
 --------------------------------------------------------------------
  Center     Atomic     Atomic              Coordinates (Angstroms)
  Number     Number      Type              X           Y           Z
 --------------------------------------------------------------------
    1          7             0       -2.783953    0.959796    0.741108
    2          6             0       -2.506672   -0.167397   -0.199301
    3          6             0       -1.169194   -0.871244    0.079106
    4          6             0       -0.038576   -0.503791   -0.903189
    5          6             0        1.215900   -1.397308   -0.700372
    6          6             0        1.993687   -1.038620    0.578175
    7          6             0        2.378795    0.449839    0.599921
    8          6             0        1.138799    1.343835    0.436454
    9          6             0        0.364582    0.992897   -0.846303
   10          1             0       -3.678541    1.414940    0.527560
   11          1             0       -2.051119    1.677052    0.695114
   12          1             0       -2.826491    0.621458    1.708869
   13          1             0       -2.531504    0.197771   -1.232092
   14          1             0       -3.335935   -0.882773   -0.129587
   15          1             0       -1.308600   -1.958443    0.056598
   16          1             0       -0.850610   -0.649944    1.100954
   17          1             0       -0.425750   -0.704041   -1.916837
   18          1             0        1.880168   -1.297233   -1.566074
   19          1             0        0.918495   -2.452476   -0.679669
   20          1             0        2.888784   -1.667484    0.671833
   21          1             0        1.384609   -1.271575    1.458448
   22          1             0        3.084343    0.654654   -0.213272
   23          1             0        2.915939    0.697757    1.524669
   24          1             0        1.425754    2.403544    0.435211
   25          1             0        0.486921    1.222020    1.307966
   26          1             0        0.988151    1.232572   -1.714906
   27          1             0       -0.523265    1.626371   -0.947351
 --------------------------------------------------------------------
     1 basis functions        1 primitive gaussians
     1 alpha electrons        1 beta electrons

 Harmonic frequencies (cm**-1), IR intensities (km*mol⁻¹),
 Raman scattering activities (A**4/amu), Raman depolarization ratios,
 reduced masses (AMU), force constants (mDyne/A) and normal coordinates:
                      1                      2                      3
                        a                      a                      a 
 Frequencies --    91.3488               115.9149               165.5985
 Red. masses --     9.6798                 8.3096                 7.4968
 Frc consts  --     0.0000                 0.0000                 0.0000
 IR Inten    --    25.3993                16.3909                 0.8380
 Raman Activ --     0.0000                 0.0000                 0.0000
 Depolar     --     0.0000                 0.0000                 0.0000
 Atom AN      X      Y      Z        X      Y      Z        X      Y      Z
   1   7    -0.58  -0.19  -0.04     0.04   0.23  -0.46    -0.08  -0.06   0.04
   2   6    -0.07  -0.01  -0.10    -0.11  -0.28   0.13     0.03  -0.17   0.21
   3   6    -0.00   0.21   0.15     0.00  -0.05   0.17     0.23   0.18   0.12
   4   6     0.00   0.09   0.11    -0.07   0.07   0.13     0.04   0.11  -0.13
   5   6    -0.05  -0.01   0.05    -0.03   0.08  -0.11     0.01   0.07  -0.18
   6   6     0.09  -0.05  -0.03     0.12  -0.04  -0.17    -0.27  -0.12   0.04
   7   6     0.26  -0.09  -0.15     0.09  -0.04  -0.05    -0.17  -0.15   0.26
   8   6     0.32   0.01  -0.04     0.04  -0.05   0.20     0.04   0.08  -0.16
   9   6     0.12   0.06   0.07    -0.07   0.07   0.24     0.17   0.07  -0.24
  10   1    -0.15  -0.07  -0.08    -0.03  -0.01  -0.11    -0.11  -0.15   0.09
  11   1    -0.18  -0.02   0.09    -0.02   0.08  -0.31    -0.12   0.07  -0.14
  12   1    -0.24  -0.09  -0.03     0.12   0.22  -0.06     0.14   0.05   0.04
  13   1     0.03   0.03  -0.02    -0.11  -0.24  -0.02    -0.06  -0.10   0.04
  14   1     0.01  -0.05  -0.11    -0.01  -0.09   0.20     0.06  -0.10   0.14
  15   1     0.04   0.05   0.13     0.04  -0.02   0.06     0.12   0.04   0.12
  16   1    -0.02   0.15   0.03    -0.01   0.01   0.05     0.10   0.14   0.00
  17   1    -0.01   0.03   0.04    -0.05   0.05   0.04    -0.03   0.02  -0.02
  18   1    -0.03  -0.03  -0.00    -0.04   0.05  -0.05     0.04   0.08  -0.01
  19   1    -0.04   0.00   0.03    -0.00   0.02  -0.05     0.01   0.02  -0.13
  20   1     0.01  -0.04  -0.02     0.04  -0.01  -0.10    -0.09  -0.05   0.06
  21   1     0.04   0.02   0.01     0.06  -0.04  -0.04    -0.14  -0.05  -0.04
  22   1     0.05  -0.06  -0.07    -0.01   0.02  -0.03     0.05  -0.06   0.15
  23   1     0.11  -0.03  -0.06     0.06  -0.04  -0.03    -0.14  -0.07   0.13
  24   1     0.12  -0.00  -0.03     0.00  -0.01   0.09     0.08   0.00  -0.08
  25   1     0.12   0.03   0.01     0.04  -0.05   0.07    -0.05   0.11  -0.08
  26   1    -0.00   0.01  -0.01    -0.04   0.04   0.06     0.08  -0.02  -0.06
  27   1     0.04   0.03   0.07    -0.02   0.02   0.10     0.07   0.04  -0.10
                      4                      5                      6
                        a                      a                      a 
 Frequencies --   197.1629               219.4874               291.5928
 Red. masses --     6.8856                 4.1645                 7.5781
 Frc consts  --     0.0000                 0.0000                 0.0000
 IR Inten    --     3.8737                 3.0467                 1.8024
 Raman Activ --     0.0000                 0.0000                 0.0000
 Depolar     --     0.0000                 0.0000                 0.0000
 Atom AN      X      Y      Z        X      Y      Z        X      Y      Z
   1   7    -0.12   0.14  -0.05    -0.18   0.07   0.08     0.13  -0.07  -0.08
   2   6     0.19   0.12   0.04     0.01   0.22  -0.07     0.34   0.08  -0.17
   3   6     0.16   0.14   0.29    -0.03   0.11  -0.04     0.23   0.07   0.19
   4   6     0.02  -0.12   0.02     0.06  -0.10  -0.02     0.05  -0.01   0.03
   5   6     0.11  -0.03  -0.18     0.06  -0.10   0.05     0.01  -0.03  -0.03
   6   6     0.18  -0.07  -0.21     0.24  -0.00  -0.08    -0.28  -0.05   0.11
   7   6    -0.18   0.02   0.11    -0.01   0.07   0.01    -0.11  -0.09  -0.27
   8   6    -0.29  -0.13   0.06    -0.17  -0.15   0.09    -0.09  -0.00   0.07
   9   6    -0.04  -0.12  -0.08     0.05  -0.11  -0.04    -0.28   0.07   0.17
  10   1     0.07   0.15  -0.22    -0.27  -0.28   0.30    -0.03  -0.12   0.05
  11   1     0.06  -0.05   0.19    -0.29   0.25  -0.25    -0.05   0.06  -0.05
  12   1    -0.32   0.01  -0.03     0.38   0.04   0.05     0.14  -0.04  -0.03
  13   1     0.12   0.04   0.01     0.02   0.10  -0.01     0.19   0.07  -0.03
  14   1     0.05   0.03  -0.05     0.01   0.05  -0.07     0.08   0.03  -0.16
  15   1     0.04   0.04   0.20    -0.04   0.03   0.01     0.07   0.02   0.16
  16   1     0.07   0.15   0.05    -0.00   0.04  -0.02     0.07   0.13   0.03
  17   1    -0.05  -0.06   0.03     0.03  -0.05  -0.01    -0.01  -0.00   0.02
  18   1    -0.00   0.03  -0.07    -0.01  -0.07  -0.01     0.04   0.02   0.02
  19   1     0.06  -0.02  -0.07     0.01  -0.03   0.06    -0.01  -0.01  -0.06
  20   1     0.10   0.04  -0.12     0.11   0.04  -0.08    -0.11  -0.04   0.13
  21   1     0.09  -0.12  -0.06     0.13  -0.05   0.01    -0.15   0.07   0.00
  22   1    -0.02   0.09   0.08    -0.02   0.07   0.00    -0.13  -0.09  -0.18
  23   1    -0.11  -0.02   0.07    -0.01   0.02   0.00     0.09   0.01  -0.16
  24   1    -0.12  -0.03   0.06    -0.11  -0.03   0.08    -0.01  -0.00   0.02
  25   1    -0.11  -0.09  -0.01    -0.07  -0.12  -0.00     0.03  -0.00   0.06
  26   1     0.03  -0.04   0.01     0.05  -0.03   0.02    -0.15   0.12   0.03
  27   1    -0.01  -0.04  -0.07     0.01  -0.04  -0.05    -0.13  -0.04   0.14
                      7                      8                      9
                        a                      a                      a 
 Frequencies --   312.5436               348.4443               396.6085
 Red. masses --     6.8025                 7.7270                 6.8836
 Frc consts  --     0.0000                 0.0000                 0.0000
 IR Inten    --     0.8584                13.4896                 2.2160
 Raman Activ --     0.0000                 0.0000                 0.0000
 Depolar     --     0.0000                 0.0000                 0.0000
 Atom AN      X      Y      Z        X      Y      Z        X      Y      Z
   1   7     0.01  -0.05   0.03     0.29  -0.26  -0.07     0.13  -0.12  -0.01
   2   6    -0.04  -0.14   0.12     0.04  -0.07  -0.25    -0.10  -0.02  -0.14
   3   6     0.17   0.20  -0.12    -0.03   0.09   0.16    -0.17   0.02   0.21
   4   6     0.12   0.17  -0.17    -0.12   0.10   0.13    -0.19  -0.05   0.14
   5   6    -0.16  -0.16   0.16    -0.34  -0.15   0.07     0.01   0.25  -0.13
   6   6    -0.06   0.03   0.06     0.07  -0.01  -0.21    -0.17   0.18   0.01
   7   6    -0.06   0.03  -0.23    -0.10   0.06   0.12     0.15   0.08  -0.07
   8   6    -0.21  -0.13   0.21     0.02   0.22   0.01    -0.01  -0.18   0.10
   9   6     0.23   0.14  -0.10     0.07   0.08   0.03     0.28  -0.18  -0.08
  10   1     0.05   0.04  -0.05     0.07  -0.03   0.09     0.04   0.01   0.08
  11   1     0.05  -0.06   0.04     0.10  -0.09  -0.04     0.06  -0.06  -0.03
  12   1    -0.08   0.00   0.01     0.16  -0.13  -0.04     0.09  -0.07  -0.01
  13   1    -0.11  -0.09   0.02     0.08   0.02  -0.06     0.04   0.03  -0.03
  14   1     0.04  -0.08   0.13    -0.01  -0.00  -0.14    -0.06   0.02  -0.10
  15   1     0.10   0.05  -0.00     0.04   0.02   0.13    -0.01  -0.00   0.13
  16   1     0.07   0.08  -0.05    -0.04   0.12   0.03    -0.09   0.08   0.06
  17   1     0.05   0.05  -0.06    -0.06   0.05   0.05    -0.10  -0.02   0.06
  18   1    -0.02  -0.22   0.04    -0.16  -0.20  -0.04    -0.00   0.24  -0.02
  19   1    -0.16  -0.01   0.16    -0.19  -0.02   0.16     0.13   0.04  -0.14
  20   1    -0.02   0.00   0.03     0.07   0.05  -0.19    -0.11  -0.02   0.09
  21   1     0.00   0.06   0.05     0.13  -0.09  -0.01    -0.13   0.14  -0.04
  22   1    -0.13   0.00  -0.17     0.03   0.07   0.10     0.00   0.01  -0.06
  23   1     0.11   0.03  -0.14    -0.09  -0.05   0.09     0.09   0.02  -0.05
  24   1    -0.14  -0.02   0.22     0.06   0.05  -0.05    -0.11  -0.02   0.11
  25   1    -0.08  -0.22   0.02    -0.01   0.14   0.00    -0.02  -0.18  -0.00
  26   1     0.17   0.03   0.04     0.05  -0.05   0.01     0.21  -0.21   0.03
  27   1     0.08   0.05  -0.12     0.05   0.05  -0.05     0.17   0.06  -0.17
                     10                     11                     12
                        a                      a                      a 
 Frequencies --   414.3231               459.9897               485.9219
 Red. masses --     8.3346                 7.7015                 7.8081
 Frc consts  --     0.0000                 0.0000                 0.0000
 IR Inten    --     5.6843                 3.3386                 1.4170
 Raman Activ --     0.0000                 0.0000                 0.0000
 Depolar     --     0.0000                 0.0000                 0.0000
 Atom AN      X      Y      Z        X      Y      Z        X      Y      Z
   1   7    -0.17   0.11  -0.01     0.04   0.01   0.04    -0.01   0.01  -0.04
   2   6     0.23   0.05   0.13    -0.19  -0.01  -0.03     0.27  -0.00   0.07
   3   6     0.07  -0.30   0.03     0.00   0.23  -0.12     0.13  -0.13   0.03
   4   6     0.04  -0.08   0.06     0.04  -0.25  -0.27    -0.19   0.07  -0.17
   5   6    -0.09  -0.22  -0.18     0.07  -0.22  -0.16    -0.29   0.13   0.08
   6   6    -0.24   0.15  -0.21    -0.12   0.22  -0.12    -0.07   0.21  -0.03
   7   6    -0.07   0.14  -0.05     0.15   0.16   0.12     0.31   0.07   0.18
   8   6     0.04   0.27   0.16     0.10   0.03   0.13     0.08  -0.31  -0.10
   9   6     0.26  -0.10   0.14    -0.06  -0.24   0.23    -0.14   0.01  -0.11
  10   1    -0.08  -0.08  -0.09     0.03   0.06   0.05    -0.03  -0.08  -0.08
  11   1    -0.12   0.10   0.01     0.05  -0.04   0.01    -0.06   0.06   0.00
  12   1    -0.08   0.07   0.01     0.02  -0.02   0.00    -0.03   0.03  -0.00
  13   1     0.13   0.03   0.04    -0.15  -0.03  -0.02     0.14   0.01   0.02
  14   1     0.04   0.03  -0.03    -0.02  -0.03   0.08     0.06   0.01  -0.04
  15   1    -0.05  -0.07  -0.15     0.02   0.06   0.21     0.02  -0.03  -0.04
  16   1     0.02  -0.24   0.04     0.06   0.29  -0.10     0.09  -0.08   0.00
  17   1    -0.03   0.06   0.01     0.02  -0.02  -0.09    -0.07  -0.00  -0.04
  18   1    -0.04  -0.13  -0.07     0.02  -0.13  -0.05    -0.09  -0.11   0.00
  19   1    -0.04  -0.06   0.03     0.04  -0.07   0.06    -0.13   0.05   0.15
  20   1    -0.08   0.04   0.03    -0.08   0.02   0.09    -0.09  -0.04  -0.01
  21   1    -0.12   0.09  -0.09    -0.13   0.14  -0.08    -0.03   0.13   0.01
  22   1    -0.04   0.06  -0.03     0.09   0.09   0.09     0.21   0.06   0.17
  23   1     0.02  -0.04  -0.02    -0.01  -0.03   0.08    -0.07  -0.00   0.15
  24   1     0.02   0.07  -0.02    -0.02   0.02  -0.06    -0.10  -0.06   0.08
  25   1     0.01   0.12   0.05     0.08   0.05   0.09     0.02  -0.24  -0.05
  26   1     0.16  -0.11   0.08    -0.08   0.05   0.06    -0.11   0.05  -0.07
  27   1     0.10  -0.01  -0.09    -0.07  -0.13   0.15    -0.03   0.03   0.10
                     13                     14                     15
                        a                      a                      a 
 Frequencies --   619.1454               760.3475               812.2746
 Red. masses --     6.7734                 6.4557                 4.5574
 Frc consts  --     0.0000                 0.0000                 0.0000
 IR Inten    --     6.0823                22.6013                 3.3446
 Raman Activ --     0.0000                 0.0000                 0.0000
 Depolar     --     0.0000                 0.0000                 0.0000
 Atom AN      X      Y      Z        X      Y      Z        X      Y      Z
   1   7    -0.01   0.01   0.00     0.05  -0.05  -0.08     0.02   0.02  -0.01
   2   6     0.14  -0.00   0.05     0.14   0.11  -0.07     0.02   0.01  -0.03
   3   6     0.10  -0.03  -0.16     0.13   0.32  -0.11    -0.02  -0.03  -0.00
   4   6    -0.26  -0.09  -0.33     0.11   0.07   0.30     0.04  -0.19   0.00
   5   6    -0.23   0.28   0.13    -0.13   0.12   0.06    -0.20  -0.16   0.06
   6   6     0.04  -0.01   0.14    -0.08   0.05  -0.10    -0.24   0.01   0.04
   7   6    -0.03  -0.02   0.04    -0.05  -0.00  -0.05    -0.04   0.14  -0.00
   8   6     0.02   0.04   0.13    -0.05  -0.13  -0.09     0.18   0.20  -0.03
   9   6     0.01  -0.26   0.13    -0.01  -0.32   0.13     0.23   0.04  -0.06
  10   1    -0.01  -0.05  -0.06    -0.02  -0.07   0.03    -0.01  -0.02   0.01
  11   1    -0.03   0.04   0.01    -0.05   0.07   0.18    -0.03   0.04   0.07
  12   1    -0.03   0.03   0.01    -0.01  -0.22  -0.09    -0.01  -0.06  -0.03
  13   1     0.03   0.01   0.02    -0.23  -0.17  -0.08    -0.04  -0.05  -0.02
  14   1     0.04  -0.00   0.01     0.15  -0.07   0.29     0.00   0.01   0.06
  15   1     0.03  -0.01   0.09    -0.02   0.10  -0.28    -0.01  -0.01   0.04
  16   1     0.17   0.11  -0.12    -0.07  -0.15   0.05     0.00   0.02  -0.01
  17   1    -0.02  -0.01  -0.12     0.01   0.02   0.09     0.00  -0.02  -0.00
  18   1    -0.01   0.17   0.08    -0.07   0.09  -0.00     0.02   0.25   0.11
  19   1     0.02   0.05  -0.05    -0.02   0.03  -0.02     0.14  -0.10  -0.23
  20   1     0.06   0.03  -0.21    -0.03   0.00  -0.05     0.06   0.13  -0.26
  21   1     0.20  -0.13   0.13    -0.00   0.02  -0.01     0.19  -0.17   0.13
  22   1    -0.14  -0.06  -0.12     0.03   0.02   0.03     0.02  -0.05   0.00
  23   1     0.15   0.05  -0.10    -0.07  -0.02   0.02     0.01  -0.01   0.00
  24   1     0.08  -0.01  -0.18    -0.03  -0.03  -0.12    -0.14   0.11   0.27
  25   1     0.05   0.22   0.10     0.02   0.02   0.00    -0.03  -0.27  -0.11
  26   1     0.11  -0.13   0.10    -0.02  -0.10   0.02    -0.16   0.17  -0.13
  27   1     0.07   0.01  -0.06    -0.03  -0.13   0.03    -0.06  -0.12   0.23
                     16                     17                     18
                        a                      a                      a 
 Frequencies --   833.1337               854.8164               866.2382
 Red. masses --     5.2246                 4.9265                 7.3832
 Frc consts  --     0.0000                 0.0000                 0.0000
 IR Inten    --    44.4269                 3.7098                10.1535
 Raman Activ --     0.0000                 0.0000                 0.0000
 Depolar     --     0.0000                 0.0000                 0.0000
 Atom AN      X      Y      Z        X      Y      Z        X      Y      Z
   1   7    -0.07  -0.07   0.09     0.04  -0.04   0.06     0.01   0.21   0.09
   2   6    -0.12  -0.09   0.08     0.08  -0.02   0.03    -0.02  -0.07  -0.14
   3   6     0.09   0.11  -0.06     0.00   0.03  -0.22    -0.03  -0.33  -0.06
   4   6     0.22   0.08   0.10    -0.04  -0.01   0.11     0.13  -0.03   0.05
   5   6    -0.05   0.13   0.10    -0.09  -0.13   0.15     0.08   0.23   0.19
   6   6    -0.13   0.13  -0.10     0.05  -0.20  -0.02    -0.09   0.19  -0.18
   7   6    -0.18  -0.02  -0.09     0.13   0.03  -0.27    -0.26  -0.18  -0.19
   8   6     0.03  -0.17  -0.12    -0.09   0.19  -0.03     0.08  -0.14  -0.06
   9   6     0.13  -0.22   0.14    -0.17   0.06   0.13     0.09   0.08   0.09
  10   1     0.07   0.11  -0.07     0.01  -0.08  -0.13    -0.04  -0.01   0.07
  11   1     0.13  -0.19  -0.32    -0.02   0.02  -0.06    -0.08   0.15   0.19
  12   1     0.02   0.35   0.15    -0.05   0.14   0.07    -0.02  -0.12  -0.04
  13   1     0.14   0.23   0.11    -0.01   0.07   0.04    -0.05  -0.09  -0.06
  14   1    -0.04  -0.05  -0.29     0.04  -0.02  -0.02    -0.06   0.05   0.08
  15   1     0.07   0.03  -0.09     0.04   0.00   0.07     0.07  -0.10   0.28
  16   1    -0.01  -0.04   0.01     0.03   0.13  -0.09    -0.00   0.22  -0.08
  17   1     0.08   0.04   0.02     0.09   0.03  -0.02     0.14  -0.00  -0.02
  18   1    -0.01   0.04   0.03     0.00   0.22   0.09     0.02  -0.05   0.04
  19   1    -0.01   0.04   0.02     0.06  -0.06  -0.22    -0.00   0.07   0.16
  20   1     0.01   0.08  -0.12    -0.04  -0.12   0.07     0.00   0.09  -0.08
  21   1     0.05  -0.03   0.01     0.01   0.14   0.05     0.01   0.03  -0.03
  22   1     0.00   0.00   0.02     0.29   0.12   0.18     0.05   0.00   0.07
  23   1    -0.11  -0.03   0.02    -0.26  -0.09   0.13    -0.21  -0.12   0.05
  24   1     0.00  -0.05  -0.08    -0.11   0.07   0.06     0.11  -0.06   0.03
  25   1     0.02  -0.02  -0.02     0.10  -0.09   0.06     0.03  -0.03  -0.01
  26   1    -0.06   0.04  -0.00     0.14  -0.16   0.12     0.05  -0.01   0.03
  27   1    -0.02  -0.12   0.15     0.02   0.06  -0.23     0.05   0.05   0.02
                     19                     20                     21
                        a                      a                      a 
 Frequencies --   901.2528               908.7740               916.6470
 Red. masses --     6.4778                 6.7889                 7.3884
 Frc consts  --     0.0000                 0.0000                 0.0000
 IR Inten    --    41.0554                14.0655                 6.2343
 Raman Activ --     0.0000                 0.0000                 0.0000
 Depolar     --     0.0000                 0.0000                 0.0000
 Atom AN      X      Y      Z        X      Y      Z        X      Y      Z
   1   7     0.26  -0.26  -0.03     0.07  -0.01   0.12     0.04   0.15   0.14
   2   6     0.13   0.09   0.16     0.04  -0.05  -0.06    -0.00  -0.13  -0.14
   3   6    -0.30   0.15  -0.10    -0.05  -0.03  -0.16    -0.00  -0.17  -0.12
   4   6    -0.16  -0.01   0.02     0.20  -0.11   0.21     0.04   0.25   0.13
   5   6     0.12  -0.08  -0.02    -0.06   0.26   0.08    -0.08  -0.03  -0.25
   6   6     0.06   0.13   0.00    -0.06  -0.08  -0.19     0.09  -0.19   0.21
   7   6    -0.20  -0.03   0.00     0.21  -0.10   0.19     0.03   0.23   0.09
   8   6     0.10  -0.13  -0.04    -0.07   0.24   0.14    -0.06  -0.04  -0.25
   9   6     0.11   0.08   0.03    -0.09  -0.07  -0.24     0.12  -0.17   0.20
  10   1     0.00  -0.37  -0.39     0.01  -0.12  -0.16    -0.02  -0.05  -0.05
  11   1    -0.13   0.14   0.00    -0.05   0.07  -0.02    -0.07   0.12   0.08
  12   1    -0.15   0.16   0.06    -0.08   0.18   0.09    -0.06   0.05   0.04
  13   1    -0.04   0.07   0.06    -0.07   0.06   0.01    -0.03   0.01  -0.02
  14   1     0.02   0.04   0.08     0.02  -0.02   0.01    -0.04   0.02  -0.01
  15   1    -0.10   0.04   0.04     0.04  -0.02   0.09     0.14  -0.06   0.15
  16   1    -0.10   0.09  -0.03    -0.11   0.13  -0.04    -0.06   0.17  -0.05
  17   1    -0.03   0.02  -0.00     0.12  -0.15   0.05    -0.01   0.24   0.01
  18   1    -0.02  -0.01  -0.04    -0.10  -0.03  -0.06    -0.04  -0.09  -0.09
  19   1     0.09  -0.04   0.05    -0.07   0.09   0.12    -0.19   0.04  -0.09
  20   1     0.06   0.11   0.08    -0.10  -0.15  -0.07     0.03  -0.03   0.10
  21   1    -0.03   0.01  -0.04    -0.10  -0.03  -0.11    -0.04  -0.10  -0.00
  22   1    -0.08  -0.01  -0.02    -0.09  -0.04  -0.08    -0.04  -0.05  -0.05
  23   1    -0.04   0.03  -0.02     0.26  -0.10  -0.05     0.04   0.26  -0.05
  24   1     0.10  -0.06   0.01    -0.05   0.07   0.10    -0.17   0.03  -0.08
  25   1    -0.02   0.00  -0.04    -0.11   0.02  -0.03    -0.04  -0.09  -0.09
  26   1    -0.04   0.03  -0.03    -0.09  -0.00  -0.11    -0.04  -0.08  -0.01
  27   1     0.06   0.08   0.13    -0.12  -0.15  -0.09     0.03  -0.03   0.12
                     22                     23                     24
                        a                      a                      a 
 Frequencies --   950.8758               971.9261               994.2235
 Red. masses --     4.2612                 8.1009                 6.1833
 Frc consts  --     0.0000                 0.0000                 0.0000
 IR Inten    --     3.2401                 8.5620                 3.9208
 Raman Activ --     0.0000                 0.0000                 0.0000
 Depolar     --     0.0000                 0.0000                 0.0000
 Atom AN      X      Y      Z        X      Y      Z        X      Y      Z
   1   7    -0.02  -0.09  -0.04    -0.09   0.15   0.21    -0.14   0.02   0.02
   2   6     0.01   0.10   0.04     0.11  -0.14  -0.26     0.14   0.01  -0.05
   3   6     0.01   0.05  -0.01     0.17  -0.00  -0.18     0.12   0.03  -0.15
   4   6    -0.02  -0.01   0.02    -0.12  -0.02   0.23    -0.32  -0.12   0.04
   5   6     0.23   0.10  -0.12    -0.02  -0.30  -0.03     0.00   0.13   0.05
   6   6    -0.21   0.06   0.08    -0.08   0.24  -0.01     0.28  -0.08   0.00
   7   6    -0.00  -0.05   0.01     0.01   0.01   0.17    -0.25  -0.09  -0.05
   8   6     0.16   0.15  -0.10     0.09  -0.22   0.03     0.15   0.22  -0.01
   9   6    -0.26  -0.04   0.12    -0.20   0.20  -0.09     0.11  -0.08   0.05
  10   1     0.01   0.00  -0.02     0.01   0.09   0.03     0.02   0.17   0.12
  11   1     0.03  -0.06  -0.06     0.02  -0.02  -0.05     0.09  -0.12  -0.09
  12   1     0.01   0.02   0.01    -0.01   0.15   0.09     0.06   0.02   0.01
  13   1    -0.06   0.02   0.01    -0.13   0.02  -0.04    -0.06  -0.00  -0.01
  14   1     0.05  -0.02   0.03     0.11  -0.12   0.01     0.14  -0.11   0.03
  15   1    -0.07   0.02  -0.02     0.13  -0.01  -0.03    -0.01   0.01  -0.02
  16   1     0.01  -0.01  -0.00    -0.08   0.05  -0.02     0.11   0.01  -0.06
  17   1    -0.02   0.02   0.01    -0.07  -0.03   0.08    -0.07  -0.03   0.00
  18   1     0.08  -0.24  -0.05    -0.05   0.11  -0.02    -0.18   0.01  -0.12
  19   1    -0.06   0.06   0.20     0.17  -0.13  -0.08     0.05   0.02   0.13
  20   1     0.09   0.19  -0.16     0.06   0.17  -0.04     0.03  -0.04   0.28
  21   1     0.04  -0.32  -0.01     0.04  -0.02   0.02    -0.16   0.08  -0.13
  22   1     0.10  -0.32   0.01    -0.10  -0.03  -0.06    -0.07   0.01  -0.01
  23   1    -0.01   0.05  -0.01     0.13   0.03  -0.04    -0.07  -0.03  -0.01
  24   1    -0.16   0.09   0.16     0.15  -0.09  -0.02     0.01   0.06   0.26
  25   1     0.16  -0.27   0.03     0.01   0.06   0.01    -0.09  -0.14  -0.12
  26   1     0.08  -0.25   0.07     0.02  -0.12  -0.02    -0.14  -0.11  -0.13
  27   1     0.04   0.10  -0.21     0.05   0.19  -0.10     0.05   0.03   0.17
                     25                     26                     27
                        a                      a                      a 
 Frequencies --  1030.5264              1051.3501              1071.9982
 Red. masses --     7.8060                 5.5981                 7.0585
 Frc consts  --     0.0000                 0.0000                 0.0000
 IR Inten    --    15.2255                 2.7209                 3.4323
 Raman Activ --     0.0000                 0.0000                 0.0000
 Depolar     --     0.0000                 0.0000                 0.0000
 Atom AN      X      Y      Z        X      Y      Z        X      Y      Z
   1   7    -0.09  -0.20  -0.25     0.09   0.11  -0.12    -0.04   0.07   0.08
   2   6    -0.01   0.34   0.31    -0.16  -0.19   0.23     0.18  -0.16  -0.07
   3   6     0.01  -0.18  -0.16     0.04   0.14  -0.15    -0.13   0.12   0.01
   4   6     0.15  -0.07   0.22    -0.10   0.23   0.08    -0.16  -0.05  -0.07
   5   6    -0.09  -0.04   0.03     0.10  -0.16   0.13     0.22  -0.00   0.24
   6   6    -0.05  -0.01  -0.10     0.00   0.11  -0.13    -0.16  -0.17  -0.22
   7   6     0.05   0.11   0.15     0.02  -0.14   0.10     0.14   0.06   0.05
   8   6    -0.03  -0.15  -0.15     0.01   0.08  -0.03    -0.21   0.01  -0.22
   9   6    -0.02   0.17   0.08    -0.11  -0.15   0.00     0.14   0.14   0.21
  10   1     0.01   0.09   0.08    -0.04  -0.06   0.05     0.01   0.06   0.05
  11   1     0.08  -0.16  -0.10    -0.06   0.12   0.17     0.02  -0.01  -0.01
  12   1     0.08  -0.13  -0.09     0.00  -0.19  -0.11     0.02   0.03   0.03
  13   1    -0.03   0.05   0.07     0.33  -0.01   0.06     0.06  -0.08  -0.03
  14   1     0.04   0.04   0.08    -0.22   0.13  -0.19     0.08  -0.07   0.01
  15   1    -0.10  -0.04   0.19     0.16   0.02  -0.08    -0.08   0.04  -0.04
  16   1     0.22   0.13  -0.15     0.15   0.02  -0.08    -0.04  -0.03   0.02
  17   1     0.21   0.04  -0.02     0.06   0.14  -0.03     0.02  -0.02  -0.03
  18   1    -0.09   0.08  -0.03    -0.02   0.08   0.01     0.06  -0.01   0.07
  19   1    -0.00  -0.02  -0.06     0.16  -0.08   0.01     0.22  -0.05   0.18
  20   1    -0.05  -0.05  -0.03     0.03   0.08   0.05    -0.12  -0.17  -0.16
  21   1    -0.05  -0.03  -0.06    -0.03   0.02  -0.05    -0.07  -0.12  -0.10
  22   1    -0.10   0.02  -0.06    -0.06  -0.05  -0.04    -0.01  -0.02  -0.03
  23   1     0.10   0.13  -0.04     0.14  -0.18  -0.01     0.08   0.02  -0.02
  24   1     0.03  -0.05  -0.04    -0.06   0.04   0.05    -0.23   0.05  -0.19
  25   1    -0.07   0.02  -0.08    -0.09  -0.05  -0.08    -0.09   0.03  -0.08
  26   1     0.00  -0.07  -0.01    -0.08  -0.18  -0.08     0.05   0.07   0.07
  27   1     0.06   0.13  -0.00    -0.00  -0.00  -0.02     0.14   0.20   0.18
                     28                     29                     30
                        a                      a                      a 
 Frequencies --  1076.7465              1096.9966              1100.2773
 Red. masses --     4.4720                 6.6203                 7.3775
 Frc consts  --     0.0000                 0.0000                 0.0000
 IR Inten    --     3.7331                 1.8688                17.5349
 Raman Activ --     0.0000                 0.0000                 0.0000
 Depolar     --     0.0000                 0.0000                 0.0000
 Atom AN      X      Y      Z        X      Y      Z        X      Y      Z
   1   7    -0.02  -0.12  -0.00    -0.06  -0.02  -0.01    -0.14   0.06   0.02
   2   6    -0.04   0.25  -0.09     0.15   0.01   0.02     0.42  -0.21   0.11
   3   6     0.10  -0.19   0.08    -0.14  -0.04  -0.02    -0.47   0.11  -0.10
   4   6    -0.11   0.22  -0.03     0.02   0.01   0.01     0.09   0.12   0.01
   5   6     0.17  -0.07   0.01    -0.12  -0.05  -0.11     0.05  -0.01  -0.07
   6   6    -0.05   0.07  -0.01     0.14   0.30   0.12    -0.04   0.01   0.03
   7   6     0.09  -0.15  -0.01     0.15  -0.38   0.02    -0.02   0.04  -0.01
   8   6    -0.11   0.09  -0.01    -0.30   0.10  -0.13     0.09  -0.03   0.08
   9   6     0.01  -0.13   0.02     0.14   0.06   0.07    -0.07  -0.10  -0.10
  10   1     0.02   0.01  -0.05     0.01   0.07   0.05     0.01   0.16   0.15
  11   1     0.02  -0.06  -0.09     0.04  -0.06  -0.04     0.07  -0.09  -0.03
  12   1    -0.01   0.07   0.03     0.03   0.01   0.01     0.08  -0.03  -0.01
  13   1    -0.24   0.07  -0.02    -0.01  -0.03  -0.00     0.19  -0.15  -0.00
  14   1     0.08  -0.02   0.11     0.08  -0.04   0.03     0.14  -0.08   0.02
  15   1     0.04  -0.05   0.08    -0.05  -0.01   0.07    -0.22   0.04   0.10
  16   1    -0.01   0.03   0.02    -0.03   0.05  -0.02    -0.10   0.09  -0.04
  17   1    -0.14   0.23   0.00    -0.04   0.22  -0.03     0.13   0.08  -0.05
  18   1     0.28  -0.10   0.18    -0.17   0.08  -0.12     0.15  -0.06   0.08
  19   1    -0.03   0.00  -0.03     0.17  -0.06   0.07    -0.20   0.05  -0.14
  20   1    -0.03  -0.02  -0.10     0.07   0.12   0.05     0.03   0.06  -0.01
  21   1     0.16   0.17   0.16     0.04   0.05   0.02     0.07   0.05   0.07
  22   1    -0.03   0.16  -0.00     0.12  -0.32   0.02    -0.04   0.13   0.00
  23   1     0.10  -0.32   0.02     0.02  -0.07   0.01     0.02  -0.10   0.01
  24   1    -0.05   0.03   0.00    -0.09   0.03  -0.07     0.07  -0.02   0.05
  25   1    -0.22   0.05  -0.14    -0.04   0.03  -0.01    -0.02   0.01  -0.01
  26   1    -0.13  -0.16  -0.12     0.09   0.22   0.11    -0.07  -0.10  -0.08
  27   1     0.04   0.04   0.10    -0.13  -0.24  -0.09    -0.02  -0.03  -0.03
                     31                     32                     33
                        a                      a                      a 
 Frequencies --  1135.7990              1152.6617              1159.8581
 Red. masses --     5.9566                 2.1768                 7.4276
 Frc consts  --     0.0000                 0.0000                 0.0000
 IR Inten    --     6.7065                 1.6935                 5.5973
 Raman Activ --     0.0000                 0.0000                 0.0000
 Depolar     --     0.0000                 0.0000                 0.0000
 Atom AN      X      Y      Z        X      Y      Z        X      Y      Z
   1   7    -0.06  -0.05  -0.07     0.02  -0.00   0.05    -0.01  -0.05   0.08
   2   6     0.08   0.14   0.07    -0.06  -0.01  -0.08     0.02   0.09  -0.15
   3   6    -0.03  -0.17  -0.08     0.03   0.02   0.08    -0.07  -0.08   0.27
   4   6    -0.18   0.30   0.06     0.12  -0.08  -0.07     0.12   0.22  -0.29
   5   6     0.12  -0.06   0.17    -0.12   0.01  -0.00    -0.09  -0.09   0.27
   6   6    -0.07  -0.12  -0.07     0.09   0.08  -0.01     0.11  -0.01  -0.26
   7   6    -0.00   0.14  -0.08    -0.01  -0.09   0.06    -0.14   0.04   0.20
   8   6     0.02  -0.05   0.21    -0.03   0.03  -0.09     0.19  -0.00  -0.12
   9   6     0.08  -0.12  -0.28    -0.03   0.04   0.07    -0.14  -0.10   0.07
  10   1     0.00   0.05   0.04     0.00  -0.03  -0.04     0.02  -0.01  -0.05
  11   1     0.03  -0.06  -0.03    -0.01   0.01  -0.01     0.00  -0.02  -0.05
  12   1     0.03  -0.03  -0.02    -0.02   0.04   0.02    -0.01   0.09   0.06
  13   1    -0.07   0.05   0.03     0.01  -0.05  -0.04    -0.09  -0.08  -0.07
  14   1     0.06  -0.00   0.06    -0.02   0.01   0.02     0.03   0.01   0.08
  15   1     0.18  -0.07   0.05    -0.11   0.02  -0.01    -0.07  -0.01   0.02
  16   1    -0.09   0.11  -0.03     0.04  -0.07   0.03    -0.02  -0.06   0.08
  17   1    -0.06  -0.06   0.04     0.18  -0.29  -0.02     0.13   0.20  -0.14
  18   1    -0.05   0.04  -0.01    -0.05   0.05  -0.01     0.00   0.16   0.10
  19   1     0.04  -0.02   0.01    -0.30   0.07  -0.25     0.10  -0.06  -0.08
  20   1     0.12   0.19   0.13     0.18   0.28   0.24    -0.00  -0.02   0.12
  21   1    -0.13  -0.22  -0.14    -0.02   0.04  -0.03    -0.14   0.02  -0.18
  22   1     0.08  -0.05   0.03    -0.02  -0.07  -0.01    -0.14  -0.06  -0.06
  23   1    -0.00  -0.12   0.02     0.15  -0.34   0.01     0.09   0.10  -0.05
  24   1    -0.21   0.05  -0.23    -0.30   0.09  -0.18     0.02   0.00   0.09
  25   1     0.25   0.02   0.24    -0.01  -0.04  -0.03     0.09  -0.14  -0.02
  26   1    -0.02   0.19  -0.04     0.03  -0.02   0.04     0.06  -0.03   0.08
  27   1    -0.03  -0.08   0.08     0.17   0.28   0.15    -0.09  -0.14  -0.20
                     34                     35                     36
                        a                      a                      a 
 Frequencies --  1199.7424              1238.4956              1241.4794
 Red. masses --     3.5089                 3.4189                 3.3432
 Frc consts  --     0.0000                 0.0000                 0.0000
 IR Inten    --     2.1760                 0.7676                 4.4336
 Raman Activ --     0.0000                 0.0000                 0.0000
 Depolar     --     0.0000                 0.0000                 0.0000
 Atom AN      X      Y      Z        X      Y      Z        X      Y      Z
   1   7     0.03  -0.02   0.16    -0.00   0.00   0.04    -0.05  -0.07   0.05
   2   6    -0.09  -0.02  -0.23    -0.02  -0.01  -0.05     0.03   0.09  -0.02
   3   6     0.01   0.02   0.10    -0.01   0.01  -0.06    -0.01  -0.01   0.02
   4   6    -0.08   0.06   0.14    -0.03   0.02   0.18     0.06   0.13  -0.07
   5   6     0.08  -0.00   0.01     0.03  -0.03  -0.11    -0.03  -0.10   0.02
   6   6    -0.11  -0.04   0.05     0.12   0.06  -0.06     0.07   0.14  -0.09
   7   6     0.11   0.07  -0.12    -0.26  -0.09   0.18     0.05  -0.12  -0.05
   8   6    -0.08  -0.06   0.12     0.11   0.03   0.00    -0.16   0.10   0.21
   9   6     0.06   0.00  -0.11     0.02   0.01  -0.15     0.01  -0.13  -0.08
  10   1     0.02  -0.05  -0.10     0.00  -0.02  -0.03     0.02   0.03  -0.02
  11   1    -0.02   0.02  -0.05     0.00  -0.01  -0.01     0.01  -0.04  -0.07
  12   1    -0.04   0.11   0.08     0.00   0.03   0.02     0.01   0.04   0.04
  13   1     0.04  -0.20  -0.14     0.04  -0.08  -0.04     0.11  -0.18  -0.08
  14   1    -0.05   0.03   0.02    -0.03   0.02   0.00    -0.09   0.15   0.12
  15   1    -0.36   0.05   0.02    -0.12   0.02   0.02     0.11  -0.02  -0.01
  16   1     0.58  -0.10  -0.14     0.24  -0.00  -0.09    -0.11   0.02   0.03
  17   1     0.15   0.18  -0.06    -0.05   0.02   0.06     0.15  -0.15  -0.03
  18   1    -0.08   0.01  -0.07     0.11  -0.05   0.04     0.03   0.03   0.04
  19   1     0.01   0.00   0.04     0.02  -0.01   0.02    -0.02  -0.02  -0.09
  20   1     0.05   0.11   0.04    -0.17  -0.28  -0.13    -0.06  -0.08  -0.08
  21   1    -0.04  -0.17  -0.04     0.15   0.35   0.16    -0.01   0.05  -0.04
  22   1     0.09   0.03   0.03    -0.13  -0.11  -0.03     0.17  -0.38   0.04
  23   1    -0.04  -0.02   0.02     0.01   0.05  -0.02    -0.17   0.38  -0.01
  24   1     0.07  -0.04  -0.01    -0.30   0.10  -0.17     0.07  -0.01   0.06
  25   1    -0.04   0.10   0.03     0.35  -0.14   0.23    -0.06   0.10   0.05
  26   1    -0.08  -0.03  -0.11     0.02   0.09  -0.01    -0.16  -0.19  -0.18
  27   1    -0.05  -0.08   0.01     0.02   0.03   0.04     0.15   0.21   0.22
                     37                     38                     39
                        a                      a                      a 
 Frequencies --  1246.5759              1256.8785              1289.7130
 Red. masses --     3.1483                 3.3508                 3.7368
 Frc consts  --     0.0000                 0.0000                 0.0000
 IR Inten    --     5.5198                 4.2288                 0.6848
 Raman Activ --     0.0000                 0.0000                 0.0000
 Depolar     --     0.0000                 0.0000                 0.0000
 Atom AN      X      Y      Z        X      Y      Z        X      Y      Z
   1   7     0.07   0.10  -0.07    -0.08  -0.11   0.09    -0.04  -0.05  -0.01
   2   6    -0.04  -0.12   0.02     0.03   0.13  -0.03     0.03  -0.07   0.03
   3   6     0.01   0.00  -0.02     0.04   0.02  -0.15     0.20   0.06  -0.14
   4   6    -0.18  -0.02   0.09    -0.24  -0.02   0.12     0.14  -0.28   0.01
   5   6     0.07  -0.03   0.13     0.10   0.01   0.02    -0.14   0.09   0.09
   6   6     0.04   0.07  -0.23    -0.04  -0.01  -0.08     0.10  -0.01  -0.06
   7   6     0.05  -0.04   0.07     0.03   0.01   0.06    -0.00   0.03  -0.01
   8   6    -0.10   0.02  -0.01     0.01  -0.00  -0.15    -0.06  -0.05   0.05
   9   6     0.10   0.01   0.02     0.06   0.02   0.12     0.03   0.14  -0.05
  10   1    -0.02  -0.03   0.03     0.03   0.05  -0.04     0.00   0.03   0.03
  11   1    -0.02   0.07   0.09     0.01  -0.07  -0.11    -0.00  -0.02  -0.00
  12   1    -0.01  -0.07  -0.05     0.02   0.09   0.07     0.00   0.04   0.02
  13   1    -0.16   0.27   0.11     0.23  -0.35  -0.15     0.06  -0.06  -0.01
  14   1     0.16  -0.23  -0.15    -0.20   0.28   0.15    -0.21   0.24   0.05
  15   1    -0.14   0.02   0.02     0.20  -0.02  -0.06    -0.25   0.05   0.06
  16   1     0.17  -0.03  -0.05     0.02   0.06  -0.05    -0.20   0.03   0.04
  17   1    -0.10  -0.08   0.06    -0.10  -0.22   0.09    -0.38   0.40   0.06
  18   1     0.29  -0.05   0.23     0.16  -0.08   0.10     0.19   0.01   0.19
  19   1    -0.30   0.08  -0.24    -0.19   0.06  -0.10    -0.03   0.02  -0.01
  20   1     0.03   0.07   0.06     0.04   0.07   0.03     0.05   0.06   0.09
  21   1    -0.06   0.03  -0.10     0.01   0.03   0.00    -0.13  -0.11  -0.15
  22   1     0.06  -0.26  -0.00    -0.04   0.03  -0.02     0.02  -0.05   0.00
  23   1    -0.03   0.23  -0.02     0.05   0.01  -0.01     0.02  -0.04   0.00
  24   1     0.11  -0.03   0.08     0.10  -0.03   0.09    -0.05  -0.00  -0.08
  25   1    -0.02   0.03   0.00    -0.06  -0.03  -0.09     0.10   0.02   0.10
  26   1     0.02   0.09   0.03     0.14   0.21   0.17    -0.09  -0.13  -0.13
  27   1    -0.06  -0.12  -0.01    -0.12  -0.20  -0.12     0.01   0.04   0.01
                     40                     41                     42
                        a                      a                      a 
 Frequencies --  1323.3625              1333.8335              1343.8941
 Red. masses --     3.8798                 3.7925                 3.9793
 Frc consts  --     0.0000                 0.0000                 0.0000
 IR Inten    --    15.2363                 0.9248                16.0131
 Raman Activ --     0.0000                 0.0000                 0.0000
 Depolar     --     0.0000                 0.0000                 0.0000
 Atom AN      X      Y      Z        X      Y      Z        X      Y      Z
   1   7     0.04   0.09   0.10     0.00  -0.02  -0.02    -0.03  -0.10  -0.11
   2   6    -0.14   0.20   0.03     0.02  -0.03   0.01     0.12  -0.10  -0.03
   3   6    -0.16   0.02   0.05     0.04  -0.01  -0.02     0.06   0.06   0.09
   4   6    -0.02  -0.25   0.04    -0.00   0.10  -0.04    -0.20  -0.12   0.04
   5   6    -0.16   0.10  -0.09    -0.07   0.04  -0.06     0.04   0.07  -0.05
   6   6     0.04  -0.05  -0.04    -0.09  -0.13  -0.11    -0.13  -0.19  -0.12
   7   6     0.01  -0.01   0.01     0.04  -0.18  -0.01     0.04   0.02   0.10
   8   6    -0.05  -0.04   0.01     0.24  -0.08   0.19    -0.18   0.01  -0.10
   9   6     0.07   0.16   0.01     0.05   0.19   0.13     0.10   0.06  -0.01
  10   1    -0.02  -0.10  -0.11     0.01   0.04   0.03     0.01   0.10   0.13
  11   1     0.05  -0.03  -0.08    -0.02   0.02   0.00    -0.05   0.04   0.12
  12   1    -0.01  -0.10  -0.02    -0.01   0.01   0.00     0.00   0.14   0.04
  13   1     0.17  -0.20  -0.08    -0.02   0.03   0.01    -0.15   0.19   0.07
  14   1     0.26  -0.29  -0.09    -0.04   0.04  -0.01    -0.17   0.21   0.10
  15   1     0.43  -0.05  -0.12    -0.11   0.01   0.04     0.09   0.01  -0.07
  16   1     0.04  -0.02  -0.01    -0.02   0.00   0.00    -0.09  -0.03   0.07
  17   1     0.15   0.18  -0.10    -0.02  -0.21   0.04     0.40   0.12  -0.18
  18   1     0.23  -0.09   0.17     0.06  -0.01   0.04    -0.00  -0.05  -0.03
  19   1     0.06  -0.00   0.05     0.14  -0.03   0.12     0.01   0.02   0.06
  20   1     0.07   0.09   0.10     0.12   0.19   0.11     0.11   0.18   0.12
  21   1    -0.04  -0.02  -0.04     0.08   0.14   0.09     0.15   0.22   0.17
  22   1    -0.01   0.01  -0.00    -0.03   0.09  -0.00    -0.02  -0.02  -0.01
  23   1     0.01  -0.00  -0.00    -0.14   0.32  -0.02     0.06   0.04  -0.01
  24   1    -0.05   0.00  -0.06    -0.34   0.09  -0.24     0.13  -0.04   0.07
  25   1     0.09   0.00   0.08    -0.23   0.07  -0.15     0.22  -0.04   0.17
  26   1    -0.11  -0.13  -0.13    -0.10  -0.18  -0.11    -0.07  -0.07  -0.09
  27   1    -0.03  -0.04  -0.04    -0.14  -0.20  -0.18    -0.02  -0.05   0.02
                     43                     44                     45
                        a                      a                      a 
 Frequencies --  1345.0338              1349.0523              1352.5970
 Red. masses --     4.4355                 4.3528                 4.5513
 Frc consts  --     0.0000                 0.0000                 0.0000
 IR Inten    --    18.6828                 2.1210                29.4665
 Raman Activ --     0.0000                 0.0000                 0.0000
 Depolar     --     0.0000                 0.0000                 0.0000
 Atom AN      X      Y      Z        X      Y      Z        X      Y      Z
   1   7    -0.00  -0.02  -0.03     0.02   0.02   0.03    -0.01  -0.07  -0.05
   2   6     0.02  -0.01  -0.00    -0.05   0.05   0.03     0.08  -0.05  -0.03
   3   6     0.05   0.01   0.03     0.05   0.02  -0.01    -0.13   0.01   0.03
   4   6    -0.16   0.01  -0.07    -0.07  -0.18  -0.02     0.08   0.08   0.02
   5   6     0.13  -0.10   0.05     0.25   0.02   0.16    -0.21   0.05  -0.15
   6   6     0.12   0.24   0.17    -0.06  -0.12  -0.10     0.13  -0.07   0.01
   7   6    -0.06   0.02  -0.03    -0.10   0.24  -0.01    -0.14   0.37  -0.05
   8   6    -0.03  -0.07  -0.01     0.16  -0.12   0.15     0.03  -0.11   0.04
   9   6     0.19   0.26   0.17    -0.04   0.06  -0.04    -0.01   0.05   0.06
  10   1     0.00   0.02   0.04    -0.00  -0.02  -0.02     0.03   0.10   0.05
  11   1    -0.01   0.01   0.03     0.01  -0.01  -0.05    -0.06   0.05   0.06
  12   1    -0.00   0.04   0.01    -0.02  -0.05  -0.01     0.02   0.08   0.03
  13   1    -0.04   0.03   0.01     0.06  -0.07  -0.02    -0.09   0.09   0.03
  14   1    -0.03   0.04   0.00     0.05  -0.06  -0.03    -0.06   0.08   0.05
  15   1     0.02   0.00  -0.02     0.06  -0.00   0.02     0.08  -0.01  -0.04
  16   1    -0.07  -0.01   0.04    -0.13  -0.03   0.05     0.18  -0.00  -0.06
  17   1     0.15  -0.14  -0.06    -0.01   0.30  -0.08    -0.02  -0.20   0.06
  18   1    -0.08  -0.01  -0.08    -0.25   0.03  -0.20     0.21  -0.07   0.15
  19   1    -0.19   0.03  -0.19    -0.21   0.07  -0.12     0.23  -0.07   0.14
  20   1    -0.17  -0.26  -0.20    -0.02  -0.03  -0.04    -0.03  -0.10   0.05
  21   1    -0.11  -0.19  -0.12     0.13   0.24   0.14    -0.01   0.02  -0.01
  22   1    -0.03   0.02  -0.01     0.12  -0.39   0.01     0.16  -0.42   0.03
  23   1     0.01  -0.17   0.02     0.01  -0.08   0.01     0.10  -0.33   0.02
  24   1    -0.07  -0.00  -0.12    -0.09   0.01  -0.10     0.06  -0.04  -0.00
  25   1     0.10  -0.03   0.07    -0.23   0.09  -0.15    -0.14   0.06  -0.09
  26   1    -0.19  -0.27  -0.22     0.02   0.05   0.02     0.00  -0.07   0.00
  27   1    -0.16  -0.26  -0.16    -0.04  -0.03  -0.08    -0.04  -0.06  -0.03
                     46                     47                     48
                        a                      a                      a 
 Frequencies --  1357.0360              1365.2991              1374.7005
 Red. masses --     4.1764                 4.3628                 3.0128
 Frc consts  --     0.0000                 0.0000                 0.0000
 IR Inten    --    21.7782                40.0628               219.8329
 Raman Activ --     0.0000                 0.0000                 0.0000
 Depolar     --     0.0000                 0.0000                 0.0000
 Atom AN      X      Y      Z        X      Y      Z        X      Y      Z
   1   7     0.02   0.11   0.09     0.09  -0.04  -0.03    -0.15   0.23   0.16
   2   6    -0.11   0.06   0.06    -0.12   0.05   0.06     0.12  -0.12  -0.02
   3   6     0.17  -0.06  -0.10     0.31  -0.02  -0.07     0.07   0.04   0.03
   4   6     0.02   0.21  -0.10    -0.26   0.04   0.14    -0.11  -0.01   0.06
   5   6     0.01   0.00  -0.01    -0.11  -0.02  -0.14    -0.05   0.00  -0.06
   6   6    -0.07  -0.15  -0.07     0.09   0.06   0.07     0.04   0.03   0.02
   7   6    -0.00   0.15   0.07    -0.04   0.02  -0.05    -0.02   0.01  -0.02
   8   6    -0.20  -0.00  -0.13     0.10   0.00   0.06     0.05  -0.02   0.03
   9   6     0.12   0.04   0.12    -0.05  -0.08  -0.10    -0.01  -0.02  -0.02
  10   1    -0.04  -0.14  -0.11    -0.01   0.02   0.15    -0.05  -0.24  -0.41
  11   1     0.08  -0.07  -0.11    -0.06   0.07  -0.01     0.24  -0.26  -0.17
  12   1    -0.02  -0.15  -0.05    -0.17   0.06   0.01     0.27  -0.37  -0.12
  13   1     0.13  -0.16  -0.05     0.12  -0.10  -0.03    -0.18   0.16   0.06
  14   1     0.10  -0.14  -0.10     0.07  -0.11  -0.06    -0.18   0.21   0.05
  15   1    -0.32   0.03   0.15    -0.28   0.04   0.12    -0.03   0.02   0.00
  16   1    -0.20   0.02   0.04    -0.31   0.01   0.11    -0.04  -0.02   0.04
  17   1    -0.11  -0.25   0.08     0.42   0.04  -0.15     0.21   0.02  -0.08
  18   1    -0.07   0.04  -0.06     0.20  -0.05   0.13     0.09  -0.03   0.06
  19   1     0.11  -0.03   0.09     0.08  -0.03   0.07     0.03  -0.01   0.02
  20   1     0.06   0.08   0.07    -0.03  -0.07  -0.05    -0.01  -0.03  -0.01
  21   1     0.11   0.16   0.13    -0.07  -0.08  -0.07    -0.02  -0.03  -0.03
  22   1     0.02  -0.12  -0.00     0.03  -0.02   0.01     0.01  -0.02   0.00
  23   1     0.10  -0.12   0.00    -0.01  -0.04   0.00    -0.01  -0.02   0.00
  24   1     0.20  -0.07   0.10    -0.03   0.01  -0.04    -0.04   0.01  -0.01
  25   1     0.18  -0.05   0.13    -0.11   0.01  -0.09    -0.06   0.02  -0.05
  26   1    -0.10  -0.16  -0.11     0.10   0.18   0.11     0.01   0.08   0.03
  27   1    -0.04  -0.10  -0.01    -0.00  -0.00   0.02    -0.00  -0.01  -0.03
                     49                     50                     51
                        a                      a                      a 
 Frequencies --  1395.1151              1409.4887              1483.9148
 Red. masses --     1.6355                 1.6562                 1.8468
 Frc consts  --     0.0000                 0.0000                 0.0000
 IR Inten    --   105.1197                96.5924                14.2297
 Raman Activ --     0.0000                 0.0000                 0.0000
 Depolar     --     0.0000                 0.0000                 0.0000
 Atom AN      X      Y      Z        X      Y      Z        X      Y      Z
   1   7     0.11   0.14  -0.07    -0.11   0.03  -0.16     0.01   0.01   0.01
   2   6     0.08  -0.02  -0.04    -0.08   0.06  -0.01     0.17   0.06   0.20
   3   6    -0.06   0.01   0.03     0.03  -0.00  -0.04     0.00  -0.02   0.04
   4   6     0.02  -0.01   0.00    -0.01   0.01   0.00    -0.00  -0.01   0.00
   5   6    -0.01   0.00  -0.00    -0.00  -0.00  -0.00    -0.00   0.01   0.00
   6   6     0.00  -0.00  -0.00     0.00  -0.00  -0.00     0.00  -0.00   0.01
   7   6    -0.00   0.01  -0.00    -0.00   0.00  -0.01    -0.00  -0.01  -0.00
   8   6     0.01  -0.01   0.00     0.02  -0.00   0.02     0.00  -0.01  -0.01
   9   6     0.00  -0.00   0.02    -0.00  -0.00  -0.01    -0.01   0.02  -0.03
  10   1    -0.31  -0.41   0.44    -0.15  -0.27  -0.02     0.00   0.01   0.01
  11   1     0.29  -0.28  -0.15     0.28  -0.25   0.60    -0.00   0.01   0.03
  12   1    -0.52   0.06  -0.02     0.38   0.39   0.14     0.01   0.03   0.02
  13   1    -0.06   0.03   0.00     0.07  -0.08  -0.04    -0.51  -0.40  -0.12
  14   1    -0.07   0.10   0.06     0.06  -0.07  -0.02    -0.12   0.09  -0.64
  15   1     0.06  -0.00  -0.05    -0.01  -0.00   0.08    -0.00   0.00  -0.12
  16   1     0.07   0.01  -0.03    -0.03  -0.05   0.02    -0.01   0.12  -0.02
  17   1    -0.02  -0.01   0.01     0.00  -0.01   0.00     0.02  -0.00  -0.00
  18   1     0.00  -0.01   0.00     0.00   0.00   0.00    -0.00  -0.02  -0.01
  19   1     0.00  -0.00  -0.00     0.01  -0.00   0.01     0.01  -0.00  -0.02
  20   1    -0.00  -0.00   0.01    -0.00  -0.00   0.00     0.01   0.01  -0.02
  21   1     0.00  -0.00  -0.00     0.00   0.00   0.00    -0.01   0.02  -0.00
  22   1     0.00  -0.01  -0.00     0.01  -0.01   0.00     0.01   0.00   0.01
  23   1    -0.00  -0.00   0.00    -0.01   0.00  -0.00     0.01   0.01  -0.01
  24   1    -0.01   0.00   0.00    -0.01   0.00  -0.01    -0.03   0.01   0.04
  25   1    -0.02   0.01  -0.01    -0.04   0.01  -0.03     0.00   0.05   0.01
  26   1    -0.02   0.01  -0.01     0.02  -0.01   0.01     0.06  -0.05   0.03
  27   1     0.01   0.01  -0.02    -0.01  -0.01   0.01    -0.02  -0.01   0.09
                     52                     53                     54
                        a                      a                      a 
 Frequencies --  1486.7428              1502.5360              1507.0349
 Red. masses --     1.8652                 1.8936                 1.9327
 Frc consts  --     0.0000                 0.0000                 0.0000
 IR Inten    --     3.4023                 1.2336                 0.5302
 Raman Activ --     0.0000                 0.0000                 0.0000
 Depolar     --     0.0000                 0.0000                 0.0000
 Atom AN      X      Y      Z        X      Y      Z        X      Y      Z
   1   7    -0.01   0.01  -0.01    -0.00  -0.01  -0.00    -0.00   0.01   0.00
   2   6    -0.04  -0.02  -0.01     0.02   0.01   0.02    -0.00  -0.00  -0.01
   3   6     0.06  -0.17   0.18     0.00  -0.02   0.03    -0.01  -0.01   0.02
   4   6    -0.00  -0.01  -0.00     0.00  -0.03   0.00    -0.00  -0.01  -0.02
   5   6     0.00  -0.01  -0.00     0.04  -0.12  -0.12     0.05  -0.10  -0.07
   6   6     0.01  -0.02   0.02    -0.01   0.03  -0.05    -0.00  -0.01   0.02
   7   6     0.00   0.01  -0.00    -0.00   0.02  -0.00    -0.20  -0.07  -0.02
   8   6     0.03  -0.07  -0.06    -0.03   0.06   0.07    -0.01   0.02   0.02
   9   6     0.01  -0.01   0.01     0.05  -0.11   0.14    -0.03   0.10  -0.08
  10   1    -0.00  -0.02  -0.02     0.00   0.01   0.00    -0.01  -0.01  -0.00
  11   1     0.02  -0.02   0.04    -0.01   0.01   0.04     0.02  -0.02  -0.02
  12   1     0.05   0.01   0.01     0.02   0.02   0.01    -0.00  -0.01  -0.01
  13   1     0.12   0.06   0.02    -0.06  -0.05  -0.01     0.03   0.03   0.01
  14   1     0.05  -0.05   0.10    -0.01   0.01  -0.08     0.01  -0.00   0.04
  15   1    -0.20   0.04  -0.58     0.00   0.00  -0.08     0.01  -0.00  -0.05
  16   1    -0.05   0.61  -0.11    -0.00   0.08  -0.02     0.01   0.04  -0.01
  17   1     0.01   0.01  -0.01     0.00  -0.00  -0.00     0.00   0.00  -0.01
  18   1    -0.00   0.02   0.00     0.05   0.40   0.09     0.02   0.30   0.05
  19   1    -0.02   0.00   0.01    -0.24   0.08   0.34    -0.19   0.06   0.24
  20   1     0.03   0.03  -0.07    -0.06  -0.07   0.14     0.01   0.01  -0.06
  21   1    -0.04   0.07  -0.01     0.11  -0.10   0.05    -0.04   0.03  -0.02
  22   1    -0.01  -0.02  -0.02     0.00  -0.02  -0.00     0.34   0.14   0.33
  23   1    -0.02  -0.01   0.01    -0.00  -0.01   0.00     0.41   0.13  -0.27
  24   1    -0.12   0.03   0.18     0.13  -0.04  -0.19     0.04  -0.01  -0.08
  25   1     0.01   0.21   0.04    -0.03  -0.22  -0.05    -0.02  -0.08  -0.03
  26   1    -0.02   0.02  -0.01    -0.31   0.28  -0.14     0.21  -0.21   0.09
  27   1     0.01   0.01  -0.03     0.16   0.17  -0.37    -0.12  -0.13   0.25
                     55                     56                     57
                        a                      a                      a 
 Frequencies --  1510.8896              1514.2548              1523.3454
 Red. masses --     1.9100                 1.9396                 2.0002
 Frc consts  --     0.0000                 0.0000                 0.0000
 IR Inten    --     0.0248                 0.9670                 0.2189
 Raman Activ --     0.0000                 0.0000                 0.0000
 Depolar     --     0.0000                 0.0000                 0.0000
 Atom AN      X      Y      Z        X      Y      Z        X      Y      Z
   1   7    -0.01   0.00  -0.00    -0.00   0.01   0.00     0.00  -0.01  -0.00
   2   6    -0.00  -0.01   0.00    -0.01  -0.00  -0.00    -0.00   0.00   0.01
   3   6     0.02  -0.04   0.05     0.01  -0.03   0.04     0.01   0.01  -0.02
   4   6     0.00  -0.01   0.01     0.00  -0.01  -0.01    -0.00   0.00   0.00
   5   6    -0.04   0.12   0.10     0.01  -0.01  -0.01    -0.02   0.07   0.06
   6   6    -0.01  -0.02   0.01    -0.04   0.13  -0.16    -0.04   0.13  -0.13
   7   6    -0.06  -0.02   0.00     0.09   0.03   0.00    -0.15  -0.05  -0.02
   8   6    -0.06   0.14   0.14    -0.01   0.06   0.06     0.03  -0.09  -0.07
   9   6     0.00  -0.02   0.02    -0.04   0.09  -0.11     0.02  -0.05   0.06
  10   1    -0.00  -0.01  -0.01    -0.01  -0.01  -0.00     0.00   0.01   0.00
  11   1     0.01  -0.01   0.01     0.02  -0.02  -0.02    -0.01   0.01   0.01
  12   1     0.02   0.00   0.00    -0.00  -0.01  -0.00    -0.00   0.01   0.00
  13   1     0.01  -0.00   0.00     0.03   0.02   0.01    -0.00  -0.01  -0.00
  14   1     0.00  -0.00  -0.00     0.01  -0.01   0.03     0.00  -0.00  -0.01
  15   1    -0.07   0.01  -0.16    -0.03   0.01  -0.12    -0.01   0.00   0.03
  16   1     0.01   0.18  -0.04    -0.03   0.13  -0.02    -0.03  -0.02   0.01
  17   1    -0.01   0.01   0.01     0.00   0.02  -0.01    -0.00  -0.00   0.00
  18   1    -0.05  -0.36  -0.08    -0.00   0.05   0.00    -0.03  -0.21  -0.05
  19   1     0.21  -0.07  -0.31    -0.04   0.02   0.04     0.11  -0.03  -0.18
  20   1     0.02   0.03  -0.04    -0.16  -0.18   0.42    -0.16  -0.16   0.36
  21   1    -0.03   0.05  -0.01     0.34  -0.31   0.15     0.30  -0.28   0.13
  22   1     0.12   0.05   0.12    -0.16  -0.06  -0.16     0.24   0.10   0.23
  23   1     0.14   0.06  -0.09    -0.20  -0.04   0.12     0.27   0.09  -0.19
  24   1     0.27  -0.08  -0.41     0.09  -0.02  -0.15    -0.15   0.04   0.21
  25   1    -0.07  -0.47  -0.12    -0.03  -0.17  -0.05     0.03   0.25   0.06
  26   1    -0.05   0.06  -0.02     0.23  -0.22   0.11    -0.13   0.12  -0.06
  27   1     0.03   0.04  -0.06    -0.12  -0.12   0.28     0.07   0.07  -0.16
                     58                     59                     60
                        a                      a                      a 
 Frequencies --  2848.1341              2903.2671              2903.6154
 Red. masses --     1.7540                 1.9165                 1.9175
 Frc consts  --     0.0000                 0.0000                 0.0000
 IR Inten    --    92.2887               102.9829                99.5538
 Raman Activ --     0.0000                 0.0000                 0.0000
 Depolar     --     0.0000                 0.0000                 0.0000
 Atom AN      X      Y      Z        X      Y      Z        X      Y      Z
   1   7    -0.00  -0.00   0.00    -0.00  -0.00   0.00     0.00   0.00   0.00
   2   6    -0.00  -0.00   0.00     0.00   0.00  -0.00    -0.00  -0.00   0.00
   3   6     0.00   0.01  -0.00     0.00   0.00   0.00    -0.00   0.00  -0.00
   4   6    -0.09  -0.05  -0.24    -0.00   0.00   0.00    -0.00   0.00  -0.00
   5   6    -0.01   0.00   0.00    -0.01  -0.00   0.02    -0.01  -0.02   0.01
   6   6    -0.00   0.00   0.00     0.22  -0.09  -0.07     0.00  -0.01   0.01
   7   6    -0.00  -0.00   0.00     0.00  -0.00   0.05    -0.02  -0.03  -0.27
   8   6    -0.00  -0.00   0.00    -0.06  -0.11   0.05    -0.05  -0.06   0.03
   9   6    -0.01  -0.01   0.00     0.01  -0.00  -0.01    -0.01   0.00   0.00
  10   1     0.00  -0.00   0.00    -0.00  -0.00   0.00    -0.00   0.00  -0.00
  11   1    -0.00   0.00  -0.00     0.00   0.00   0.00    -0.00  -0.00  -0.00
  12   1    -0.00   0.00  -0.00    -0.00  -0.00  -0.00     0.00  -0.00   0.00
  13   1     0.00   0.00  -0.01    -0.00  -0.00   0.00    -0.00   0.00  -0.01
  14   1     0.00   0.00   0.00    -0.00  -0.00  -0.00     0.00   0.00   0.00
  15   1    -0.00  -0.02   0.00     0.00   0.00   0.00     0.00  -0.00  -0.00
  16   1    -0.01  -0.00  -0.03    -0.00  -0.00  -0.01     0.00   0.00   0.01
  17   1     0.33   0.18   0.89     0.00  -0.00   0.00     0.00  -0.00   0.00
  18   1     0.02   0.01  -0.03     0.05   0.01  -0.07     0.02   0.00  -0.03
  19   1    -0.01  -0.02   0.00    -0.00  -0.01   0.00     0.01   0.05  -0.00
  20   1     0.01  -0.01  -0.00    -0.60   0.42  -0.06    -0.04   0.02  -0.00
  21   1     0.00   0.00  -0.00    -0.19  -0.09   0.30     0.04   0.01  -0.05
  22   1     0.00   0.00  -0.00     0.07   0.02  -0.07    -0.31  -0.09   0.32
  23   1    -0.00  -0.00  -0.00    -0.06  -0.03  -0.09     0.39   0.18   0.67
  24   1     0.00   0.01  -0.00     0.11   0.39  -0.00     0.05   0.20   0.00
  25   1     0.00   0.00  -0.00     0.11   0.01  -0.16     0.12   0.02  -0.15
  26   1     0.02   0.01  -0.03    -0.03  -0.01   0.04    -0.00  -0.00   0.01
  27   1    -0.01   0.01   0.00    -0.00   0.00  -0.00     0.03  -0.02   0.00
                     61                     62                     63
                        a                      a                      a 
 Frequencies --  2905.3809              2915.3257              2922.5916
 Red. masses --     1.8821                 1.9392                 1.9309
 Frc consts  --     0.0000                 0.0000                 0.0000
 IR Inten    --    47.4847                72.9538                79.8844
 Raman Activ --     0.0000                 0.0000                 0.0000
 Depolar     --     0.0000                 0.0000                 0.0000
 Atom AN      X      Y      Z        X      Y      Z        X      Y      Z
   1   7    -0.00   0.00  -0.00     0.00   0.00   0.00    -0.00  -0.00  -0.00
   2   6     0.00   0.00  -0.00     0.00   0.00  -0.00    -0.00  -0.00  -0.00
   3   6    -0.00  -0.00  -0.00    -0.00  -0.01  -0.00     0.00   0.01   0.00
   4   6     0.00   0.00  -0.00     0.00   0.01  -0.00     0.01  -0.00  -0.01
   5   6     0.01   0.02  -0.02     0.15   0.21  -0.12     0.02   0.04  -0.02
   6   6    -0.12   0.06   0.03     0.02  -0.02   0.01     0.00  -0.00   0.00
   7   6     0.03   0.01   0.06    -0.00  -0.00  -0.01    -0.01  -0.00  -0.01
   8   6    -0.11  -0.19   0.08     0.00   0.01  -0.00     0.00   0.02   0.01
   9   6     0.01  -0.00  -0.02    -0.05   0.01   0.02     0.25  -0.08  -0.10
  10   1     0.00  -0.00  -0.00    -0.00  -0.00  -0.00     0.00   0.00  -0.00
  11   1     0.00  -0.00   0.00    -0.00  -0.00  -0.00     0.00   0.01   0.00
  12   1     0.00  -0.00   0.00    -0.00   0.00  -0.00    -0.00   0.00  -0.00
  13   1     0.00  -0.00   0.00     0.00  -0.00   0.00    -0.00  -0.00   0.00
  14   1    -0.00  -0.00   0.00    -0.00  -0.00   0.00     0.00   0.00  -0.00
  15   1     0.00   0.00  -0.00     0.00   0.04   0.00    -0.00  -0.02  -0.00
  16   1     0.00   0.00   0.01    -0.00  -0.00   0.00    -0.00  -0.00  -0.01
  17   1    -0.00  -0.00  -0.01     0.00   0.00   0.01     0.00   0.00   0.01
  18   1    -0.05  -0.01   0.07    -0.32  -0.03   0.43    -0.05  -0.00   0.07
  19   1    -0.01  -0.05  -0.00    -0.20  -0.73   0.01    -0.04  -0.14   0.00
  20   1     0.35  -0.24   0.03    -0.10   0.07  -0.00    -0.03   0.02  -0.00
  21   1     0.09   0.05  -0.15     0.04   0.01  -0.05     0.01   0.00  -0.01
  22   1    -0.00   0.00   0.02    -0.01  -0.00   0.01     0.00   0.00  -0.01
  23   1    -0.12  -0.06  -0.22     0.03   0.01   0.05     0.02   0.01   0.04
  24   1     0.19   0.68  -0.01    -0.00  -0.02   0.00    -0.04  -0.11   0.01
  25   1     0.20   0.02  -0.27    -0.01  -0.00   0.01     0.05   0.02  -0.07
  26   1    -0.05  -0.02   0.07     0.06   0.03  -0.09    -0.31  -0.13   0.45
  27   1    -0.01   0.01  -0.00     0.11  -0.08   0.01    -0.60   0.43  -0.07
                     64                     65                     66
                        a                      a                      a 
 Frequencies --  2941.4507              2945.5140              2948.0843
 Red. masses --     1.8846                 1.5437                 1.5615
 Frc consts  --     0.0000                 0.0000                 0.0000
 IR Inten    --    24.3056               119.7395                40.5872
 Raman Activ --     0.0000                 0.0000                 0.0000
 Depolar     --     0.0000                 0.0000                 0.0000
 Atom AN      X      Y      Z        X      Y      Z        X      Y      Z
   1   7     0.00   0.00   0.00    -0.00   0.00  -0.00     0.00   0.00  -0.00
   2   6     0.06   0.06  -0.04    -0.00  -0.00  -0.00    -0.01  -0.01   0.01
   3   6    -0.05  -0.24  -0.09     0.00   0.01   0.00     0.00  -0.00   0.00
   4   6    -0.01  -0.01  -0.01    -0.00  -0.00  -0.00     0.00  -0.00  -0.00
   5   6    -0.01  -0.00   0.01     0.02  -0.03  -0.04     0.03  -0.01  -0.04
   6   6    -0.00  -0.00   0.01    -0.02   0.00   0.01     0.03   0.06  -0.12
   7   6    -0.01  -0.00   0.00    -0.19  -0.06   0.06     0.00   0.01   0.00
   8   6    -0.01   0.00   0.01    -0.02  -0.02   0.01    -0.08   0.06   0.13
   9   6     0.00  -0.00   0.00    -0.00   0.01  -0.01    -0.02  -0.00   0.03
  10   1     0.00  -0.00   0.00     0.00  -0.00   0.00     0.00  -0.00  -0.00
  11   1     0.00   0.00   0.00    -0.00  -0.00   0.00    -0.00  -0.00   0.00
  12   1    -0.00   0.00  -0.00     0.00   0.00   0.00    -0.00  -0.00   0.00
  13   1     0.01  -0.03   0.10     0.00  -0.00   0.00    -0.00   0.01  -0.02
  14   1    -0.24  -0.21   0.02     0.00   0.00  -0.00     0.03   0.02  -0.00
  15   1     0.11   0.83   0.03    -0.00  -0.02  -0.00     0.00   0.00   0.00
  16   1     0.09   0.04   0.30     0.00   0.00  -0.00    -0.00  -0.00  -0.00
  17   1     0.01   0.01   0.02     0.00   0.00   0.01     0.00   0.00   0.01
  18   1     0.04   0.01  -0.05    -0.12  -0.03   0.15    -0.11  -0.02   0.14
  19   1    -0.00   0.01   0.00     0.05   0.15  -0.01     0.02   0.06  -0.01
  20   1    -0.01   0.00   0.00     0.05  -0.03   0.00     0.22  -0.13  -0.00
  21   1     0.02   0.01  -0.02     0.02   0.01  -0.04    -0.33  -0.10   0.44
  22   1     0.02   0.01  -0.03     0.50   0.14  -0.63    -0.01   0.00   0.01
  23   1     0.00   0.00   0.01     0.18   0.09   0.40    -0.01  -0.00  -0.02
  24   1    -0.01  -0.02   0.00     0.02   0.08  -0.00    -0.11  -0.31   0.03
  25   1     0.03   0.01  -0.04     0.01   0.00  -0.02     0.39   0.10  -0.51
  26   1     0.01   0.00  -0.01    -0.04  -0.01   0.04     0.07   0.02  -0.09
  27   1    -0.02   0.02  -0.00     0.05  -0.04   0.00     0.02  -0.01   0.01
                     67                     68                     69
                        a                      a                      a 
 Frequencies --  2950.0575              2951.3485              2955.2662
 Red. masses --     1.5710                 1.5311                 1.9387
 Frc consts  --     0.0000                 0.0000                 0.0000
 IR Inten    --   236.4450                97.8746                16.0408
 Raman Activ --     0.0000                 0.0000                 0.0000
 Depolar     --     0.0000                 0.0000                 0.0000
 Atom AN      X      Y      Z        X      Y      Z        X      Y      Z
   1   7    -0.00  -0.00   0.00     0.00   0.00  -0.00    -0.00   0.00  -0.00
   2   6     0.02   0.02  -0.02    -0.02  -0.02   0.02     0.15   0.18  -0.13
   3   6     0.00  -0.01   0.01    -0.01   0.00  -0.02     0.03   0.09   0.05
   4   6     0.00  -0.00  -0.01    -0.00  -0.00  -0.00     0.00   0.00   0.01
   5   6     0.07  -0.09  -0.13     0.03  -0.08  -0.06    -0.00   0.01   0.01
   6   6     0.04   0.02  -0.07    -0.01  -0.08   0.13    -0.00  -0.01   0.01
   7   6     0.04   0.01  -0.03     0.02   0.01   0.03    -0.00  -0.00   0.00
   8   6     0.05  -0.03  -0.08    -0.05   0.03   0.08    -0.01   0.00   0.02
   9   6     0.02  -0.02   0.01    -0.01  -0.02   0.04    -0.00  -0.02   0.03
  10   1    -0.00  -0.00   0.00     0.00  -0.00   0.00    -0.00  -0.00   0.00
  11   1     0.00   0.00  -0.00    -0.00  -0.00   0.00     0.01   0.01  -0.00
  12   1    -0.00   0.00  -0.00    -0.00  -0.00   0.00    -0.00   0.00  -0.01
  13   1     0.00  -0.02   0.05    -0.00   0.02  -0.06     0.02  -0.14   0.44
  14   1    -0.07  -0.06   0.01     0.06   0.05  -0.00    -0.55  -0.48   0.05
  15   1     0.01   0.05   0.00    -0.00  -0.02  -0.00    -0.04  -0.28  -0.01
  16   1    -0.01  -0.01  -0.03     0.02   0.01   0.06    -0.06  -0.03  -0.18
  17   1     0.01   0.00   0.03     0.01   0.00   0.01    -0.01  -0.00  -0.01
  18   1    -0.39  -0.09   0.50    -0.20  -0.05   0.26     0.02   0.01  -0.03
  19   1     0.13   0.40  -0.04     0.10   0.32  -0.02    -0.01  -0.03   0.00
  20   1     0.04  -0.02  -0.01    -0.29   0.18  -0.00    -0.02   0.01   0.00
  21   1    -0.17  -0.06   0.23     0.35   0.11  -0.47     0.04   0.01  -0.05
  22   1    -0.12  -0.03   0.15    -0.03  -0.01   0.04     0.01   0.00  -0.02
  23   1    -0.01  -0.01  -0.03    -0.06  -0.03  -0.12     0.00   0.00   0.00
  24   1     0.06   0.18  -0.02    -0.06  -0.18   0.02    -0.01  -0.03   0.00
  25   1    -0.24  -0.06   0.31     0.23   0.06  -0.30     0.06   0.02  -0.08
  26   1     0.03   0.01  -0.04     0.11   0.03  -0.14     0.09   0.03  -0.12
  27   1    -0.11   0.07  -0.01    -0.06   0.04   0.00    -0.08   0.05  -0.00
                     70                     71                     72
                        a                      a                      a 
 Frequencies --  2956.7290              2981.2858              2988.4090
 Red. masses --     1.5252                 1.5344                 1.6052
 Frc consts  --     0.0000                 0.0000                 0.0000
 IR Inten    --    86.1058                21.9931                36.0618
 Raman Activ --     0.0000                 0.0000                 0.0000
 Depolar     --     0.0000                 0.0000                 0.0000
 Atom AN      X      Y      Z        X      Y      Z        X      Y      Z
   1   7    -0.00  -0.00  -0.00    -0.00  -0.00  -0.00     0.00  -0.00   0.00
   2   6    -0.03  -0.03   0.03    -0.07  -0.02  -0.11    -0.07   0.00  -0.17
   3   6    -0.00  -0.01  -0.01     0.04  -0.05   0.16    -0.04   0.02  -0.14
   4   6     0.00  -0.00   0.01     0.00  -0.00   0.01    -0.00  -0.00  -0.01
   5   6    -0.02   0.02   0.03    -0.00  -0.00   0.00     0.00   0.00  -0.00
   6   6    -0.01   0.01  -0.01    -0.00  -0.00   0.01     0.00   0.00  -0.01
   7   6    -0.03  -0.01   0.00    -0.00  -0.00   0.00     0.00   0.00  -0.00
   8   6     0.00  -0.03  -0.01    -0.00   0.00   0.01     0.00  -0.00  -0.00
   9   6     0.01  -0.12   0.16    -0.00  -0.00   0.00     0.00  -0.00   0.00
  10   1    -0.00   0.00  -0.00     0.01  -0.00   0.00    -0.00   0.00  -0.00
  11   1     0.00   0.00   0.00    -0.01  -0.01   0.00    -0.01  -0.01   0.00
  12   1     0.00  -0.00   0.00     0.00   0.00  -0.01     0.00   0.01  -0.02
  13   1    -0.00   0.03  -0.09    -0.01  -0.17   0.45    -0.01  -0.24   0.63
  14   1     0.10   0.09  -0.01     0.27   0.25  -0.04     0.25   0.24  -0.05
  15   1     0.00   0.02   0.00     0.05   0.33   0.04    -0.03  -0.18  -0.03
  16   1     0.01   0.01   0.03    -0.20  -0.16  -0.63     0.17   0.13   0.53
  17   1    -0.01  -0.01  -0.04    -0.01  -0.00  -0.01     0.01   0.00   0.02
  18   1     0.09   0.02  -0.11     0.01   0.00  -0.01    -0.00  -0.00   0.01
  19   1    -0.03  -0.10   0.01     0.00   0.02   0.00    -0.00  -0.00  -0.00
  20   1     0.05  -0.03   0.00    -0.01   0.01   0.00     0.00  -0.00  -0.00
  21   1    -0.03  -0.01   0.04     0.03   0.01  -0.04    -0.02  -0.00   0.02
  22   1     0.06   0.02  -0.08     0.00   0.00  -0.00    -0.00  -0.00   0.00
  23   1     0.03   0.01   0.06    -0.00  -0.00  -0.00     0.00   0.00   0.00
  24   1     0.04   0.12  -0.00    -0.00  -0.01   0.00     0.00   0.00  -0.00
  25   1    -0.03  -0.01   0.05     0.02   0.00  -0.02    -0.01  -0.00   0.02
  26   1     0.44   0.13  -0.56     0.01   0.00  -0.01     0.00   0.00  -0.00
  27   1    -0.48   0.32  -0.02    -0.01   0.00   0.00    -0.00   0.00  -0.00
                     73                     74                     75
                        a                      a                      a 
 Frequencies --  3256.7596              3262.7568              3285.4770
 Red. masses --     2.0402                 2.0344                 1.3028
 Frc consts  --     0.0000                 0.0000                 0.0000
 IR Inten    --   175.6488               183.4148                58.1095
 Raman Activ --     0.0000                 0.0000                 0.0000
 Depolar     --     0.0000                 0.0000                 0.0000
 Atom AN      X      Y      Z        X      Y      Z        X      Y      Z
   1   7    -0.20  -0.17   0.12    -0.19   0.09  -0.19     0.07  -0.10  -0.08
   2   6    -0.00  -0.01   0.00    -0.00  -0.00  -0.01    -0.00  -0.01  -0.01
   3   6    -0.00  -0.00  -0.00     0.00  -0.00  -0.00    -0.00  -0.00   0.00
   4   6     0.00  -0.00   0.00     0.00   0.00  -0.00    -0.00  -0.00  -0.00
   5   6    -0.00   0.00   0.00     0.00   0.00  -0.00    -0.00  -0.00  -0.00
   6   6    -0.00   0.00  -0.00     0.00  -0.00  -0.00     0.00  -0.00   0.00
   7   6     0.00  -0.00  -0.00    -0.00  -0.00  -0.00     0.00  -0.00  -0.00
   8   6    -0.00   0.00   0.00     0.00  -0.00  -0.00    -0.00   0.00   0.00
   9   6    -0.00   0.00  -0.00    -0.00   0.00  -0.00    -0.00   0.00  -0.00
  10   1     0.14  -0.09   0.05     0.58  -0.29   0.14    -0.60   0.29  -0.16
  11   1     0.59   0.57  -0.04     0.15   0.17  -0.03     0.34   0.31  -0.03
  12   1    -0.00   0.15  -0.44    -0.04  -0.23   0.61    -0.02  -0.20   0.51
  13   1     0.00   0.00  -0.01     0.00  -0.00   0.01    -0.00  -0.00   0.01
  14   1     0.01   0.01  -0.00     0.01   0.00  -0.00     0.01   0.01  -0.00
  15   1     0.00   0.00  -0.00    -0.00   0.00   0.00     0.00   0.01   0.00
  16   1     0.00   0.00   0.00     0.00   0.00   0.01    -0.00  -0.00  -0.00
  17   1    -0.00  -0.00  -0.00    -0.00   0.00   0.00     0.00   0.00   0.00
  18   1     0.00   0.00  -0.00    -0.00   0.00   0.00    -0.00   0.00   0.00
  19   1    -0.00  -0.00   0.00    -0.00  -0.00   0.00     0.00   0.00  -0.00
  20   1     0.00  -0.00   0.00    -0.00   0.00   0.00    -0.00   0.00  -0.00
  21   1     0.00   0.00  -0.00    -0.00  -0.00   0.00     0.00  -0.00  -0.00
  22   1    -0.00   0.00   0.00    -0.00   0.00   0.00    -0.00   0.00   0.00
  23   1    -0.00   0.00   0.00     0.00   0.00   0.00    -0.00   0.00  -0.00
  24   1    -0.00  -0.00   0.00    -0.00  -0.00   0.00    -0.00  -0.00   0.00
  25   1     0.00   0.00  -0.00    -0.00   0.00   0.00     0.00   0.00  -0.00
  26   1    -0.00   0.00   0.00    -0.00  -0.00   0.00    -0.00  -0.00   0.00
  27   1     0.01  -0.00   0.00     0.00  -0.00   0.00     0.01  -0.00   0.00
