24
 energy: -28.481000330562 gnorm: 0.000319411421 xtb: 6.5.1 (fef0646)
N            1.20688117199163       -0.39794474362280        0.18519828232134
C            2.66169105893785       -0.29658186473606        0.07291229151133
C            3.13656370133977        1.04295758533372        0.62661176926854
C            4.64598694540664        1.21508822408301        0.47913673243083
C            5.11954597891593        2.55950141376793        1.02587282762450
C            6.62596787410464        2.74760144056358        0.86420953654785
C            7.09160994354231        4.08991364516872        1.41436087928728
Cl          -0.09513758949482        1.77026520233171       -1.29773347985543
H            0.86809073175740       -1.27706805343723       -0.18933292171219
H            0.52792589538128        0.76078132632667       -0.60618022856618
H            0.91627642672344       -0.32124665291888        1.15453382712303
H            2.91389459357428       -0.36587184384624       -0.98771183571739
H            3.17288467004462       -1.11598142724914        0.59912380106949
H            2.86441083582551        1.11347213404494        1.68250561627576
H            2.62050953325869        1.84239076045794        0.09466016588290
H            4.91522345126321        1.14031168025530       -0.57659783233954
H            5.15931738737657        0.40824487352752        1.00866624765164
H            4.85932340132069        2.63201652214201        2.08449543880799
H            4.59776830348672        3.36312284222467        0.50217033341364
H            6.88519406800286        2.68017097274235       -0.19462257800513
H            7.14867588005033        1.94131770763123        1.38410824193837
H            6.59312064293126        4.90656661468830        0.89730776401367
H            8.16502479803382        4.20615019716801        1.28512612592874
H            6.86320029622473        4.16766144335360        2.47496899509990
