20
 energy: -27.449747280216 gnorm: 0.000874990804 xtb: 6.5.1 (fef0646)
N            1.36454826298274        0.47040189089274        0.32551354981716
C            2.79251205300991        0.09277908502059        0.06599412628326
C            2.95991010055956       -0.43800631937017       -1.35218438012097
C            4.42420161084433       -0.48021728624352       -1.80890212426620
C            5.28907833611910       -1.56645302985405       -1.16451983859281
C            5.78250954813392       -1.20622564701855        0.22853950376634
O            6.68647622427029       -2.02961916277190        0.75040591359352
O            5.38103853753269       -0.25711983861241        0.84557063973299
H            1.26256666776459        0.83967299975407        1.27859262465861
H            0.75295334737033       -0.34838493954736        0.21881960177779
H            1.06312852333805        1.19061778644883       -0.34364163322455
H            3.08987774571212       -0.64774266033769        0.80576532088136
H            3.41844797293830        0.97261920363001        0.21298650668291
H            2.43074757220564        0.22613897022484       -2.04102886755811
H            2.52250005527906       -1.43475324467569       -1.44146387316383
H            4.88606878268982        0.48972777800840       -1.62109090833643
H            4.42343283692976       -0.64771419417193       -2.88615414537059
H            6.16469133682358       -1.73298044218405       -1.79632557311893
H            4.74273207951033       -2.51180359560684       -1.10608397075177
H            6.97170840598604       -2.74250735358567        0.16275752731043
