      -----------------------------------------------------------      
     |                   =====================                   |     
     |                           x T B                           |     
     |                   =====================                   |     
     |                         S. Grimme                         |     
     |          Mulliken Center for Theoretical Chemistry        |     
     |                    University of Bonn                     |     
      -----------------------------------------------------------      

   * xtb version 6.5.1 (fef0646) compiled by 'conda@b96dff2e9fd6' on 2023-01-04

   xtb is free software: you can redistribute it and/or modify it under
   the terms of the GNU Lesser General Public License as published by
   the Free Software Foundation, either version 3 of the License, or
   (at your option) any later version.
   
   xtb is distributed in the hope that it will be useful,
   but WITHOUT ANY WARRANTY; without even the implied warranty of
   MERCHANTABILITY or FITNESS FOR A PARTICULAR PURPOSE.  See the
   GNU Lesser General Public License for more details.
   
   Cite this work as:
   * C. Bannwarth, E. Caldeweyher, S. Ehlert, A. Hansen, P. Pracht,
     J. Seibert, S. Spicher, S. Grimme, WIREs Comput. Mol. Sci., 2020, 11,
     e01493. DOI: 10.1002/wcms.1493
   
   for GFN2-xTB:
   * C. Bannwarth, S. Ehlert and S. Grimme., J. Chem. Theory Comput., 2019,
     15, 1652-1671. DOI: 10.1021/acs.jctc.8b01176
   for GFN1-xTB:
   * S. Grimme, C. Bannwarth, P. Shushkov, J. Chem. Theory Comput., 2017,
     13, 1989-2009. DOI: 10.1021/acs.jctc.7b00118
   for GFN0-xTB:
   * P. Pracht, E. Caldeweyher, S. Ehlert, S. Grimme, ChemRxiv, 2019, preprint.
     DOI: 10.26434/chemrxiv.8326202.v1
   for GFN-FF:
   * S. Spicher and S. Grimme, Angew. Chem. Int. Ed., 2020, 59, 15665-15673.
     DOI: 10.1002/anie.202004239
   
   for ALPB and GBSA implicit solvation:
   * S. Ehlert, M. Stahn, S. Spicher, S. Grimme, J. Chem. Theory Comput.,
     2021, 17, 4250-4261. DOI: 10.1021/acs.jctc.1c00471
   
   for DFT-D4:
   * E. Caldeweyher, C. Bannwarth and S. Grimme, J. Chem. Phys., 2017,
     147, 034112. DOI: 10.1063/1.4993215
   * E. Caldeweyher, S. Ehlert, A. Hansen, H. Neugebauer, S. Spicher,
     C. Bannwarth and S. Grimme, J. Chem. Phys., 2019, 150, 154122.
     DOI: 10.1063/1.5090222
   * E. Caldeweyher, J.-M. Mewes, S. Ehlert and S. Grimme, Phys. Chem. Chem. Phys.
     2020, 22, 8499-8512. DOI: 10.1039/D0CP00502A
   
   for sTDA-xTB:
   * S. Grimme and C. Bannwarth, J. Chem. Phys., 2016, 145, 054103.
     DOI: 10.1063/1.4959605
   
   in the mass-spec context:
   * V. Asgeirsson, C. Bauer and S. Grimme, Chem. Sci., 2017, 8, 4879.
     DOI: 10.1039/c7sc00601b
   * J. Koopman and S. Grimme, ACS Omega 2019, 4, 12, 15120-15133.
     DOI: 10.1021/acsomega.9b02011
   
   for metadynamics refer to:
   * S. Grimme, J. Chem. Theory Comput., 2019, 155, 2847-2862
     DOI: 10.1021/acs.jctc.9b00143
   
   for SPH calculations refer to:
   * S. Spicher and S. Grimme, J. Chem. Theory Comput., 2021, 17, 1701-1714
     DOI: 10.1021/acs.jctc.0c01306
   
   with help from (in alphabetical order)
   P. Atkinson, C. Bannwarth, F. Bohle, G. Brandenburg, E. Caldeweyher
   M. Checinski, S. Dohm, S. Ehlert, S. Ehrlich, I. Gerasimov, C. Hölzer
   A. Katbashev, J. Koopman, C. Lavigne, S. Lehtola, F. März, M. Müller,
   F. Musil, H. Neugebauer, J. Pisarek, C. Plett, P. Pracht, F. Pultar,
   J. Seibert, P. Shushkov, S. Spicher, M. Stahn, M. Steiner, T. Strunk,
   J. Stückrath, T. Rose, and J. Unsleber
   
 * started run on 2023/01/24 at 15:57:22.482     

           -------------------------------------------------
          |                Calculation Setup                |
           -------------------------------------------------

          program call               : xtb init.xyz --opt -c 1 -u 0 -P 16 --alpb water
          hostname                   : gpg-woodward
          coordinate file            : init.xyz
          omp threads                :                    16

   ID    Z sym.   atoms
    1    7 N      1
    2    6 C      2-5
    3    8 O      6, 7
    4    1 H      8-17

           -------------------------------------------------
          |                 G F N 2 - x T B                 |
           -------------------------------------------------

        Reference                      10.1021/acs.jctc.8b01176
      * Hamiltonian:
        H0-scaling (s, p, d)           1.850000    2.230000    2.230000
        zeta-weighting                 0.500000
      * Dispersion:
        s8                             2.700000
        a1                             0.520000
        a2                             5.000000
        s9                             5.000000
      * Repulsion:
        kExp                           1.500000    1.000000
        rExp                           1.000000
      * Coulomb:
        alpha                          2.000000
        third order                    shell-resolved
        anisotropic                    true
        a3                             3.000000
        a5                             4.000000
        cn-shift                       1.200000
        cn-exp                         4.000000
        max-rad                        5.000000

      * Solvation model:               ALPB
        Solvent                        water
        Parameter file                 internal GFN2-xTB/ALPB
        Dielectric constant                8.0200E+01
        Reference state                gsolv [1 M gas/solution]
        Free energy shift                  1.0808E-03 Eh       6.7819E-01 kcal/mol
        Temperature                        2.9815E+02 K
        Density                            1.0000E+00 kg/L
        Solvent mass                       1.8000E+01 g/mol
        Interaction kernel             P16
        Born radius scaling (c1)           1.4744E+00
        Born radii integrator          GBOBC
        Born offset                        0.0000E+00 a0       0.0000E+00 AA
        H-bond correction              true
        Ion screening                  false
        Surface tension                    1.0000E-05 Eh       1.5569E+01 dyn/cm
        Grid points                               230 per atom

          ...................................................
          :                      SETUP                      :
          :.................................................:
          :  # basis functions                  38          :
          :  # atomic orbitals                  38          :
          :  # shells                           24          :
          :  # electrons                        42          :
          :  max. iterations                   250          :
          :  Hamiltonian                  GFN2-xTB          :
          :  restarted?                      false          :
          :  GBSA solvation                   true          :
          :  PC potential                    false          :
          :  electronic temp.          300.0000000     K    :
          :  accuracy                    1.0000000          :
          :  -> integral cutoff          0.2500000E+02      :
          :  -> integral neglect         0.1000000E-07      :
          :  -> SCF convergence          0.1000000E-05 Eh   :
          :  -> wf. convergence          0.1000000E-03 e    :
          :  Broyden damping             0.4000000          :
          ...................................................

 iter      E             dE          RMSdq      gap      omega  full diag
   1    -24.5677625 -0.245678E+02  0.480E+00    4.95       0.0  T
   2    -24.6548121 -0.870496E-01  0.238E+00    4.77       1.0  T
   3    -24.6588096 -0.399747E-02  0.122E+00    5.07       1.0  T
   4    -24.6595284 -0.718817E-03  0.316E-01    4.83       1.0  T
   5    -24.6601423 -0.613895E-03  0.914E-02    4.93       1.0  T
   6    -24.6601501 -0.782993E-05  0.373E-02    4.92       1.0  T
   7    -24.6601516 -0.148224E-05  0.842E-03    4.92       2.9  T
   8    -24.6601517 -0.703626E-07  0.357E-03    4.92       6.8  T
   9    -24.6601517 -0.362394E-07  0.121E-03    4.92      20.1  T
  10    -24.6601517 -0.254263E-08  0.611E-04    4.92      39.7  T
  11    -24.6601517 -0.266833E-08  0.143E-04    4.92     169.4  T

   *** convergence criteria satisfied after 11 iterations ***

         #    Occupation            Energy/Eh            Energy/eV
      -------------------------------------------------------------
         1        2.0000           -0.7414836             -20.1768
       ...           ...                  ...                  ...
        15        2.0000           -0.5114145             -13.9163
        16        2.0000           -0.4822980             -13.1240
        17        2.0000           -0.4809990             -13.0886
        18        2.0000           -0.4755050             -12.9391
        19        2.0000           -0.4706346             -12.8066
        20        2.0000           -0.4432333             -12.0610
        21        2.0000           -0.4248781             -11.5615 (HOMO)
        22                         -0.2440816              -6.6418 (LUMO)
        23                         -0.0597266              -1.6252
        24                          0.0413263               1.1245
        25                          0.0601742               1.6374
        26                          0.0718476               1.9551
       ...                                ...                  ...
        38                          0.5728123              15.5870
      -------------------------------------------------------------
                  HL-Gap            0.1807964 Eh            4.9197 eV
             Fermi-level           -0.3344799 Eh           -9.1017 eV

 SCC (total)                   0 d,  0 h,  0 min,  0.015 sec
 SCC setup                      ...        0 min,  0.000 sec (  2.503%)
 Dispersion                     ...        0 min,  0.000 sec (  1.740%)
 classical contributions        ...        0 min,  0.000 sec (  0.460%)
 integral evaluation            ...        0 min,  0.001 sec (  4.701%)
 iterations                     ...        0 min,  0.012 sec ( 77.142%)
 molecular gradient             ...        0 min,  0.002 sec ( 10.917%)
 printout                       ...        0 min,  0.000 sec (  0.869%)

         :::::::::::::::::::::::::::::::::::::::::::::::::::::
         ::                     SUMMARY                     ::
         :::::::::::::::::::::::::::::::::::::::::::::::::::::
         :: total energy             -24.402864774490 Eh    ::
         :: total w/o Gsasa/hb       -24.387453424438 Eh    ::
         :: gradient norm              0.035690690308 Eh/a0 ::
         :: HOMO-LUMO gap              4.919721577511 eV    ::
         ::.................................................::
         :: SCC energy               -24.660151691485 Eh    ::
         :: -> isotropic ES            0.199535140745 Eh    ::
         :: -> anisotropic ES         -0.014842943511 Eh    ::
         :: -> anisotropic XC          0.008982015697 Eh    ::
         :: -> dispersion             -0.008127760891 Eh    ::
         :: -> Gsolv                  -0.143199337445 Eh    ::
         ::    -> Gelec               -0.127787987392 Eh    ::
         ::    -> Gsasa                0.002855372179 Eh    ::
         ::    -> Ghb                 -0.019347481929 Eh    ::
         ::    -> Gshift               0.001080759698 Eh    ::
         :: repulsion energy           0.257291259460 Eh    ::
         :: add. restraining           0.000000000000 Eh    ::
         :: total charge               1.000000000000 e     ::
         :::::::::::::::::::::::::::::::::::::::::::::::::::::

      ----------------------------------------------------------- 
     |                   =====================                   |
     |                        A N C O P T                        |
     |                   =====================                   |
     |               Approximate Normal Coordinate               |
     |                Rational Function Optimizer                |
      ----------------------------------------------------------- 

          ...................................................
          :                      SETUP                      :
          :.................................................:
          :   optimization level            normal          :
          :   max. optcycles                   200          :
          :   ANC micro-cycles                  20          :
          :   degrees of freedom                45          :
          :.................................................:
          :   RF solver                   davidson          :
          :   write xtbopt.log                true          :
          :   linear?                        false          :
          :   energy convergence         0.5000000E-05 Eh   :
          :   grad. convergence          0.1000000E-02 Eh/α :
          :   maximium RF displ.         1.0000000          :
          :   Hlow (freq-cutoff)         0.1000000E-01      :
          :   Hmax (freq-cutoff)         5.0000000          :
          :   S6 in model hess.         20.0000000          :
          ...................................................

generating ANC from model Hessian ...
Using Lindh-Hessian (1995)
 Shifting diagonal of input Hessian by    7.3391973163587972E-003
 Lowest  eigenvalues of input Hessian
    0.000000    0.000000    0.000000    0.000000    0.000000    0.000000
    0.010000    0.011123    0.011346    0.016154    0.022227    0.023357
    0.025495    0.043905    0.050505    0.050776    0.059558    0.062797
 Highest eigenvalues
    1.319939    1.393930    1.398293    1.453386    1.714095    2.258363


........................................................................
.............................. CYCLE    1 ..............................
........................................................................
   1    -24.6601517 -0.246602E+02  0.521E-05    4.92       0.0  T
   2    -24.6601517 -0.281730E-11  0.351E-05    4.92     691.2  T
   3    -24.6601517 -0.208900E-11  0.764E-06    4.92    3173.4  T
     SCC iter.                  ...        0 min,  0.003 sec
     gradient                   ...        0 min,  0.002 sec
 * total energy  :   -24.4028648 Eh     change       -0.4725464E-10 Eh
   gradient norm :     0.0356911 Eh/α   predicted     0.0000000E+00 (-100.00%)
   displ. norm   :     0.1255547 α      lambda       -0.3159087E-02
   maximum displ.:     0.0691407 α      in ANC's #15, #29, #6, ...

........................................................................
.............................. CYCLE    2 ..............................
........................................................................
   1    -24.6696837 -0.246697E+02  0.179E-01    5.06       0.0  T
   2    -24.6697026 -0.189611E-04  0.106E-01    5.05       1.0  T
   3    -24.6697021  0.520496E-06  0.239E-02    5.06       1.0  T
   4    -24.6697052 -0.306773E-05  0.565E-03    5.05       4.3  T
   5    -24.6697052 -0.640562E-07  0.330E-03    5.05       7.4  T
   6    -24.6697053 -0.116419E-07  0.820E-04    5.05      29.6  T
   7    -24.6697053 -0.132252E-08  0.277E-04    5.05      87.5  T
     SCC iter.                  ...        0 min,  0.006 sec
     gradient                   ...        0 min,  0.001 sec
 * total energy  :   -24.4048163 Eh     change       -0.1951552E-02 Eh
   gradient norm :     0.0116502 Eh/α   predicted    -0.1604442E-02 ( -17.79%)
   displ. norm   :     0.0723886 α      lambda       -0.4613932E-03
   maximum displ.:     0.0540444 α      in ANC's #7, #29, #28, ...

........................................................................
.............................. CYCLE    3 ..............................
........................................................................
   1    -24.6719389 -0.246719E+02  0.659E-02    5.09       0.0  T
   2    -24.6719449 -0.599791E-05  0.379E-02    5.08       1.0  T
   3    -24.6719451 -0.217529E-06  0.119E-02    5.08       2.0  T
   4    -24.6719452 -0.169822E-06  0.287E-03    5.08       8.5  T
   5    -24.6719453 -0.402372E-07  0.125E-03    5.08      19.3  T
   6    -24.6719453 -0.125501E-08  0.506E-04    5.08      47.9  T
   7    -24.6719453 -0.264816E-09  0.109E-04    5.08     221.7  T
     SCC iter.                  ...        0 min,  0.006 sec
     gradient                   ...        0 min,  0.001 sec
 * total energy  :   -24.4050727 Eh     change       -0.2563286E-03 Eh
   gradient norm :     0.0052697 Eh/α   predicted    -0.2319059E-03 (  -9.53%)
   displ. norm   :     0.0159522 α      lambda       -0.2699223E-04
   maximum displ.:     0.0100999 α      in ANC's #7, #19, #2, ...

........................................................................
.............................. CYCLE    4 ..............................
........................................................................
   1    -24.6716893 -0.246717E+02  0.139E-02    5.07       0.0  T
   2    -24.6716901 -0.816244E-06  0.715E-03    5.07       3.4  T
   3    -24.6716901 -0.305925E-07  0.344E-03    5.07       7.0  T
   4    -24.6716901 -0.341032E-08  0.772E-04    5.07      31.4  T
   5    -24.6716901 -0.166920E-08  0.254E-04    5.07      95.3  T
     SCC iter.                  ...        0 min,  0.004 sec
     gradient                   ...        0 min,  0.001 sec
 * total energy  :   -24.4050892 Eh     change       -0.1655460E-04 Eh
   gradient norm :     0.0017393 Eh/α   predicted    -0.1349793E-04 ( -18.46%)
   displ. norm   :     0.0095728 α      lambda       -0.3504750E-05
   maximum displ.:     0.0047037 α      in ANC's #7, #2, #15, ...

........................................................................
.............................. CYCLE    5 ..............................
........................................................................
   1    -24.6714027 -0.246714E+02  0.764E-03    5.07       0.0  T
   2    -24.6714029 -0.220212E-06  0.405E-03    5.07       6.0  T
   3    -24.6714030 -0.867243E-08  0.181E-03    5.07      13.4  T
   4    -24.6714030 -0.139988E-08  0.422E-04    5.07      57.5  T
   5    -24.6714030 -0.389040E-09  0.147E-04    5.07     165.5  T
     SCC iter.                  ...        0 min,  0.004 sec
     gradient                   ...        0 min,  0.001 sec
 * total energy  :   -24.4050911 Eh     change       -0.1919397E-05 Eh
   gradient norm :     0.0006842 Eh/α   predicted    -0.1752698E-05 (  -8.68%)
   displ. norm   :     0.0028686 α      lambda       -0.4398548E-06
   maximum displ.:     0.0013884 α      in ANC's #7, #5, #19, ...

   *** GEOMETRY OPTIMIZATION CONVERGED AFTER 5 ITERATIONS ***

------------------------------------------------------------------------
 total energy gain   :        -0.0022264 Eh       -1.3971 kcal/mol
 total RMSD          :         0.0465382 a0        0.0246 Å
 total power (kW/mol):        -1.1690589 (step) -130.5284 (real)
------------------------------------------------------------------------

 ANCopt (total)                0 d,  0 h,  0 min,  0.045 sec
 optimizer setup                ...        0 min,  0.000 sec (  0.366%)
 model hessian                  ...        0 min,  0.005 sec ( 11.665%)
 ANC generation                 ...        0 min,  0.001 sec (  1.808%)
 coordinate transformation      ...        0 min,  0.000 sec (  0.343%)
 single point calculation       ...        0 min,  0.036 sec ( 79.679%)
 optimization log               ...        0 min,  0.001 sec (  1.602%)
 hessian update                 ...        0 min,  0.000 sec (  0.319%)
 rational function              ...        0 min,  0.001 sec (  2.306%)

================
 final structure:
================
17
 xtb: 6.5.1 (fef0646)
N            1.02723004037292        0.01653540036138        0.06002955365798
C            2.50849006570175        0.03527050974948        0.06147905701228
C            3.01678263025100        1.47253095827631        0.01228441109207
C            4.54431584931682        1.51681585913321        0.01041300455090
C            5.04587345914913        2.94122649958498       -0.03976214423606
O            6.36849523007410        3.10006436546667       -0.04601014752993
O            4.31666909269680        3.90605316536154       -0.07440573703769
H            0.67293880639341       -0.94639619474862        0.08936106621537
H            0.66861559475539        0.47471441840280       -0.78632529100029
H            0.66633923862393        0.52648672199923        0.87513740257250
H            2.87296799447184       -0.51633077696199       -0.80514119929631
H            2.87052801649777       -0.45537997279248        0.96497993129597
H            2.66052885808192        2.04095428214609        0.87230311975223
H            2.66064301218047        1.98033654581151       -0.88490536408173
H            4.94231718573988        0.98535202150800       -0.85685763882678
H            4.94311832426841        1.04685387304884        0.91211550459406
H            6.87145660142444        2.26629232365304       -0.01499552873456

 Bond Distances (Angstroems)
 ---------------------------
N1-C2=1.4814         N1-H8=1.0265         N1-H9=1.0271         N1-H10=1.0270        C2-N1=1.4814         C2-C3=1.5253         
C2-H11=1.0900        C2-H12=1.0900        C3-C2=1.5253         C3-C4=1.5282         C3-H13=1.0907        C3-H14=1.0907        
C4-C3=1.5282         C4-C5=1.5110         C4-H15=1.0923        C4-H16=1.0922        C5-C4=1.5110         C5-O6=1.3321         
C5-O7=1.2099         O6-C5=1.3321         O6-H17=0.9742        O7-C5=1.2099         H8-N1=1.0265         H9-N1=1.0271         
H10-N1=1.0270        H11-C2=1.0900        H12-C2=1.0900        H13-C3=1.0907        H14-C3=1.0907        H15-C4=1.0923        
H16-C4=1.0922        H17-O6=0.9742        
 C  H  Rav=1.0910 sigma=0.0009  Rmin=1.0900  Rmax=1.0923     6
 C  C  Rav=1.5215 sigma=0.0075  Rmin=1.5110  Rmax=1.5282     3
 N  H  Rav=1.0268 sigma=0.0003  Rmin=1.0265  Rmax=1.0271     3
 N  C  Rav=1.4814 sigma=0.0000  Rmin=1.4814  Rmax=1.4814     1
 O  H  Rav=0.9742 sigma=0.0000  Rmin=0.9742  Rmax=0.9742     1
 O  C  Rav=1.2710 sigma=0.0611  Rmin=1.2099  Rmax=1.3321     2

 selected bond angles (degree)
 --------------------
H8-N1-C2=110.91                H9-N1-C2=110.14                H9-N1-H8=108.76                H10-N1-C2=110.14               
H10-N1-H8=108.77               H10-N1-H9=108.05               C3-C2-N1=110.19                H11-C2-N1=109.10               
H11-C2-C3=109.86               H12-C2-N1=109.10               H12-C2-C3=109.89               H12-C2-H11=108.67              
C4-C3-C2=111.13                H13-C3-C2=110.90               H13-C3-C4=108.20               H14-C3-C2=110.88               
H14-C3-C4=108.17               H14-C3-H13=107.42              C5-C4-C3=111.05                H15-C4-C3=110.55               
H15-C4-C5=108.14               H16-C4-C3=110.58               H16-C4-C5=108.17               H16-C4-H15=108.25              
O6-C5-C4=116.24                O7-C5-C4=123.55                O7-C5-O6=120.21                H17-O6-C5=114.23               

 selected dihedral angles (degree)
 ---------------------------------
C3-C2-N1-H8=179.78            C3-C2-N1-H9= 59.34            C3-C2-N1-H10=300.26           H11-C2-N1-H8= 59.09           
H11-C2-N1-H9=298.65           H11-C2-N1-H10=179.57          H12-C2-N1-H8=300.51           H12-C2-N1-H9=180.06           
H12-C2-N1-H10= 60.98          C4-C3-C2-N1=180.10            C4-C3-C2-H11=300.33           C4-C3-C2-H12= 59.85           
H13-C3-C2-N1= 59.70           H13-C3-C2-H11=179.93          H13-C3-C2-H12=299.45          H14-C3-C2-N1=300.45           
H14-C3-C2-H11= 60.68          H14-C3-C2-H12=180.20          C5-C4-C3-C2=179.94            C5-C4-C3-H13=301.93           
C5-C4-C3-H14= 58.00           H15-C4-C3-C2= 59.90           H15-C4-C3-H13=181.89          H15-C4-C3-H14=297.96          
H16-C4-C3-C2=300.03           H16-C4-C3-H13= 62.02          H16-C4-C3-H14=178.10          O6-C5-C4-C3=180.02            
O6-C5-C4-H15=301.48           O6-C5-C4-H16= 58.51           O7-C5-C4-C3=359.95            O7-C5-C4-H15=121.42           
O7-C5-C4-H16=238.44           H17-O6-C5-C4=359.87           H17-O6-C5-O7=179.93           
           -------------------------------------------------
          |                Final Singlepoint                |
           -------------------------------------------------

          ...................................................
          :                      SETUP                      :
          :.................................................:
          :  # basis functions                  38          :
          :  # atomic orbitals                  38          :
          :  # shells                           24          :
          :  # electrons                        42          :
          :  max. iterations                   250          :
          :  Hamiltonian                  GFN2-xTB          :
          :  restarted?                      false          :
          :  GBSA solvation                   true          :
          :  PC potential                    false          :
          :  electronic temp.          300.0000000     K    :
          :  accuracy                    1.0000000          :
          :  -> integral cutoff          0.2500000E+02      :
          :  -> integral neglect         0.1000000E-07      :
          :  -> SCF convergence          0.1000000E-05 Eh   :
          :  -> wf. convergence          0.1000000E-03 e    :
          :  Broyden damping             0.4000000          :
          ...................................................

 iter      E             dE          RMSdq      gap      omega  full diag
   1    -24.6714030 -0.246714E+02  0.637E-05    5.07       0.0  T
   2    -24.6714030 -0.737188E-11  0.412E-05    5.07     589.1  T
   3    -24.6714030 -0.119726E-11  0.197E-05    5.07    1232.7  T

   *** convergence criteria satisfied after 3 iterations ***

         #    Occupation            Energy/Eh            Energy/eV
      -------------------------------------------------------------
         1        2.0000           -0.7459312             -20.2978
       ...           ...                  ...                  ...
        15        2.0000           -0.5097883             -13.8720
        16        2.0000           -0.4830896             -13.1455
        17        2.0000           -0.4829836             -13.1427
        18        2.0000           -0.4756269             -12.9425
        19        2.0000           -0.4702250             -12.7955
        20        2.0000           -0.4443186             -12.0905
        21        2.0000           -0.4251196             -11.5681 (HOMO)
        22                         -0.2389271              -6.5015 (LUMO)
        23                         -0.0542065              -1.4750
        24                          0.0414526               1.1280
        25                          0.0646587               1.7595
        26                          0.0712660               1.9392
       ...                                ...                  ...
        38                          0.6001383              16.3306
      -------------------------------------------------------------
                  HL-Gap            0.1861925 Eh            5.0666 eV
             Fermi-level           -0.3320234 Eh           -9.0348 eV

 SCC (total)                   0 d,  0 h,  0 min,  0.005 sec
 SCC setup                      ...        0 min,  0.000 sec (  4.353%)
 Dispersion                     ...        0 min,  0.000 sec (  2.313%)
 classical contributions        ...        0 min,  0.000 sec (  0.770%)
 integral evaluation            ...        0 min,  0.000 sec (  9.399%)
 iterations                     ...        0 min,  0.003 sec ( 50.614%)
 molecular gradient             ...        0 min,  0.001 sec ( 25.557%)
 printout                       ...        0 min,  0.000 sec (  2.551%)

         :::::::::::::::::::::::::::::::::::::::::::::::::::::
         ::                     SUMMARY                     ::
         :::::::::::::::::::::::::::::::::::::::::::::::::::::
         :: total energy             -24.405091129549 Eh    ::
         :: total w/o Gsasa/hb       -24.389609711803 Eh    ::
         :: gradient norm              0.000684653079 Eh/a0 ::
         :: HOMO-LUMO gap              5.066555611876 eV    ::
         ::.................................................::
         :: SCC energy               -24.671402954807 Eh    ::
         :: -> isotropic ES            0.199716303997 Eh    ::
         :: -> anisotropic ES         -0.015510010647 Eh    ::
         :: -> anisotropic XC          0.008568596117 Eh    ::
         :: -> dispersion             -0.008140939470 Eh    ::
         :: -> Gsolv                  -0.143458491390 Eh    ::
         ::    -> Gelec               -0.127977073645 Eh    ::
         ::    -> Gsasa                0.002834010316 Eh    ::
         ::    -> Ghb                 -0.019396187760 Eh    ::
         ::    -> Gshift               0.001080759698 Eh    ::
         :: repulsion energy           0.266317328000 Eh    ::
         :: add. restraining           0.000000000000 Eh    ::
         :: total charge               1.000000000000 e     ::
         :::::::::::::::::::::::::::::::::::::::::::::::::::::

           -------------------------------------------------
          |                Property Printout                |
           -------------------------------------------------

    * Orbital Energies and Occupations

         #    Occupation            Energy/Eh            Energy/eV
      -------------------------------------------------------------
         1        2.0000           -0.7459312             -20.2978
       ...           ...                  ...                  ...
         9        2.0000           -0.5898220             -16.0499
        10        2.0000           -0.5824756             -15.8500
        11        2.0000           -0.5687498             -15.4765
        12        2.0000           -0.5533648             -15.0578
        13        2.0000           -0.5479878             -14.9115
        14        2.0000           -0.5231665             -14.2361
        15        2.0000           -0.5097883             -13.8720
        16        2.0000           -0.4830896             -13.1455
        17        2.0000           -0.4829836             -13.1427
        18        2.0000           -0.4756269             -12.9425
        19        2.0000           -0.4702250             -12.7955
        20        2.0000           -0.4443186             -12.0905
        21        2.0000           -0.4251196             -11.5681 (HOMO)
        22                         -0.2389271              -6.5015 (LUMO)
        23                         -0.0542065              -1.4750
        24                          0.0414526               1.1280
        25                          0.0646587               1.7595
        26                          0.0712660               1.9392
        27                          0.0988374               2.6895
        28                          0.1180740               3.2130
        29                          0.1335377               3.6337
        30                          0.1441195               3.9217
        31                          0.1609731               4.3803
        32                          0.1627725               4.4293
       ...                                ...                  ...
        38                          0.6001383              16.3306
      -------------------------------------------------------------
                  HL-Gap            0.1861925 Eh            5.0666 eV
             Fermi-level           -0.3320234 Eh           -9.0348 eV

     #   Z          covCN         q      C6AA      α(0)
     1   7 N        3.485    -0.161    24.477     7.348
     2   6 C        3.732    -0.041    21.404     6.604
     3   6 C        3.804    -0.082    22.057     6.686
     4   6 C        3.803    -0.120    22.786     6.796
     5   6 C        2.690     0.371    20.715     7.449
     6   8 O        1.659    -0.437    21.573     6.270
     7   8 O        0.856    -0.468    23.093     6.443
     8   1 H        0.859     0.320     0.657     1.270
     9   1 H        0.859     0.309     0.687     1.299
    10   1 H        0.859     0.309     0.687     1.299
    11   1 H        0.925     0.116     1.645     2.006
    12   1 H        0.925     0.116     1.644     2.005
    13   1 H        0.924     0.077     2.015     2.220
    14   1 H        0.924     0.077     2.015     2.220
    15   1 H        0.924     0.100     1.788     2.091
    16   1 H        0.924     0.100     1.789     2.092
    17   1 H        0.804     0.416     0.457     1.062

 Mol. C6AA /au·bohr⁶  :       1949.478272
 Mol. C8AA /au·bohr⁸  :      41825.455264
 Mol. α(0) /au        :         65.157389


Wiberg/Mayer (AO) data.
largest (>0.10) Wiberg bond orders for each atom

 ---------------------------------------------------------------------------
     #   Z sym  total        # sym  WBO       # sym  WBO       # sym  WBO
 ---------------------------------------------------------------------------
     1   7 N    3.652 --     2 C    0.970    10 H    0.890     9 H    0.890
                             8 H    0.885
     2   6 C    3.926 --     3 C    1.011     1 N    0.970    11 H    0.964
                            12 H    0.964
     3   6 C    3.986 --     2 C    1.011     4 C    1.005    13 H    0.971
                            14 H    0.971
     4   6 C    3.989 --     3 C    1.005     5 C    0.983    16 H    0.945
                            15 H    0.945
     5   6 C    3.895 --     7 O    1.722     6 O    1.153     4 C    0.983
     6   8 O    2.167 --     5 C    1.153    17 H    0.806     7 O    0.157
     7   8 O    1.994 --     5 C    1.722     6 O    0.157
     8   1 H    0.897 --     1 N    0.885
     9   1 H    0.905 --     1 N    0.890
    10   1 H    0.905 --     1 N    0.890
    11   1 H    0.987 --     2 C    0.964
    12   1 H    0.986 --     2 C    0.964
    13   1 H    0.994 --     3 C    0.971
    14   1 H    0.994 --     3 C    0.971
    15   1 H    0.990 --     4 C    0.945
    16   1 H    0.990 --     4 C    0.945
    17   1 H    0.827 --     6 O    0.806
 ---------------------------------------------------------------------------

Topologies differ in total number of bonds
Writing topology from bond orders to xtbtopo.mol

molecular dipole:
                 x           y           z       tot (Debye)
 q only:        2.934      -1.988       0.186
   full:        2.977      -2.141       0.192       9.333
molecular quadrupole (traceless):
                xx          xy          yy          xz          yz          zz
 q only:       33.550     -22.693     -32.880       1.342       0.790      -0.670
  q+dip:       34.327     -24.844     -36.116       1.431       0.965       1.789
   full:       35.133     -24.634     -36.586       1.425       0.971       1.453

           -------------------------------------------------
          |                Geometry Summary                 |
           -------------------------------------------------

      molecular mass/u    :      104.1278642
   center of mass at/Å    :        3.8122222       1.8385202      -0.0017646
  moments of inertia/u·Å² :        0.6388470E+02   0.4857171E+03   0.5373806E+03
rotational constants/cm⁻¹ :        0.2638759E+00   0.3470669E-01   0.3137000E-01

 * 15 selected distances

     #   Z          #   Z                                           value/Å
     1   7 N        2   6 C                                       1.4813793
     2   6 C        3   6 C                                       1.5252867
     3   6 C        4   6 C                                       1.5281763 (max)
     5   6 C        6   8 O                                       1.3321401
     5   6 C        7   8 O                                       1.2098884
     1   7 N        8   1 H                                       1.0264600
     1   7 N        9   1 H                                       1.0270584
     1   7 N       10   1 H                                       1.0269827
     2   6 C       11   1 H                                       1.0900179
     2   6 C       12   1 H                                       1.0900107
     3   6 C       13   1 H                                       1.0907127
     3   6 C       14   1 H                                       1.0907115
     4   6 C       15   1 H                                       1.0922534
     4   6 C       16   1 H                                       1.0922341
     6   8 O       17   1 H                                       0.9742218 (min)

 * 6 distinct bonds (by element types)

   Z      Z             #   av. dist./Å        max./Å        min./Å
   1 H    6 C           6     1.0909901     1.0922534     1.0900107
   6 C    6 C           2     1.5267315     1.5281763     1.5252867
   1 H    7 N           3     1.0268337     1.0270584     1.0264600
   6 C    7 N           1     1.4813793     1.4813793     1.4813793
   1 H    8 O           1     0.9742218     0.9742218     0.9742218
   6 C    8 O           2     1.2710142     1.3321401     1.2098884


optimized geometry written to: xtbopt.xyz


           -------------------------------------------------
          | TOTAL ENERGY              -24.405091129549 Eh   |
          | GRADIENT NORM               0.000684653079 Eh/α |
          | HOMO-LUMO GAP               5.066555611876 eV   |
           -------------------------------------------------

------------------------------------------------------------------------
 * finished run on 2023/01/24 at 15:57:22.571     
------------------------------------------------------------------------
 total:
 * wall-time:     0 d,  0 h,  0 min,  0.089 sec
 *  cpu-time:     0 d,  0 h,  0 min, 12.374 sec
 * ratio c/w:   139.155 speedup
 SCF:
 * wall-time:     0 d,  0 h,  0 min,  0.015 sec
 *  cpu-time:     0 d,  0 h,  0 min,  2.155 sec
 * ratio c/w:   140.734 speedup
 ANC optimizer:
 * wall-time:     0 d,  0 h,  0 min,  0.051 sec
 *  cpu-time:     0 d,  0 h,  0 min,  7.279 sec
 * ratio c/w:   141.778 speedup

