 Entering Gaussian System
 *********************************************
 Gaussian 98:
 frequency output generated by the xtb code
 *********************************************
                         Standard orientation:
 --------------------------------------------------------------------
  Center     Atomic     Atomic              Coordinates (Angstroms)
  Number     Number      Type              X           Y           Z
 --------------------------------------------------------------------
    1          7             0       -3.349560   -1.215924   -0.899766
    2          6             0       -3.222831    0.205476   -0.429869
    3          6             0       -2.297185    0.375313    0.788097
    4          6             0       -0.846087    0.234105    0.453863
    5          6             0       -0.059522    1.361661    0.238068
    6          9             0       -0.606356    2.575034    0.300298
    7          6             0        1.294816    1.233113   -0.060707
    8          9             0        2.037631    2.318599   -0.259801
    9          6             0        1.868469   -0.028020   -0.154076
   10          9             0        3.163888   -0.152857   -0.436461
   11          6             0        1.086404   -1.158656    0.041358
   12          9             0        1.625727   -2.369599   -0.070772
   13          6             0       -0.267604   -1.024668    0.338353
   14          9             0       -1.028140   -2.111134    0.450777
   15          1             0       -2.429873   -1.602869   -1.140759
   16          1             0       -3.951313   -1.282722   -1.728614
   17          1             0       -3.749650   -1.807161   -0.162774
   18          1             0       -4.232448    0.579082   -0.195216
   19          1             0       -2.850980    0.827413   -1.258482
   20          1             0       -2.552837   -0.362684    1.561390
   21          1             0       -2.445909    1.364665    1.249026
 --------------------------------------------------------------------
     1 basis functions        1 primitive gaussians
     1 alpha electrons        1 beta electrons

 Harmonic frequencies (cm**-1), IR intensities (km*mol⁻¹),
 Raman scattering activities (A**4/amu), Raman depolarization ratios,
 reduced masses (AMU), force constants (mDyne/A) and normal coordinates:
                      1                      2                      3
                        a                      a                      a 
 Frequencies --  -124.6014                55.6920                86.4273
 Red. masses --     2.5234                12.7091                14.2802
 Frc consts  --     0.0000                 0.0000                 0.0000
 IR Inten    --     1.7646                18.8518                 8.5911
 Raman Activ --     0.0000                 0.0000                 0.0000
 Depolar     --     0.0000                 0.0000                 0.0000
 Atom AN      X      Y      Z        X      Y      Z        X      Y      Z
   1   7     0.26   0.01  -0.11    -0.29  -0.33   0.42     0.26  -0.32  -0.02
   2   6    -0.10  -0.03   0.11    -0.10  -0.19  -0.00     0.13  -0.20  -0.27
   3   6     0.00   0.03   0.01     0.01   0.09  -0.12    -0.07   0.10  -0.15
   4   6    -0.01   0.01  -0.03     0.01   0.07  -0.14    -0.02   0.10   0.06
   5   6    -0.00   0.01  -0.02     0.06   0.06  -0.05     0.03   0.08   0.11
   6   9     0.01   0.01  -0.02     0.12   0.09  -0.08     0.14   0.13   0.24
   7   6    -0.00  -0.01  -0.01     0.08   0.03   0.07     0.02   0.02   0.07
   8   9     0.01  -0.02  -0.00     0.15   0.02   0.19     0.09  -0.01   0.17
   9   6    -0.02  -0.01   0.01     0.06   0.02   0.07    -0.06  -0.00  -0.10
  10   9    -0.02  -0.03   0.02     0.09  -0.01   0.21    -0.13  -0.07  -0.34
  11   6    -0.03  -0.01   0.00    -0.00   0.03  -0.06    -0.09   0.03  -0.04
  12   9    -0.03  -0.01   0.02    -0.04   0.02  -0.09    -0.21  -0.00  -0.14
  13   6    -0.03  -0.00  -0.01    -0.01   0.06  -0.14    -0.05   0.09   0.09
  14   9    -0.07   0.04   0.03    -0.07   0.09  -0.36    -0.07   0.13   0.33
  15   1     0.04   0.24  -0.51    -0.11  -0.11   0.03     0.08  -0.09   0.04
  16   1    -0.31  -0.06   0.25    -0.17  -0.15   0.19     0.09  -0.14  -0.02
  17   1     0.56  -0.15   0.12     0.01  -0.03   0.20     0.06  -0.05   0.02
  18   1    -0.05  -0.10   0.10    -0.02  -0.02   0.00     0.02  -0.06  -0.14
  19   1    -0.12   0.06   0.04    -0.04  -0.12  -0.06     0.06  -0.10  -0.10
  20   1     0.01   0.02   0.02     0.02   0.07   0.01    -0.04   0.07  -0.01
  21   1     0.00   0.01  -0.00     0.00   0.05  -0.09    -0.05   0.05  -0.10
                      4                      5                      6
                        a                      a                      a 
 Frequencies --   118.6093               146.6900               174.8027
 Red. masses --    18.1662                16.3926                11.7847
 Frc consts  --     0.0000                 0.0000                 0.0000
 IR Inten    --     0.5934                10.3069                 8.1191
 Raman Activ --     0.0000                 0.0000                 0.0000
 Depolar     --     0.0000                 0.0000                 0.0000
 Atom AN      X      Y      Z        X      Y      Z        X      Y      Z
   1   7     0.08   0.05   0.03    -0.33   0.10  -0.02    -0.30   0.08   0.06
   2   6    -0.02   0.03   0.11    -0.09   0.10  -0.08     0.19   0.15  -0.32
   3   6     0.02  -0.00   0.07    -0.00  -0.01  -0.14     0.00   0.06  -0.15
   4   6    -0.00  -0.01  -0.02    -0.00  -0.06  -0.14     0.04  -0.08   0.09
   5   6    -0.03  -0.01  -0.14    -0.00  -0.04  -0.06     0.01  -0.06   0.08
   6   9    -0.14  -0.04  -0.54    -0.04  -0.07  -0.08    -0.07  -0.11   0.16
   7   6     0.01   0.00   0.07     0.03  -0.00   0.05    -0.01  -0.00   0.02
   8   9     0.08   0.01   0.39     0.09   0.03   0.48    -0.13   0.03  -0.23
   9   6     0.00  -0.00   0.03     0.01   0.00  -0.13     0.02   0.01   0.07
  10   9     0.03   0.01   0.17    -0.06   0.03  -0.48     0.05   0.05   0.20
  11   6    -0.03  -0.01  -0.13     0.06  -0.01   0.03     0.03  -0.02   0.00
  12   9    -0.11  -0.01  -0.49     0.23   0.02   0.34     0.09   0.02  -0.33
  13   6     0.01  -0.01   0.03     0.04  -0.05  -0.01     0.04  -0.08   0.11
  14   9     0.07  -0.02   0.38     0.10  -0.07   0.17     0.09  -0.09   0.29
  15   1     0.04   0.02   0.05    -0.12   0.02  -0.10    -0.14  -0.02  -0.16
  16   1     0.07   0.02  -0.02    -0.17   0.03   0.06    -0.26  -0.01   0.15
  17   1    -0.02   0.00  -0.02    -0.02   0.04   0.04     0.06   0.08   0.14
  18   1    -0.01  -0.01   0.05    -0.01   0.07  -0.00     0.08   0.16  -0.16
  19   1    -0.02   0.03   0.04    -0.02   0.01  -0.04     0.16  -0.05  -0.12
  20   1     0.02  -0.01   0.02    -0.00  -0.01  -0.05    -0.07   0.03  -0.06
  21   1     0.01  -0.00   0.03     0.02  -0.01  -0.02     0.01   0.02  -0.05
                      7                      8                      9
                        a                      a                      a 
 Frequencies --   190.8538               222.1020               244.0850
 Red. masses --    14.5894                12.6342                17.6095
 Frc consts  --     0.0000                 0.0000                 0.0000
 IR Inten    --    23.6192                 8.9684                 1.3372
 Raman Activ --     0.0000                 0.0000                 0.0000
 Depolar     --     0.0000                 0.0000                 0.0000
 Atom AN      X      Y      Z        X      Y      Z        X      Y      Z
   1   7    -0.20  -0.05  -0.18    -0.32  -0.10  -0.30     0.10  -0.01   0.08
   2   6    -0.28  -0.11   0.10     0.00  -0.21   0.05     0.16   0.00   0.01
   3   6    -0.02  -0.13  -0.08     0.02  -0.32   0.08     0.12  -0.03   0.04
   4   6    -0.04   0.03  -0.27     0.09   0.07   0.19     0.09  -0.01  -0.06
   5   6     0.00   0.03  -0.16     0.05   0.09   0.15    -0.03   0.06  -0.07
   6   9     0.22   0.11   0.36     0.04   0.13  -0.20    -0.35  -0.07   0.11
   7   6     0.00  -0.00  -0.17     0.06   0.02   0.15    -0.03   0.07  -0.09
   8   9     0.08  -0.02  -0.06     0.17  -0.09  -0.13     0.32  -0.14   0.00
   9   6     0.01   0.00  -0.12     0.04   0.01   0.16    -0.16   0.01  -0.06
  10   9     0.12   0.02   0.28    -0.01   0.08  -0.14    -0.18  -0.09   0.10
  11   6    -0.01   0.01  -0.17     0.06  -0.00   0.17    -0.05  -0.07  -0.10
  12   9     0.04   0.01  -0.00     0.01  -0.00  -0.14     0.49   0.16  -0.02
  13   6    -0.01   0.03  -0.19     0.09   0.07   0.21    -0.05  -0.07  -0.10
  14   9     0.07   0.07   0.44    -0.19   0.28  -0.01    -0.45   0.18   0.06
  15   1    -0.04   0.01  -0.02    -0.12  -0.06  -0.16     0.02  -0.03   0.04
  16   1    -0.01   0.03  -0.09    -0.13   0.08  -0.06     0.03  -0.00   0.01
  17   1    -0.10  -0.06  -0.10    -0.08  -0.06  -0.11     0.00   0.02   0.02
  18   1    -0.08  -0.08   0.11     0.01  -0.04   0.04     0.05   0.02  -0.02
  19   1    -0.16   0.02   0.03     0.01  -0.03   0.04     0.07  -0.02   0.00
  20   1     0.05  -0.06  -0.03     0.04  -0.15  -0.02     0.04  -0.02   0.00
  21   1    -0.02  -0.05   0.00    -0.06  -0.13   0.08     0.03  -0.02   0.02
                     10                     11                     12
                        a                      a                      a 
 Frequencies --   247.6624               276.1461               293.1190
 Red. masses --    18.5097                13.3467                17.1265
 Frc consts  --     0.0000                 0.0000                 0.0000
 IR Inten    --     0.0534                 6.1654                 3.1483
 Raman Activ --     0.0000                 0.0000                 0.0000
 Depolar     --     0.0000                 0.0000                 0.0000
 Atom AN      X      Y      Z        X      Y      Z        X      Y      Z
   1   7     0.03   0.03   0.06    -0.00  -0.01   0.03    -0.08  -0.02  -0.05
   2   6     0.07   0.04  -0.03     0.36  -0.02  -0.02     0.11  -0.05   0.00
   3   6     0.03  -0.01   0.00     0.12  -0.24   0.18     0.05  -0.12   0.07
   4   6     0.01  -0.00  -0.03     0.07  -0.00   0.04     0.04   0.08   0.02
   5   6    -0.05   0.05  -0.03    -0.02  -0.01  -0.12     0.03   0.11  -0.04
   6   9    -0.23  -0.02   0.08     0.16   0.06  -0.06    -0.43  -0.06   0.10
   7   6    -0.07  -0.04  -0.03    -0.05  -0.03  -0.18     0.08   0.17  -0.08
   8   9     0.35  -0.35  -0.03    -0.34   0.22   0.21     0.28   0.13  -0.03
   9   6    -0.04  -0.03  -0.04     0.00  -0.02  -0.21     0.01   0.09  -0.07
  10   9     0.04   0.65   0.01     0.10   0.04   0.10    -0.01  -0.47   0.05
  11   6     0.03  -0.07  -0.06    -0.01  -0.05  -0.20    -0.05   0.17  -0.04
  12   9    -0.32  -0.27   0.12    -0.16  -0.18   0.20    -0.35   0.09   0.11
  13   6     0.03   0.02  -0.06     0.01   0.01  -0.15     0.00   0.11  -0.03
  14   9     0.11  -0.01  -0.00    -0.20   0.20   0.03     0.36  -0.08  -0.05
  15   1     0.00   0.00   0.00    -0.05  -0.06  -0.07    -0.05  -0.03  -0.07
  16   1    -0.01  -0.01   0.03    -0.08   0.03   0.06    -0.07   0.03   0.02
  17   1     0.03   0.02   0.04     0.03   0.03   0.05    -0.00  -0.01  -0.00
  18   1     0.02   0.03  -0.03     0.12   0.08  -0.09     0.04   0.02  -0.02
  19   1     0.04  -0.00  -0.01     0.22  -0.05   0.01     0.07  -0.02   0.01
  20   1     0.00  -0.02  -0.01     0.05  -0.14  -0.02     0.04  -0.09  -0.02
  21   1     0.01  -0.01   0.02     0.00  -0.11   0.13    -0.03  -0.07   0.07
                     13                     14                     15
                        a                      a                      a 
 Frequencies --   323.4957               382.6526               403.7217
 Red. masses --    16.2683                10.6637                14.7018
 Frc consts  --     0.0000                 0.0000                 0.0000
 IR Inten    --    10.6429                17.3422                 0.7755
 Raman Activ --     0.0000                 0.0000                 0.0000
 Depolar     --     0.0000                 0.0000                 0.0000
 Atom AN      X      Y      Z        X      Y      Z        X      Y      Z
   1   7     0.01  -0.00  -0.01     0.15   0.11   0.24     0.02   0.01   0.03
   2   6    -0.11  -0.01   0.04    -0.07   0.17  -0.11    -0.13   0.05  -0.08
   3   6     0.13   0.12  -0.16    -0.02  -0.33  -0.13    -0.24   0.02   0.04
   4   6     0.11  -0.03  -0.15    -0.03   0.04  -0.32    -0.13   0.08   0.22
   5   6     0.12  -0.07   0.01    -0.10   0.13  -0.06    -0.14  -0.01  -0.07
   6   9    -0.35  -0.35   0.13    -0.04   0.23   0.05    -0.15   0.00   0.07
   7   6     0.15   0.01   0.08    -0.05  -0.02   0.18    -0.16  -0.20  -0.25
   8   9    -0.15   0.25  -0.04    -0.11  -0.07  -0.06    -0.09  -0.30   0.16
   9   6     0.21  -0.02   0.08     0.02  -0.02   0.27     0.14  -0.08  -0.25
  10   9     0.26  -0.00  -0.12    -0.10  -0.14  -0.10     0.29  -0.15   0.04
  11   6     0.14  -0.04   0.08     0.10  -0.08   0.17     0.12   0.02   0.00
  12   9    -0.18  -0.23  -0.02     0.02  -0.13  -0.09     0.15   0.03  -0.06
  13   6     0.12   0.01   0.01     0.09   0.07  -0.11     0.16   0.21   0.25
  14   9    -0.27   0.32   0.07     0.10   0.13   0.03     0.12   0.34  -0.12
  15   1     0.02   0.01   0.05     0.07   0.07   0.12     0.02   0.03   0.02
  16   1     0.05  -0.00  -0.03     0.06  -0.11   0.06     0.01  -0.05   0.01
  17   1    -0.03  -0.01  -0.03     0.08   0.08   0.13     0.03   0.01   0.03
  18   1    -0.03  -0.05   0.09    -0.02   0.05  -0.03    -0.05   0.01  -0.05
  19   1    -0.11   0.03  -0.01    -0.01   0.04  -0.03    -0.02   0.01  -0.02
  20   1     0.04   0.08   0.00     0.05  -0.26  -0.17    -0.10  -0.00  -0.01
  21   1     0.06   0.06  -0.09    -0.02  -0.19   0.17    -0.08   0.00   0.02
                     16                     17                     18
                        a                      a                      a 
 Frequencies --   410.7569               417.3999               472.6886
 Red. masses --    13.2211                14.1722                12.2627
 Frc consts  --     0.0000                 0.0000                 0.0000
 IR Inten    --     0.3611                 2.1881                 0.9386
 Raman Activ --     0.0000                 0.0000                 0.0000
 Depolar     --     0.0000                 0.0000                 0.0000
 Atom AN      X      Y      Z        X      Y      Z        X      Y      Z
   1   7     0.04   0.02   0.06    -0.07  -0.03  -0.10    -0.03  -0.05  -0.09
   2   6    -0.08   0.06  -0.07     0.06  -0.07   0.08     0.24  -0.10   0.12
   3   6    -0.19  -0.10   0.04     0.13   0.22  -0.01     0.02   0.15   0.22
   4   6    -0.13   0.00   0.11     0.11   0.08   0.04    -0.14   0.03  -0.17
   5   6     0.08  -0.10   0.39    -0.05   0.22   0.24    -0.13  -0.06  -0.30
   6   9    -0.02  -0.17  -0.17    -0.20   0.30  -0.06    -0.02  -0.04   0.10
   7   6     0.10  -0.06   0.32    -0.10  -0.06   0.21    -0.06  -0.15   0.09
   8   9     0.02  -0.12  -0.16    -0.23  -0.09  -0.03    -0.13  -0.27   0.02
   9   6     0.14   0.01  -0.06    -0.09  -0.08  -0.01     0.18  -0.02   0.35
  10   9     0.22   0.00  -0.04    -0.13  -0.13   0.05     0.13  -0.02  -0.18
  11   6    -0.09   0.13  -0.36     0.07  -0.21  -0.24    -0.00   0.12   0.17
  12   9     0.02   0.19   0.16     0.18  -0.32   0.06    -0.03   0.24  -0.05
  13   6    -0.12   0.07  -0.37     0.11   0.07  -0.22    -0.11   0.08  -0.29
  14   9    -0.04   0.08   0.13     0.25   0.10   0.02     0.04   0.05   0.06
  15   1     0.03   0.03   0.04    -0.04  -0.03  -0.06    -0.05  -0.07  -0.09
  16   1     0.02  -0.05   0.02    -0.03   0.07  -0.03    -0.05   0.11  -0.01
  17   1     0.03   0.02   0.04    -0.04  -0.04  -0.06    -0.03  -0.04  -0.06
  18   1    -0.03   0.02  -0.06     0.02  -0.03   0.05     0.07   0.02  -0.06
  19   1     0.01   0.01  -0.01    -0.02  -0.01   0.01     0.16  -0.06   0.05
  20   1    -0.06  -0.08  -0.04     0.02   0.16   0.09     0.03   0.11   0.13
  21   1    -0.07  -0.06   0.08     0.05   0.12  -0.12     0.02   0.09  -0.03
                     19                     20                     21
                        a                      a                      a 
 Frequencies --   566.3471               569.2865               586.5235
 Red. masses --    17.1402                14.3092                12.3531
 Frc consts  --     0.0000                 0.0000                 0.0000
 IR Inten    --     1.3538                 1.4149                 0.0327
 Raman Activ --     0.0000                 0.0000                 0.0000
 Depolar     --     0.0000                 0.0000                 0.0000
 Atom AN      X      Y      Z        X      Y      Z        X      Y      Z
   1   7     0.00   0.01   0.01    -0.01  -0.02  -0.01     0.00   0.00  -0.01
   2   6     0.03  -0.00   0.02    -0.11   0.02  -0.06    -0.01   0.00  -0.00
   3   6     0.12  -0.02  -0.08    -0.30   0.04   0.17    -0.03  -0.01   0.03
   4   6     0.08  -0.01  -0.08    -0.09   0.02   0.32    -0.02  -0.01   0.00
   5   6    -0.07   0.21   0.11    -0.06   0.07  -0.14    -0.11  -0.01  -0.45
   6   9    -0.20   0.45   0.00    -0.07   0.18   0.04     0.01   0.05   0.11
   7   6    -0.03  -0.05   0.05     0.05   0.13  -0.21     0.10   0.03   0.39
   8   9    -0.08  -0.10   0.01     0.22   0.31  -0.01     0.00   0.03  -0.10
   9   6     0.17  -0.02  -0.19     0.14  -0.00   0.30     0.05   0.01   0.15
  10   9     0.47  -0.04  -0.06     0.17  -0.02  -0.13     0.03  -0.01  -0.04
  11   6    -0.02   0.06   0.06     0.07  -0.15  -0.02    -0.12  -0.01  -0.57
  12   9    -0.06   0.12  -0.00     0.15  -0.34  -0.03     0.04  -0.03   0.12
  13   6    -0.11  -0.20   0.12    -0.09  -0.06  -0.25     0.08  -0.02   0.45
  14   9    -0.28  -0.40   0.03    -0.10  -0.16   0.06    -0.03  -0.02  -0.07
  15   1    -0.00  -0.00   0.01     0.01   0.02   0.01     0.00   0.00  -0.00
  16   1     0.00   0.01   0.00     0.00  -0.04  -0.01    -0.00  -0.00  -0.00
  17   1    -0.01   0.01   0.00     0.02  -0.01   0.00     0.00   0.00  -0.00
  18   1     0.01  -0.01   0.05    -0.05   0.02  -0.10    -0.00   0.00  -0.01
  19   1    -0.03   0.01  -0.00     0.03  -0.01  -0.00     0.01  -0.00   0.00
  20   1     0.04  -0.01  -0.02    -0.13   0.02   0.04    -0.01  -0.00   0.01
  21   1     0.03  -0.01  -0.01    -0.10   0.02   0.04    -0.01  -0.00   0.01
                     22                     23                     24
                        a                      a                      a 
 Frequencies --   612.9673               651.4884               691.8648
 Red. masses --    12.1255                11.4172                11.7959
 Frc consts  --     0.0000                 0.0000                 0.0000
 IR Inten    --     0.7173                 1.5079                 1.3724
 Raman Activ --     0.0000                 0.0000                 0.0000
 Depolar     --     0.0000                 0.0000                 0.0000
 Atom AN      X      Y      Z        X      Y      Z        X      Y      Z
   1   7     0.00  -0.01  -0.02     0.02  -0.01  -0.01    -0.01  -0.05  -0.01
   2   6     0.03  -0.02   0.04     0.07  -0.03   0.08    -0.00   0.01  -0.02
   3   6    -0.19   0.05   0.19    -0.17   0.05   0.19     0.03   0.09  -0.00
   4   6    -0.18   0.02  -0.15    -0.28   0.03  -0.58     0.06   0.40   0.04
   5   6    -0.05  -0.03  -0.17     0.08   0.01   0.41     0.31   0.14  -0.11
   6   9     0.00  -0.01   0.01    -0.02  -0.00  -0.05    -0.13  -0.11   0.04
   7   6     0.15   0.07   0.47    -0.02   0.02  -0.23     0.26  -0.20  -0.04
   8   9     0.09   0.14  -0.12     0.07   0.11   0.00    -0.16   0.04   0.03
   9   6    -0.11  -0.02  -0.54     0.04  -0.03   0.13    -0.03  -0.33   0.01
  10   9     0.05   0.00   0.09     0.06   0.01  -0.02     0.01   0.15  -0.01
  11   6     0.10  -0.07   0.35    -0.05  -0.06  -0.15    -0.29  -0.15   0.06
  12   9     0.08  -0.16  -0.08     0.09  -0.12  -0.01     0.16   0.02  -0.03
  13   6    -0.03   0.03  -0.04     0.00   0.04   0.32    -0.29   0.20   0.06
  14   9     0.00  -0.00  -0.02     0.01  -0.02  -0.03     0.10  -0.13  -0.02
  15   1    -0.01  -0.00  -0.03    -0.01  -0.01  -0.04    -0.01  -0.03  -0.01
  16   1    -0.01   0.03   0.00    -0.01   0.06   0.00    -0.01  -0.00  -0.00
  17   1     0.00  -0.02  -0.02     0.00  -0.04  -0.03    -0.01  -0.01  -0.00
  18   1    -0.00   0.04  -0.12     0.01   0.06  -0.15    -0.01  -0.03   0.02
  19   1     0.13  -0.04   0.04     0.18  -0.06   0.06    -0.05   0.01  -0.02
  20   1    -0.03   0.02   0.07     0.03   0.02   0.08     0.11  -0.15  -0.13
  21   1    -0.05   0.02   0.04    -0.03   0.02   0.04    -0.12  -0.08   0.17
                     25                     26                     27
                        a                      a                      a 
 Frequencies --   822.2003               857.4484               880.7026
 Red. masses --     3.3577                 9.1487                 5.0056
 Frc consts  --     0.0000                 0.0000                 0.0000
 IR Inten    --    90.5664                13.2149                51.5478
 Raman Activ --     0.0000                 0.0000                 0.0000
 Depolar     --     0.0000                 0.0000                 0.0000
 Atom AN      X      Y      Z        X      Y      Z        X      Y      Z
   1   7     0.18   0.04  -0.03    -0.06  -0.39  -0.18     0.06   0.01   0.28
   2   6     0.24  -0.01  -0.03    -0.09   0.32  -0.09     0.11  -0.07   0.10
   3   6    -0.08   0.04  -0.05     0.12   0.39   0.28    -0.04   0.19  -0.29
   4   6    -0.17   0.00  -0.02     0.07   0.00  -0.06    -0.07   0.05   0.07
   5   6    -0.11  -0.06   0.04    -0.02   0.00   0.02    -0.11  -0.03   0.01
   6   9     0.04  -0.02  -0.01     0.04  -0.06  -0.01     0.06  -0.08  -0.01
   7   6    -0.07   0.04   0.02    -0.08   0.07   0.02    -0.12   0.08   0.02
   8   9     0.07   0.05  -0.02    -0.04  -0.11   0.01     0.03  -0.02  -0.00
   9   6     0.00   0.04  -0.00     0.02   0.17  -0.01     0.00   0.13  -0.00
  10   9     0.07  -0.02  -0.01    -0.04  -0.04   0.01     0.06  -0.04  -0.01
  11   6    -0.02  -0.00   0.01     0.15   0.07  -0.03     0.03   0.04  -0.01
  12   9     0.05  -0.09  -0.01    -0.03  -0.05   0.01     0.04  -0.11  -0.01
  13   6    -0.06   0.05   0.02     0.11  -0.07  -0.00    -0.03   0.03   0.01
  14   9     0.01   0.01   0.00    -0.08  -0.06   0.01    -0.02  -0.03   0.00
  15   1    -0.17  -0.48  -0.07    -0.01  -0.11  -0.02    -0.01   0.07  -0.14
  16   1    -0.14   0.13   0.12    -0.02  -0.18  -0.04     0.04   0.49   0.01
  17   1    -0.13   0.34   0.16    -0.00  -0.04   0.00    -0.06  -0.36  -0.26
  18   1    -0.00  -0.34   0.25    -0.06   0.01  -0.04     0.06   0.03   0.05
  19   1    -0.27   0.25   0.04    -0.08   0.06  -0.07    -0.04  -0.18  -0.13
  20   1    -0.05  -0.04  -0.07     0.07  -0.16  -0.17    -0.02  -0.16  -0.28
  21   1    -0.06  -0.01   0.03     0.05  -0.05   0.43    -0.09  -0.08   0.17
                     28                     29                     30
                        a                      a                      a 
 Frequencies --   949.7069               955.8243              1022.2316
 Red. masses --    12.6039                10.6731                10.7352
 Frc consts  --     0.0000                 0.0000                 0.0000
 IR Inten    --   109.8856                79.1143               117.8761
 Raman Activ --     0.0000                 0.0000                 0.0000
 Depolar     --     0.0000                 0.0000                 0.0000
 Atom AN      X      Y      Z        X      Y      Z        X      Y      Z
   1   7    -0.02  -0.28  -0.00    -0.16  -0.00  -0.10    -0.03   0.33   0.05
   2   6     0.08   0.33   0.06     0.15  -0.00   0.02    -0.11  -0.47  -0.33
   3   6     0.09  -0.04  -0.05     0.26  -0.05  -0.07     0.20   0.26   0.25
   4   6    -0.11  -0.28   0.02    -0.15   0.15   0.03     0.01  -0.13  -0.02
   5   6    -0.16  -0.16   0.05    -0.24   0.00   0.05    -0.15  -0.08   0.04
   6   9    -0.05   0.20   0.00     0.13  -0.21  -0.02     0.00   0.05  -0.01
   7   6     0.01  -0.14   0.00    -0.27   0.17   0.05    -0.08  -0.06   0.02
   8   9     0.16   0.26  -0.04     0.07   0.01  -0.02     0.09   0.13  -0.03
   9   6    -0.06  -0.32   0.02    -0.08   0.15   0.02    -0.07  -0.14   0.02
  10   9     0.11   0.05  -0.03     0.26  -0.05  -0.06     0.09   0.01  -0.02
  11   6    -0.23  -0.17   0.05    -0.19   0.01   0.04    -0.08  -0.13   0.02
  12   9    -0.02   0.18   0.00     0.13  -0.22  -0.03    -0.04   0.12   0.01
  13   6    -0.08  -0.07   0.00    -0.26   0.19   0.06     0.04  -0.10  -0.01
  14   9     0.17   0.25  -0.03     0.05  -0.02  -0.01     0.08   0.12  -0.01
  15   1     0.01  -0.02  -0.04     0.09   0.22   0.12     0.02   0.12   0.04
  16   1     0.03   0.01  -0.03     0.06  -0.32  -0.07     0.01   0.01   0.00
  17   1    -0.02  -0.17  -0.09     0.09   0.00   0.05     0.01   0.10   0.04
  18   1     0.04   0.07   0.11     0.11   0.08   0.18    -0.03  -0.13  -0.06
  19   1    -0.06   0.04  -0.06    -0.03   0.02  -0.01    -0.12  -0.13  -0.13
  20   1    -0.16   0.02  -0.05     0.13   0.01   0.02     0.13  -0.09  -0.06
  21   1     0.21   0.00   0.03     0.01   0.00  -0.07     0.03  -0.02   0.24
                     31                     32                     33
                        a                      a                      a 
 Frequencies --  1036.3556              1087.9957              1122.4831
 Red. masses --     7.7293                 8.1948                12.5400
 Frc consts  --     0.0000                 0.0000                 0.0000
 IR Inten    --    93.3650                43.8884                21.1127
 Raman Activ --     0.0000                 0.0000                 0.0000
 Depolar     --     0.0000                 0.0000                 0.0000
 Atom AN      X      Y      Z        X      Y      Z        X      Y      Z
   1   7     0.22  -0.04   0.01     0.00   0.02  -0.16    -0.05  -0.03   0.04
   2   6    -0.41   0.09   0.03     0.02  -0.08   0.41     0.13   0.07  -0.03
   3   6     0.17  -0.09  -0.05    -0.09   0.25  -0.36    -0.25  -0.02   0.11
   4   6     0.17   0.01   0.06    -0.01   0.00   0.08     0.25   0.11  -0.12
   5   6    -0.08   0.08   0.01    -0.18  -0.06   0.03    -0.03   0.31  -0.01
   6   9     0.08  -0.12  -0.01     0.01   0.00  -0.00     0.11  -0.24  -0.01
   7   6    -0.16   0.14   0.03    -0.08  -0.15   0.02    -0.16   0.12   0.04
   8   9     0.00  -0.02   0.00     0.10   0.15  -0.03    -0.01   0.01   0.00
   9   6    -0.17   0.05   0.04     0.02  -0.13  -0.00    -0.35  -0.08   0.08
  10   9     0.23  -0.03  -0.05    -0.03   0.01   0.01     0.27  -0.03  -0.06
  11   6    -0.19  -0.06   0.04     0.08  -0.13  -0.02     0.05  -0.36  -0.01
  12   9     0.03  -0.04  -0.01    -0.07   0.15   0.01    -0.12   0.26   0.02
  13   6    -0.13  -0.02   0.01     0.16  -0.05  -0.04     0.23  -0.09  -0.04
  14   9     0.08   0.08  -0.01    -0.03  -0.02   0.01    -0.01  -0.03   0.00
  15   1    -0.09  -0.28  -0.12     0.01  -0.05   0.06     0.01   0.06   0.01
  16   1    -0.07   0.20   0.08    -0.03  -0.19  -0.00     0.02   0.02  -0.01
  17   1    -0.08   0.09   0.01     0.04   0.17   0.11     0.01  -0.07  -0.03
  18   1    -0.19   0.06  -0.38     0.00   0.09  -0.09     0.02  -0.07   0.07
  19   1     0.20  -0.04   0.09     0.26  -0.03   0.22    -0.08   0.07  -0.02
  20   1     0.17   0.03   0.08     0.25  -0.11  -0.17    -0.16   0.04   0.03
  21   1     0.15   0.00  -0.03    -0.25  -0.05   0.07    -0.19   0.02  -0.06
                     34                     35                     36
                        a                      a                      a 
 Frequencies --  1130.1252              1199.4592              1229.8133
 Red. masses --    12.9696                 3.8909                11.5860
 Frc consts  --     0.0000                 0.0000                 0.0000
 IR Inten    --     7.3520                11.9545                16.9202
 Raman Activ --     0.0000                 0.0000                 0.0000
 Depolar     --     0.0000                 0.0000                 0.0000
 Atom AN      X      Y      Z        X      Y      Z        X      Y      Z
   1   7    -0.04   0.05  -0.05     0.07   0.09  -0.16     0.06  -0.01  -0.03
   2   6     0.09  -0.11   0.15    -0.06  -0.17   0.23    -0.07   0.02  -0.03
   3   6    -0.19   0.13  -0.08    -0.02   0.00  -0.06     0.10  -0.04  -0.02
   4   6     0.12  -0.23  -0.03    -0.00   0.01  -0.02    -0.34   0.06   0.10
   5   6     0.25  -0.15  -0.05     0.06   0.19  -0.02     0.11  -0.32  -0.01
   6   9    -0.07   0.17   0.01     0.03  -0.10  -0.00    -0.07   0.15   0.01
   7   6     0.21   0.32  -0.06    -0.07   0.02   0.02     0.21   0.25  -0.06
   8   9    -0.17  -0.25   0.05    -0.00   0.01   0.00    -0.08  -0.12   0.02
   9   6    -0.22   0.18   0.05    -0.01  -0.07   0.00    -0.30   0.03   0.07
  10   9     0.18  -0.01  -0.04     0.00  -0.00  -0.00     0.13  -0.01  -0.03
  11   6    -0.23   0.03   0.05     0.08  -0.00  -0.02     0.18  -0.32  -0.04
  12   9     0.04  -0.10  -0.01    -0.00   0.02   0.00    -0.07   0.16   0.01
  13   6    -0.15  -0.27   0.02    -0.02   0.17   0.01     0.20   0.29  -0.03
  14   9     0.17   0.25  -0.03    -0.05  -0.08   0.01    -0.11  -0.15   0.02
  15   1     0.02   0.05   0.04    -0.01  -0.09   0.05    -0.00  -0.06   0.00
  16   1     0.01  -0.12  -0.02    -0.05  -0.09   0.02    -0.03   0.04   0.02
  17   1     0.02   0.07   0.05     0.02   0.16   0.08    -0.00   0.03   0.00
  18   1     0.02  -0.02   0.01     0.05   0.14   0.04     0.07   0.16   0.11
  19   1     0.06  -0.01   0.07     0.02  -0.29  -0.11    -0.03  -0.10  -0.09
  20   1    -0.11  -0.05  -0.12    -0.54   0.01  -0.18     0.21  -0.01   0.05
  21   1    -0.08  -0.03   0.09     0.47  -0.01   0.18     0.10   0.01  -0.02
                     37                     38                     39
                        a                      a                      a 
 Frequencies --  1245.6042              1314.1476              1323.7285
 Red. masses --     3.1327                10.7286                 4.4943
 Frc consts  --     0.0000                 0.0000                 0.0000
 IR Inten    --    37.9688                 8.8719                38.2834
 Raman Activ --     0.0000                 0.0000                 0.0000
 Depolar     --     0.0000                 0.0000                 0.0000
 Atom AN      X      Y      Z        X      Y      Z        X      Y      Z
   1   7    -0.19  -0.01   0.11    -0.03   0.06  -0.01    -0.06   0.17  -0.01
   2   6     0.13  -0.08  -0.06     0.04   0.04   0.09     0.12   0.18   0.24
   3   6     0.02   0.03  -0.13     0.09  -0.05   0.01     0.23  -0.05   0.06
   4   6    -0.09  -0.01   0.05    -0.00   0.36  -0.02    -0.05  -0.11  -0.01
   5   6     0.06  -0.03  -0.01    -0.35  -0.13   0.08     0.11  -0.07  -0.02
   6   9    -0.01   0.01   0.00    -0.01  -0.01   0.00    -0.01   0.04   0.00
   7   6    -0.01   0.08  -0.00     0.36  -0.19  -0.07    -0.09   0.10   0.02
   8   9    -0.01  -0.02   0.00    -0.01  -0.03   0.00    -0.00  -0.00   0.00
   9   6    -0.06  -0.05   0.02     0.03   0.37  -0.02    -0.03  -0.12   0.01
  10   9     0.02  -0.01  -0.01    -0.00   0.01   0.00     0.01  -0.00  -0.00
  11   6     0.09  -0.06  -0.02    -0.35  -0.15   0.08     0.14   0.01  -0.03
  12   9    -0.01   0.04   0.00     0.00  -0.02  -0.00    -0.00   0.02  -0.00
  13   6     0.00   0.18   0.01     0.32  -0.13  -0.07    -0.09   0.12   0.02
  14   9    -0.05  -0.07   0.01    -0.01  -0.04   0.00    -0.01  -0.02   0.00
  15   1     0.02   0.17   0.03    -0.02  -0.03   0.03    -0.07  -0.11   0.01
  16   1     0.06   0.00  -0.05     0.00  -0.05  -0.00     0.03  -0.20  -0.02
  17   1     0.04  -0.13  -0.02     0.04  -0.04  -0.02     0.05  -0.10  -0.07
  18   1    -0.18  -0.42  -0.28    -0.09  -0.15  -0.15    -0.22  -0.34  -0.38
  19   1     0.16   0.40   0.36    -0.03  -0.07  -0.06    -0.17  -0.26  -0.27
  20   1    -0.08  -0.01  -0.08    -0.20   0.02  -0.05    -0.11  -0.05  -0.07
  21   1     0.37  -0.00   0.12     0.07   0.01  -0.03    -0.30   0.01  -0.17
                     40                     41                     42
                        a                      a                      a 
 Frequencies --  1342.3437              1379.6979              1416.9465
 Red. masses --     4.2870                 2.9081                 2.0133
 Frc consts  --     0.0000                 0.0000                 0.0000
 IR Inten    --     7.4505               204.5278                86.5124
 Raman Activ --     0.0000                 0.0000                 0.0000
 Depolar     --     0.0000                 0.0000                 0.0000
 Atom AN      X      Y      Z        X      Y      Z        X      Y      Z
   1   7     0.05  -0.07   0.03     0.06   0.32   0.15    -0.07   0.08  -0.18
   2   6    -0.20  -0.10  -0.09    -0.07  -0.05  -0.10    -0.02  -0.01  -0.06
   3   6     0.42   0.05   0.14    -0.05   0.03   0.00    -0.00   0.01   0.00
   4   6    -0.06   0.00  -0.05     0.01   0.01  -0.00     0.08  -0.07  -0.02
   5   6     0.00  -0.08   0.00     0.01   0.01  -0.00    -0.00  -0.04   0.00
   6   9    -0.01   0.03   0.00     0.00  -0.01   0.00    -0.00   0.02  -0.00
   7   6     0.01   0.03   0.00    -0.01  -0.03   0.00    -0.03   0.01   0.01
   8   9    -0.00  -0.00  -0.00     0.00   0.01  -0.00     0.01   0.01  -0.00
   9   6    -0.01  -0.01   0.00    -0.02   0.01   0.00    -0.01  -0.04   0.00
  10   9     0.00  -0.00  -0.00     0.01  -0.00  -0.00     0.01   0.00  -0.00
  11   6     0.04  -0.03  -0.00    -0.01   0.02   0.00    -0.08   0.06   0.02
  12   9    -0.00   0.01   0.00     0.00  -0.00   0.00     0.02  -0.03  -0.00
  13   6     0.00   0.07   0.00     0.02  -0.01  -0.00     0.03   0.09  -0.01
  14   9    -0.02  -0.02   0.00    -0.00  -0.00   0.00    -0.01  -0.02   0.00
  15   1     0.02   0.03  -0.03    -0.23  -0.42  -0.18     0.04  -0.29   0.63
  16   1    -0.03   0.06   0.03     0.08  -0.50  -0.00    -0.22   0.23   0.12
  17   1    -0.06   0.03   0.01    -0.01  -0.39  -0.32     0.46  -0.30  -0.01
  18   1     0.05   0.16   0.07     0.07   0.09   0.17     0.02   0.03   0.03
  19   1     0.19   0.21   0.26     0.13   0.09   0.12     0.02   0.06   0.04
  20   1    -0.48  -0.08  -0.26     0.02  -0.01  -0.01    -0.01   0.03   0.03
  21   1    -0.41   0.03  -0.19     0.06   0.01   0.02    -0.06  -0.02   0.04
                     43                     44                     45
                        a                      a                      a 
 Frequencies --  1418.2547              1446.3312              1466.0723
 Red. masses --     1.5996                12.2846                 2.5987
 Frc consts  --     0.0000                 0.0000                 0.0000
 IR Inten    --    74.9903                31.4387                20.9457
 Raman Activ --     0.0000                 0.0000                 0.0000
 Depolar     --     0.0000                 0.0000                 0.0000
 Atom AN      X      Y      Z        X      Y      Z        X      Y      Z
   1   7    -0.19  -0.01   0.07    -0.01   0.02  -0.02     0.02   0.01   0.02
   2   6    -0.05  -0.01   0.00    -0.02   0.03  -0.03    -0.02   0.02  -0.04
   3   6     0.03  -0.00  -0.01     0.17   0.00  -0.04     0.13  -0.06  -0.22
   4   6     0.00  -0.00  -0.00    -0.44  -0.05   0.11     0.05   0.04  -0.03
   5   6    -0.00  -0.00   0.00    -0.13   0.48   0.01    -0.02  -0.11   0.01
   6   9    -0.00   0.00  -0.00     0.07  -0.17  -0.01    -0.01   0.03  -0.00
   7   6     0.00   0.00  -0.00     0.28   0.24  -0.07    -0.02   0.07   0.00
   8   9    -0.00  -0.00  -0.00    -0.10  -0.12   0.02    -0.00  -0.02   0.00
   9   6    -0.00  -0.00   0.00     0.19  -0.09  -0.04     0.10   0.02  -0.02
  10   9     0.00   0.00  -0.00    -0.09   0.01   0.02    -0.04   0.00   0.01
  11   6     0.00   0.00  -0.00     0.13  -0.16  -0.03     0.05  -0.13  -0.01
  12   9     0.00  -0.00  -0.00    -0.05   0.09   0.01    -0.02   0.04   0.00
  13   6     0.00   0.01   0.00    -0.11  -0.35   0.02    -0.09   0.04   0.02
  14   9    -0.00  -0.00   0.00     0.08   0.13  -0.01     0.01   0.00  -0.00
  15   1    -0.17  -0.22  -0.22    -0.00  -0.05   0.08    -0.00   0.02  -0.04
  16   1     0.54   0.18  -0.41    -0.02   0.02   0.01    -0.02  -0.04   0.02
  17   1     0.46   0.06   0.32     0.07  -0.05  -0.00    -0.07   0.01  -0.03
  18   1     0.02   0.06   0.03    -0.02  -0.08   0.06    -0.02  -0.08   0.05
  19   1     0.01  -0.02   0.00     0.09  -0.04   0.01     0.07  -0.04   0.00
  20   1    -0.03   0.03   0.02     0.06  -0.01  -0.01    -0.18   0.49   0.39
  21   1    -0.04  -0.02   0.03     0.01  -0.01  -0.01    -0.26  -0.29   0.51
                     46                     47                     48
                        a                      a                      a 
 Frequencies --  1470.9707              1478.6582              1480.6599
 Red. masses --     2.2529                11.8744                12.0617
 Frc consts  --     0.0000                 0.0000                 0.0000
 IR Inten    --    20.8688               336.3949               296.3097
 Raman Activ --     0.0000                 0.0000                 0.0000
 Depolar     --     0.0000                 0.0000                 0.0000
 Atom AN      X      Y      Z        X      Y      Z        X      Y      Z
   1   7     0.01   0.00   0.02     0.01  -0.01   0.01    -0.01   0.01  -0.02
   2   6     0.13  -0.20   0.12     0.00   0.01   0.00     0.01  -0.02   0.02
   3   6     0.03  -0.01  -0.04     0.10   0.02  -0.07     0.10  -0.05  -0.04
   4   6    -0.03  -0.03   0.01    -0.18  -0.20   0.04    -0.26   0.23   0.06
   5   6    -0.07   0.06   0.01    -0.07   0.25   0.01     0.31   0.00  -0.07
   6   9     0.02  -0.03  -0.00     0.02  -0.06  -0.00    -0.05   0.04   0.01
   7   6     0.07   0.09  -0.02     0.23  -0.15  -0.05    -0.16  -0.46   0.05
   8   9    -0.02  -0.03   0.01    -0.01   0.02   0.00     0.08   0.13  -0.02
   9   6     0.07  -0.04  -0.01    -0.44  -0.20   0.10    -0.31   0.30   0.06
  10   9    -0.03   0.01   0.01     0.14   0.00  -0.03     0.10  -0.03  -0.02
  11   6    -0.00  -0.04   0.00    -0.09   0.53   0.01     0.28   0.01  -0.06
  12   9    -0.00   0.02   0.00     0.07  -0.17  -0.01    -0.03   0.01   0.01
  13   6    -0.01   0.00   0.00     0.32   0.07  -0.06    -0.17  -0.37   0.03
  14   9     0.00   0.00  -0.00    -0.08  -0.07   0.01     0.07   0.11  -0.01
  15   1    -0.02  -0.05  -0.03     0.01   0.04  -0.04     0.00  -0.03   0.08
  16   1     0.01  -0.05   0.00     0.00  -0.01   0.00    -0.02   0.02   0.01
  17   1    -0.01  -0.05  -0.03    -0.05   0.03  -0.00     0.06  -0.03   0.00
  18   1     0.09   0.48  -0.45    -0.01  -0.02  -0.01     0.00   0.05  -0.07
  19   1    -0.56   0.35   0.03     0.01  -0.00   0.00    -0.06   0.04   0.00
  20   1    -0.02   0.06   0.04     0.00   0.11   0.08    -0.04   0.04   0.02
  21   1    -0.02  -0.04   0.06    -0.11  -0.07   0.12     0.04  -0.02   0.03
                     49                     50                     51
                        a                      a                      a 
 Frequencies --  1568.4643              1580.2381              2912.5662
 Red. masses --    12.0057                11.9177                 1.9150
 Frc consts  --     0.0000                 0.0000                 0.0000
 IR Inten    --    19.0510                 0.8354                 3.9806
 Raman Activ --     0.0000                 0.0000                 0.0000
 Depolar     --     0.0000                 0.0000                 0.0000
 Atom AN      X      Y      Z        X      Y      Z        X      Y      Z
   1   7    -0.00   0.00  -0.00     0.00  -0.00   0.00     0.00  -0.00  -0.00
   2   6    -0.01  -0.00  -0.01     0.00   0.00  -0.00     0.03  -0.02   0.01
   3   6    -0.06   0.01   0.03     0.00   0.05  -0.00    -0.00   0.28   0.01
   4   6     0.30  -0.00  -0.07    -0.02  -0.54   0.02    -0.00   0.01   0.00
   5   6    -0.45  -0.07   0.10     0.10   0.31  -0.03     0.00  -0.00  -0.00
   6   9     0.02  -0.02  -0.00     0.01  -0.03  -0.00     0.00  -0.00  -0.00
   7   6     0.40  -0.12  -0.09     0.09  -0.31  -0.01    -0.00   0.00   0.00
   8   9    -0.02  -0.01   0.00     0.01   0.03  -0.00     0.00   0.00  -0.00
   9   6    -0.24   0.01   0.05     0.04   0.48  -0.02    -0.00  -0.00   0.00
  10   9     0.03  -0.00  -0.01    -0.00  -0.01   0.00     0.00  -0.00   0.00
  11   6     0.44   0.05  -0.10    -0.12  -0.31   0.03     0.00   0.00  -0.00
  12   9    -0.02   0.02   0.00    -0.01   0.03   0.00     0.00  -0.00   0.00
  13   6    -0.45   0.11   0.09    -0.07   0.37   0.02     0.00  -0.00   0.00
  14   9     0.03   0.03  -0.01    -0.02  -0.04   0.00    -0.00  -0.00  -0.00
  15   1     0.00  -0.01   0.02     0.00   0.01  -0.02     0.00  -0.00  -0.00
  16   1    -0.00   0.01   0.00     0.00  -0.00  -0.00    -0.00  -0.00  -0.00
  17   1     0.01  -0.01   0.00    -0.01   0.00  -0.00    -0.00  -0.00  -0.00
  18   1     0.00  -0.00   0.02    -0.00  -0.00   0.00    -0.13   0.05   0.04
  19   1     0.01  -0.00   0.00     0.00   0.00  -0.00     0.04   0.05  -0.07
  20   1    -0.00  -0.03  -0.02     0.06  -0.01   0.00    -0.10  -0.26   0.31
  21   1     0.02   0.02  -0.03    -0.09  -0.01   0.01     0.12  -0.76  -0.35
                     52                     53                     54
                        a                      a                      a 
 Frequencies --  2916.8543              2934.6054              2942.1065
 Red. masses --     1.9512                 1.5347                 1.6114
 Frc consts  --     0.0000                 0.0000                 0.0000
 IR Inten    --     0.1664                 1.1413                 1.7092
 Raman Activ --     0.0000                 0.0000                 0.0000
 Depolar     --     0.0000                 0.0000                 0.0000
 Atom AN      X      Y      Z        X      Y      Z        X      Y      Z
   1   7     0.00   0.00   0.00     0.00  -0.00   0.00     0.00   0.00   0.00
   2   6    -0.24  -0.01   0.15     0.07  -0.08   0.03    -0.02   0.15  -0.13
   3   6     0.01   0.03  -0.04     0.06   0.02  -0.18     0.03   0.06  -0.10
   4   6     0.00   0.00  -0.00     0.01   0.00  -0.00     0.00   0.00  -0.00
   5   6    -0.00   0.00  -0.00    -0.00  -0.00  -0.00    -0.00  -0.00  -0.00
   6   9    -0.00  -0.00   0.00    -0.00  -0.00   0.00     0.00  -0.00  -0.00
   7   6     0.00   0.00   0.00     0.00   0.00  -0.00    -0.00   0.00  -0.00
   8   9    -0.00  -0.00   0.00    -0.00  -0.00   0.00     0.00  -0.00  -0.00
   9   6     0.00  -0.00   0.00     0.00   0.00  -0.00    -0.00  -0.00  -0.00
  10   9    -0.00   0.00  -0.00    -0.00   0.00   0.00     0.00  -0.00   0.00
  11   6     0.00   0.00  -0.00     0.00  -0.00  -0.00     0.00   0.00  -0.00
  12   9    -0.00   0.00  -0.00    -0.00   0.00   0.00    -0.00  -0.00   0.00
  13   6     0.00   0.00   0.00    -0.00   0.00   0.00    -0.00   0.00   0.00
  14   9    -0.00  -0.00  -0.00    -0.00  -0.00  -0.00    -0.00  -0.00   0.00
  15   1    -0.01   0.01   0.00     0.01  -0.00  -0.00    -0.01   0.00   0.00
  16   1     0.00   0.00  -0.00    -0.00  -0.00  -0.00    -0.00   0.00  -0.00
  17   1    -0.00  -0.01   0.01    -0.00  -0.01   0.00     0.01   0.01  -0.01
  18   1     0.71  -0.27  -0.17    -0.37   0.13   0.10     0.35  -0.11  -0.11
  19   1     0.16   0.30  -0.39     0.11   0.15  -0.21    -0.28  -0.42   0.57
  20   1    -0.05  -0.15   0.15    -0.16  -0.49   0.48    -0.11  -0.31   0.32
  21   1    -0.00   0.03   0.01    -0.06   0.42   0.16    -0.01   0.09   0.02
                     55                     56                     57
                        a                      a                      a 
 Frequencies --  3263.6274              3268.6571              3285.0175
 Red. masses --     2.0476                 2.0317                 1.2910
 Frc consts  --     0.0000                 0.0000                 0.0000
 IR Inten    --   123.4358                95.4194                33.4815
 Raman Activ --     0.0000                 0.0000                 0.0000
 Depolar     --     0.0000                 0.0000                 0.0000
 Atom AN      X      Y      Z        X      Y      Z        X      Y      Z
   1   7    -0.28   0.02   0.03    -0.03   0.06  -0.27    -0.02  -0.15   0.00
   2   6    -0.01   0.00   0.00     0.00   0.00  -0.01    -0.00  -0.01  -0.00
   3   6     0.00   0.00  -0.00     0.00  -0.00   0.00     0.00   0.00  -0.00
   4   6     0.00   0.00   0.00    -0.00   0.00  -0.00    -0.00  -0.00   0.00
   5   6     0.00  -0.00  -0.00     0.00  -0.00  -0.00    -0.00  -0.00  -0.00
   6   9    -0.00   0.00   0.00     0.00  -0.00   0.00     0.00  -0.00  -0.00
   7   6    -0.00  -0.00   0.00    -0.00  -0.00  -0.00     0.00  -0.00   0.00
   8   9     0.00   0.00  -0.00     0.00   0.00   0.00     0.00   0.00  -0.00
   9   6    -0.00  -0.00   0.00    -0.00  -0.00  -0.00    -0.00   0.00   0.00
  10   9     0.00   0.00  -0.00     0.00  -0.00   0.00     0.00  -0.00  -0.00
  11   6     0.00   0.00  -0.00     0.00   0.00   0.00    -0.00   0.00   0.00
  12   9     0.00   0.00   0.00     0.00  -0.00  -0.00     0.00  -0.00  -0.00
  13   6    -0.00  -0.00  -0.00     0.00   0.00  -0.00     0.00   0.00  -0.00
  14   9     0.00   0.00   0.00     0.00  -0.00  -0.00    -0.00  -0.00   0.00
  15   1     0.72  -0.29  -0.19    -0.11   0.05   0.00    -0.49   0.18   0.12
  16   1     0.21   0.02   0.33     0.46   0.04   0.60     0.27   0.01   0.37
  17   1     0.12   0.21  -0.26    -0.24  -0.33   0.41     0.28   0.38  -0.51
  18   1     0.01  -0.00  -0.00     0.00  -0.00   0.00    -0.01   0.00   0.00
  19   1     0.00   0.00  -0.00    -0.00  -0.01   0.01     0.00   0.01  -0.01
  20   1    -0.00  -0.00   0.00    -0.00  -0.00   0.00    -0.00  -0.00   0.00
  21   1    -0.00  -0.00  -0.00    -0.00  -0.00  -0.00     0.00   0.00   0.00
