25
 energy: -27.780078062512 gnorm: 0.000503888089 xtb: 6.5.1 (fef0646)
N            3.01354459236508       -1.76585965798279       -3.45107955264312
C            2.38364896070642       -0.60298615188369       -2.76404705108041
C            2.86919020142442       -0.61354643497555       -1.30986907256781
C            4.37768539214350       -0.65609095548734       -1.30826667953302
C            5.03407166747020       -1.82169609627493       -1.31367067259818
C            6.52564062693765       -1.94268228554543       -1.35997650913163
C            7.21506077534782       -0.60298660849235       -1.11382316623349
C            6.51888779088266        0.49910325751149       -1.90393507010613
C            5.08588844858439        0.66098675077400       -1.40181738400299
H            3.10648015945131       -1.63445353718475       -4.46199507730857
H            2.49036400132777       -2.62988782028226       -3.27468904365851
H            3.97037007916448       -1.84397693505654       -2.97539829659277
H            1.29806047559537       -0.66555422570433       -2.82585250044998
H            2.71389476682930        0.31029820576433       -3.26003810667828
H            2.45656529049023       -1.47873441106122       -0.78922067075127
H            2.51179536697406        0.28421017145259       -0.80885755901422
H            4.50041941899343       -2.75646053585235       -1.17074316421415
H            6.82111218493525       -2.34246619520195       -2.33667872789935
H            6.84706375366604       -2.67327895176872       -0.61566221613617
H            8.26434902314460       -0.67063019643644       -1.39878972612083
H            7.17081273297334       -0.36217345496882       -0.05095785419857
H            6.51692200712740        0.24339041175754       -2.96664459262302
H            7.05513444352885        1.44032909179163       -1.79020552012629
H            4.53008986327615        1.34831269958246       -2.04420644799391
H            5.10063797666029        1.10790386552519       -0.40342533833711
