 Entering Gaussian System
 *********************************************
 Gaussian 98:
 frequency output generated by the xtb code
 *********************************************
                         Standard orientation:
 --------------------------------------------------------------------
  Center     Atomic     Atomic              Coordinates (Angstroms)
  Number     Number      Type              X           Y           Z
 --------------------------------------------------------------------
    1          7             0       -1.290810    1.928697   -0.095259
    2          6             0       -2.108570    1.330733    0.987095
    3          6             0       -2.436079   -0.110556    0.627189
    4          8             0       -1.303984   -0.773513    0.071726
    5          6             0       -0.183611   -0.842868    0.902002
    6          6             0       -0.240997   -0.923075    2.284303
    7          6             0        0.916796   -0.959670    3.055279
    8          6             0        2.151524   -0.917427    2.468424
    9          6             0        2.275090   -0.843520    1.066084
   10          6             0        3.531428   -0.791738    0.423469
   11          6             0        3.614313   -0.713451   -0.937811
   12          6             0        2.454501   -0.685496   -1.716788
   13          6             0        1.223662   -0.735618   -1.123433
   14          6             0        1.103547   -0.815825    0.274508
   15         17             0       -3.089191    1.880981   -3.047763
   16          1             0       -0.475724    1.313002   -0.271041
   17          1             0       -0.950115    2.878975    0.127618
   18          1             0       -1.826083    1.968068   -0.978817
   19          1             0       -3.018436    1.917448    1.161937
   20          1             0       -1.541156    1.364482    1.924043
   21          1             0       -3.210122   -0.141483   -0.147929
   22          1             0       -2.820079   -0.688893    1.474401
   23          1             0       -1.199346   -0.972359    2.769856
   24          1             0        0.837269   -1.021437    4.129229
   25          1             0        3.043756   -0.942351    3.071831
   26          1             0        4.425830   -0.813541    1.023566
   27          1             0        4.579972   -0.674527   -1.417135
   28          1             0        2.532867   -0.627418   -2.790928
   29          1             0        0.325620   -0.728135   -1.718880
 --------------------------------------------------------------------
     1 basis functions        1 primitive gaussians
     1 alpha electrons        1 beta electrons

 Harmonic frequencies (cm**-1), IR intensities (km*mol⁻¹),
 Raman scattering activities (A**4/amu), Raman depolarization ratios,
 reduced masses (AMU), force constants (mDyne/A) and normal coordinates:
                      1                      2                      3
                        a                      a                      a 
 Frequencies --  -141.2842                13.1690                28.6899
 Red. masses --    20.7262                23.0279                14.0678
 Frc consts  --     0.0000                 0.0000                 0.0000
 IR Inten    --   154.0245                 6.3860                 1.8851
 Raman Activ --     0.0000                 0.0000                 0.0000
 Depolar     --     0.0000                 0.0000                 0.0000
 Atom AN      X      Y      Z        X      Y      Z        X      Y      Z
   1   7     0.35   0.01   0.52     0.19  -0.03   0.30     0.15  -0.08  -0.19
   2   6     0.03  -0.05   0.23    -0.05  -0.05   0.09     0.19   0.13  -0.02
   3   6     0.00   0.01   0.02    -0.08  -0.01  -0.04     0.01   0.12   0.21
   4   8     0.00   0.03   0.00    -0.11  -0.04  -0.04    -0.10  -0.04   0.21
   5   6     0.00  -0.00   0.00    -0.09   0.00  -0.06    -0.04  -0.06   0.12
   6   6     0.00  -0.02   0.00    -0.07   0.03  -0.05     0.02  -0.17   0.12
   7   6     0.00  -0.00   0.00    -0.06   0.11  -0.07     0.07  -0.23   0.05
   8   6     0.00   0.02  -0.00    -0.07   0.16  -0.08     0.04  -0.20  -0.01
   9   6     0.00   0.01  -0.00    -0.09   0.11  -0.09    -0.04  -0.05  -0.01
  10   6     0.00   0.01  -0.00    -0.10   0.14  -0.10    -0.07   0.03  -0.07
  11   6    -0.00  -0.00  -0.00    -0.12   0.07  -0.11    -0.15   0.22  -0.07
  12   6    -0.00  -0.02  -0.00    -0.13  -0.03  -0.10    -0.19   0.33   0.00
  13   6    -0.00  -0.01  -0.00    -0.12  -0.04  -0.08    -0.16   0.23   0.06
  14   6     0.00   0.00  -0.00    -0.10   0.03  -0.07    -0.08   0.03   0.06
  15  17    -0.30   0.01  -0.56     0.59  -0.27   0.27     0.19  -0.17  -0.27
  16   1     0.10  -0.01   0.17     0.09   0.02   0.16     0.03  -0.04  -0.05
  17   1     0.09  -0.01   0.18    -0.01   0.01   0.08     0.06  -0.02  -0.10
  18   1     0.16   0.03   0.13     0.12  -0.06   0.03     0.02  -0.05  -0.04
  19   1     0.01   0.00   0.03    -0.01  -0.00  -0.02     0.08   0.07   0.00
  20   1    -0.05  -0.05   0.10    -0.06  -0.03   0.06     0.09   0.05  -0.03
  21   1     0.01   0.04  -0.01    -0.01   0.02  -0.02    -0.02   0.02   0.09
  22   1    -0.02  -0.02  -0.02    -0.04  -0.02  -0.03     0.02   0.08   0.10
  23   1     0.00  -0.01  -0.00    -0.02  -0.01  -0.01     0.01  -0.06   0.05
  24   1     0.00  -0.00   0.00    -0.01   0.04  -0.02     0.04  -0.09   0.01
  25   1     0.00   0.01  -0.00    -0.02   0.07  -0.03     0.02  -0.08  -0.02
  26   1     0.00   0.01  -0.00    -0.03   0.06  -0.03    -0.01  -0.01  -0.04
  27   1    -0.00  -0.00  -0.00    -0.04   0.02  -0.04    -0.05   0.08  -0.03
  28   1    -0.00  -0.01  -0.00    -0.04  -0.02  -0.03    -0.07   0.14   0.00
  29   1    -0.00  -0.01   0.00    -0.04  -0.03  -0.02    -0.06   0.08   0.03
                      4                      5                      6
                        a                      a                      a 
 Frequencies --    56.9275                79.0988               120.6823
 Red. masses --    14.6369                17.7207                11.7523
 Frc consts  --     0.0000                 0.0000                 0.0000
 IR Inten    --    10.3465                18.9301                13.2895
 Raman Activ --     0.0000                 0.0000                 0.0000
 Depolar     --     0.0000                 0.0000                 0.0000
 Atom AN      X      Y      Z        X      Y      Z        X      Y      Z
   1   7    -0.15   0.18   0.16    -0.32  -0.11   0.07    -0.32   0.29   0.06
   2   6    -0.21   0.10   0.05    -0.34  -0.15   0.02    -0.08   0.14   0.15
   3   6    -0.03   0.08  -0.03    -0.07  -0.24   0.14     0.02   0.12   0.14
   4   8     0.06   0.29  -0.07     0.01  -0.09   0.17     0.01   0.24   0.03
   5   6     0.03   0.18  -0.04     0.05   0.04   0.12     0.02   0.00  -0.01
   6   6     0.01   0.15  -0.04     0.12   0.14   0.12     0.03  -0.14  -0.01
   7   6     0.00  -0.08  -0.04     0.17   0.13   0.05     0.04  -0.30  -0.03
   8   6     0.01  -0.27  -0.03     0.14   0.02  -0.02     0.03  -0.11  -0.02
   9   6     0.03  -0.16  -0.02     0.06  -0.02  -0.03     0.02   0.05  -0.01
  10   6     0.04  -0.31  -0.01     0.02  -0.10  -0.11     0.02   0.29  -0.00
  11   6     0.07  -0.14   0.00    -0.06  -0.09  -0.11     0.02   0.16  -0.01
  12   6     0.08   0.18   0.00    -0.10  -0.00  -0.04     0.02  -0.27  -0.03
  13   6     0.06   0.29  -0.01    -0.07   0.04   0.04     0.02  -0.33  -0.03
  14   6     0.04   0.11  -0.03     0.01   0.02   0.04     0.02  -0.08  -0.02
  15  17     0.02  -0.41   0.05     0.31   0.31  -0.31     0.12  -0.09  -0.16
  16   1     0.02   0.11   0.12    -0.07  -0.02   0.04    -0.05   0.13   0.02
  17   1    -0.13   0.09   0.01    -0.10  -0.03   0.03    -0.15   0.11  -0.01
  18   1     0.01  -0.05   0.01    -0.05  -0.02  -0.00    -0.09   0.01   0.01
  19   1    -0.08   0.00  -0.02    -0.13  -0.08  -0.04    -0.03   0.01   0.09
  20   1    -0.10   0.05   0.03    -0.13   0.01   0.02     0.02   0.05   0.02
  21   1    -0.00   0.01  -0.02    -0.03  -0.13   0.05    -0.01   0.03   0.06
  22   1     0.00  -0.01  -0.02     0.02  -0.07   0.06     0.03   0.02   0.04
  23   1     0.00   0.07  -0.01     0.04   0.06   0.05     0.01  -0.04  -0.00
  24   1    -0.00  -0.03  -0.01     0.07   0.06   0.02     0.01  -0.14  -0.01
  25   1     0.00  -0.14  -0.01     0.05  -0.01  -0.02     0.01  -0.03  -0.01
  26   1     0.01  -0.16  -0.00     0.02  -0.04  -0.05     0.00   0.16   0.00
  27   1     0.02  -0.07   0.00    -0.02  -0.04  -0.05     0.00   0.10   0.00
  28   1     0.03   0.10   0.00    -0.05   0.01  -0.01     0.01  -0.14  -0.01
  29   1     0.02   0.15  -0.01    -0.03   0.03   0.03     0.01  -0.16  -0.01
                      7                      8                      9
                        a                      a                      a 
 Frequencies --   153.3234               172.8041               204.3462
 Red. masses --     9.8816                 9.6672                 9.8591
 Frc consts  --     0.0000                 0.0000                 0.0000
 IR Inten    --     1.2616                 5.2909                21.7569
 Raman Activ --     0.0000                 0.0000                 0.0000
 Depolar     --     0.0000                 0.0000                 0.0000
 Atom AN      X      Y      Z        X      Y      Z        X      Y      Z
   1   7    -0.19   0.01  -0.00     0.22  -0.08  -0.04     0.10  -0.40  -0.03
   2   6     0.17  -0.05   0.22    -0.26   0.09  -0.30    -0.11   0.08   0.05
   3   6     0.01   0.00   0.17    -0.04  -0.01  -0.14    -0.14  -0.00   0.37
   4   8    -0.09  -0.02   0.01     0.08   0.07   0.03    -0.23   0.13   0.08
   5   6    -0.02  -0.00  -0.06     0.03   0.12   0.09    -0.04   0.14  -0.11
   6   6    -0.02  -0.32  -0.08     0.04  -0.19   0.07    -0.01   0.18  -0.11
   7   6    -0.05  -0.06  -0.04     0.07  -0.31   0.03    -0.04  -0.04  -0.08
   8   6    -0.05   0.29  -0.01     0.06  -0.01   0.04    -0.05  -0.13  -0.09
   9   6    -0.03   0.24  -0.01     0.05   0.24   0.05    -0.06   0.03  -0.07
  10   6    -0.00  -0.06   0.02     0.02   0.17  -0.02     0.01   0.08   0.07
  11   6     0.05  -0.37   0.00    -0.04  -0.18  -0.05     0.18   0.05   0.09
  12   6     0.07  -0.08  -0.02    -0.07  -0.22  -0.00     0.24  -0.08  -0.01
  13   6     0.04   0.30  -0.04    -0.05   0.12   0.08     0.16  -0.02  -0.14
  14   6    -0.01   0.26  -0.04     0.03   0.26   0.09    -0.03   0.08  -0.14
  15  17     0.08  -0.03  -0.09    -0.09   0.04   0.09     0.00   0.02   0.03
  16   1    -0.06   0.01  -0.07     0.08  -0.03   0.10    -0.07  -0.23  -0.02
  17   1    -0.04   0.00  -0.02     0.04  -0.02  -0.01     0.16  -0.15  -0.03
  18   1    -0.11   0.01   0.04     0.15  -0.04  -0.06     0.01  -0.03   0.00
  19   1     0.07  -0.01   0.18    -0.11   0.02  -0.24    -0.02   0.06  -0.07
  20   1     0.14  -0.06   0.01    -0.20   0.09  -0.01    -0.06   0.08   0.03
  21   1    -0.02   0.03   0.07     0.01  -0.06  -0.06    -0.11  -0.05   0.18
  22   1     0.02  -0.01   0.05    -0.01   0.02  -0.02     0.06   0.01   0.16
  23   1    -0.01  -0.21  -0.04     0.01  -0.11   0.02     0.00   0.07  -0.03
  24   1    -0.02  -0.05  -0.01     0.03  -0.18   0.01    -0.02  -0.04  -0.03
  25   1    -0.02   0.13   0.00     0.02  -0.03   0.01    -0.01  -0.09  -0.03
  26   1    -0.01  -0.05   0.01     0.02   0.07  -0.02    -0.02   0.04   0.06
  27   1     0.02  -0.22   0.00    -0.02  -0.12  -0.03     0.06   0.02   0.05
  28   1     0.03  -0.05  -0.01    -0.03  -0.14  -0.01     0.10  -0.05  -0.00
  29   1     0.02   0.14  -0.02    -0.02   0.04   0.04     0.07  -0.02  -0.08
                     10                     11                     12
                        a                      a                      a 
 Frequencies --   230.5972               255.3711               304.7409
 Red. masses --     7.3554                 7.3466                10.7935
 Frc consts  --     0.0000                 0.0000                 0.0000
 IR Inten    --     5.3357                 2.4029                17.6107
 Raman Activ --     0.0000                 0.0000                 0.0000
 Depolar     --     0.0000                 0.0000                 0.0000
 Atom AN      X      Y      Z        X      Y      Z        X      Y      Z
   1   7     0.08   0.13  -0.02    -0.01  -0.01   0.05     0.02  -0.33  -0.07
   2   6    -0.14   0.18  -0.14    -0.23   0.15  -0.04     0.07  -0.07   0.10
   3   6    -0.01   0.04   0.19    -0.03   0.09  -0.00     0.18  -0.10   0.14
   4   8    -0.15  -0.15   0.12     0.08   0.33  -0.05     0.29   0.44  -0.26
   5   6    -0.02  -0.22  -0.05     0.02  -0.13   0.02     0.06   0.07  -0.04
   6   6     0.03  -0.26  -0.05     0.01  -0.31  -0.00    -0.09  -0.03  -0.07
   7   6     0.02   0.09  -0.02     0.03   0.03   0.00    -0.14   0.01  -0.00
   8   6     0.00   0.23  -0.03     0.03   0.26   0.02    -0.08   0.12   0.10
   9   6    -0.02  -0.07  -0.04     0.04  -0.09  -0.00     0.04  -0.01   0.09
  10   6     0.02  -0.13   0.03     0.02  -0.16  -0.04    -0.02  -0.07  -0.02
  11   6     0.11   0.01   0.05    -0.01   0.03  -0.03    -0.15   0.03  -0.04
  12   6     0.14   0.13   0.02    -0.03   0.16   0.00    -0.16   0.03  -0.02
  13   6     0.10  -0.07  -0.07    -0.01  -0.09   0.02    -0.10  -0.09   0.06
  14   6    -0.01  -0.18  -0.08     0.03  -0.19   0.02     0.07  -0.04   0.06
  15  17    -0.08   0.08   0.01     0.05  -0.10   0.02    -0.02   0.07  -0.01
  16   1     0.20   0.20   0.25    -0.22  -0.24  -0.18     0.11   0.00   0.13
  17   1    -0.23   0.15  -0.11     0.31  -0.15   0.15    -0.15   0.00  -0.17
  18   1     0.15  -0.23  -0.10    -0.07   0.31   0.07     0.05  -0.31  -0.06
  19   1    -0.08   0.03  -0.15    -0.08   0.04  -0.08     0.02  -0.02   0.01
  20   1    -0.12   0.14   0.01    -0.12   0.07   0.02     0.03   0.02   0.02
  21   1    -0.04  -0.05   0.10    -0.01  -0.01  -0.00    -0.01  -0.05   0.11
  22   1     0.04   0.07   0.12     0.02   0.01  -0.00     0.17  -0.10   0.04
  23   1     0.01  -0.11  -0.01     0.00  -0.12  -0.00    -0.03  -0.02  -0.03
  24   1     0.01   0.07  -0.00     0.01   0.05   0.00    -0.06   0.00  -0.00
  25   1     0.00   0.15  -0.01     0.01   0.19   0.01    -0.04   0.07   0.06
  26   1    -0.01  -0.06   0.03     0.01  -0.07  -0.02     0.02  -0.04  -0.04
  27   1     0.04   0.01   0.03    -0.01   0.03  -0.01    -0.05   0.02  -0.02
  28   1     0.05   0.10   0.01    -0.02   0.10   0.00    -0.06   0.03  -0.01
  29   1     0.04  -0.01  -0.04    -0.00  -0.04   0.01    -0.05  -0.04   0.05
                     13                     14                     15
                        a                      a                      a 
 Frequencies --   356.3660               389.5809               426.1334
 Red. masses --     8.3802                 9.3555                 9.6902
 Frc consts  --     0.0000                 0.0000                 0.0000
 IR Inten    --     5.5561                 0.9493                 0.4798
 Raman Activ --     0.0000                 0.0000                 0.0000
 Depolar     --     0.0000                 0.0000                 0.0000
 Atom AN      X      Y      Z        X      Y      Z        X      Y      Z
   1   7     0.07   0.30   0.04     0.05   0.17   0.01    -0.00   0.01  -0.00
   2   6     0.00   0.03  -0.14     0.05  -0.06  -0.09    -0.01   0.02  -0.01
   3   6     0.31  -0.20   0.28     0.08  -0.13   0.09    -0.05   0.01   0.03
   4   8     0.15  -0.14  -0.11     0.01  -0.18   0.04    -0.07  -0.05  -0.00
   5   6     0.07  -0.15  -0.09     0.05   0.27  -0.02     0.01   0.10  -0.04
   6   6    -0.08   0.08  -0.09    -0.02   0.09  -0.03    -0.05  -0.31  -0.08
   7   6    -0.16   0.08  -0.00    -0.07  -0.17   0.00    -0.07   0.34  -0.03
   8   6    -0.13  -0.13   0.04    -0.07   0.10   0.02     0.00  -0.17   0.04
   9   6    -0.03  -0.05   0.05    -0.02   0.25   0.03     0.12  -0.28   0.04
  10   6    -0.05   0.19   0.02    -0.02  -0.38  -0.01     0.09  -0.15  -0.06
  11   6    -0.10  -0.10  -0.01    -0.04   0.16   0.02     0.00   0.33  -0.05
  12   6    -0.07  -0.08  -0.06    -0.02   0.16  -0.03    -0.03  -0.31  -0.03
  13   6    -0.05   0.19  -0.02    -0.01  -0.35  -0.06     0.02   0.11   0.09
  14   6     0.04  -0.06  -0.03     0.02   0.31  -0.02     0.08   0.37   0.10
  15  17     0.01  -0.04   0.02     0.00  -0.02   0.01     0.00  -0.00   0.00
  16   1    -0.03   0.04  -0.09     0.00   0.05  -0.06    -0.00   0.00   0.00
  17   1     0.09   0.02   0.13     0.03   0.02   0.08     0.00   0.00   0.00
  18   1     0.01   0.23   0.03     0.00   0.13   0.01     0.00   0.01  -0.00
  19   1    -0.06  -0.07  -0.12    -0.00  -0.04  -0.03    -0.00   0.01  -0.00
  20   1    -0.06   0.12  -0.00     0.00   0.00  -0.02    -0.00  -0.00  -0.00
  21   1    -0.04  -0.18   0.21    -0.02  -0.09   0.08    -0.02   0.00   0.01
  22   1     0.26  -0.01   0.19     0.08   0.00   0.08    -0.01   0.02   0.02
  23   1    -0.02   0.06  -0.03    -0.01  -0.05  -0.03    -0.02  -0.22  -0.04
  24   1    -0.07   0.06  -0.00    -0.03  -0.17  -0.01    -0.03   0.21  -0.00
  25   1    -0.05  -0.06   0.03    -0.02  -0.03   0.01    -0.02  -0.05   0.04
  26   1    -0.01   0.13  -0.01    -0.00  -0.29  -0.02     0.04  -0.04  -0.04
  27   1    -0.03  -0.05  -0.00    -0.01   0.05   0.01    -0.01   0.22  -0.02
  28   1    -0.01  -0.04  -0.02     0.00   0.04  -0.01    -0.03  -0.23  -0.02
  29   1    -0.03   0.12   0.01    -0.01  -0.27  -0.01    -0.01  -0.01   0.04
                     16                     17                     18
                        a                      a                      a 
 Frequencies --   433.7962               462.5084               496.7346
 Red. masses --    10.9484                11.1070                11.2465
 Frc consts  --     0.0000                 0.0000                 0.0000
 IR Inten    --     0.9919                 6.0139                 0.2055
 Raman Activ --     0.0000                 0.0000                 0.0000
 Depolar     --     0.0000                 0.0000                 0.0000
 Atom AN      X      Y      Z        X      Y      Z        X      Y      Z
   1   7     0.02   0.00  -0.02     0.07   0.10  -0.02     0.05   0.06  -0.02
   2   6     0.03  -0.08  -0.04     0.06  -0.11  -0.10     0.06  -0.11  -0.07
   3   6     0.12  -0.08  -0.06    -0.11  -0.12   0.03     0.02  -0.13   0.03
   4   8     0.26   0.15   0.07    -0.19   0.14  -0.35     0.12   0.14   0.06
   5   6     0.07   0.08   0.14    -0.22   0.02  -0.12    -0.15   0.03   0.29
   6   6     0.17  -0.13   0.17     0.16  -0.00  -0.09    -0.36  -0.01   0.29
   7   6     0.15   0.07   0.21     0.29   0.02  -0.22    -0.11  -0.02  -0.11
   8   6    -0.04  -0.00  -0.12     0.31   0.01  -0.09    -0.19   0.06  -0.33
   9   6    -0.35  -0.12  -0.13    -0.02  -0.01  -0.05     0.04  -0.03  -0.28
  10   6    -0.28  -0.05   0.15     0.03  -0.02   0.16     0.18  -0.00  -0.15
  11   6    -0.07   0.10   0.21    -0.03   0.00   0.20     0.30   0.03  -0.13
  12   6     0.08  -0.11  -0.03    -0.10  -0.03   0.32     0.09  -0.04   0.17
  13   6    -0.07   0.07  -0.30    -0.16  -0.01   0.16     0.04   0.01   0.13
  14   6    -0.19   0.10  -0.26    -0.15   0.01   0.10    -0.16  -0.02   0.11
  15  17    -0.00   0.00   0.00     0.00  -0.01   0.01    -0.00  -0.00   0.00
  16   1     0.02   0.02  -0.01     0.04   0.07  -0.03     0.03   0.05  -0.02
  17   1    -0.02   0.01   0.01    -0.02   0.02   0.06    -0.02   0.02   0.04
  18   1     0.01   0.00  -0.01     0.03   0.06  -0.01     0.02   0.04  -0.01
  19   1     0.00  -0.03  -0.01     0.04  -0.01   0.02     0.02  -0.03   0.00
  20   1     0.01  -0.03  -0.01     0.05  -0.08  -0.04     0.03  -0.05  -0.03
  21   1     0.05  -0.04  -0.03    -0.14  -0.08   0.12    -0.02  -0.08   0.04
  22   1     0.04  -0.04  -0.02     0.12  -0.03   0.08     0.06  -0.03   0.03
  23   1     0.04  -0.07   0.04     0.10  -0.00   0.07    -0.08   0.00   0.12
  24   1     0.08   0.06   0.07     0.07   0.01  -0.06     0.08  -0.01  -0.02
  25   1     0.05   0.03  -0.13     0.10   0.01  -0.05    -0.07   0.03  -0.07
  26   1    -0.12  -0.00   0.10    -0.02  -0.01   0.08     0.02   0.01   0.01
  27   1     0.00   0.08   0.11    -0.03   0.01   0.02     0.07   0.03  -0.07
  28   1     0.10  -0.07  -0.01    -0.02  -0.02   0.09    -0.03  -0.01   0.04
  29   1     0.01   0.03  -0.13    -0.03  -0.00   0.03     0.05   0.02  -0.02
                     19                     20                     21
                        a                      a                      a 
 Frequencies --   519.1639               543.0745               579.9315
 Red. masses --     9.8545                10.5708                10.7380
 Frc consts  --     0.0000                 0.0000                 0.0000
 IR Inten    --     4.2562                 4.6423                 1.4292
 Raman Activ --     0.0000                 0.0000                 0.0000
 Depolar     --     0.0000                 0.0000                 0.0000
 Atom AN      X      Y      Z        X      Y      Z        X      Y      Z
   1   7     0.10   0.11  -0.04     0.05   0.06  -0.02     0.05   0.05  -0.04
   2   6     0.07  -0.19  -0.15     0.02  -0.09  -0.09     0.02  -0.12  -0.10
   3   6    -0.26  -0.14   0.03    -0.15  -0.07   0.01    -0.18  -0.07   0.04
   4   8    -0.14   0.13   0.07    -0.07   0.24  -0.12     0.02   0.12   0.28
   5   6    -0.00   0.32  -0.01    -0.13  -0.19   0.05     0.18   0.31  -0.02
   6   6     0.06   0.06  -0.00     0.03  -0.15   0.11     0.00  -0.20  -0.10
   7   6    -0.03  -0.22   0.13     0.04   0.25   0.20    -0.08   0.20  -0.04
   8   6     0.01   0.25   0.21     0.05  -0.29   0.16    -0.09  -0.17  -0.10
   9   6     0.00  -0.31   0.13    -0.09   0.23   0.12     0.13  -0.05  -0.06
  10   6    -0.10  -0.01  -0.10    -0.20   0.11  -0.16     0.23   0.21   0.15
  11   6    -0.00   0.05  -0.12     0.09  -0.12  -0.18    -0.10  -0.24   0.11
  12   6     0.07  -0.10  -0.21     0.14   0.19  -0.20    -0.11   0.21   0.10
  13   6     0.15   0.12   0.00     0.23  -0.16   0.04    -0.18  -0.20  -0.14
  14   6     0.06  -0.20   0.01    -0.05   0.10   0.07     0.12  -0.05  -0.11
  15  17    -0.00  -0.01   0.01     0.00  -0.00   0.01    -0.00  -0.00   0.00
  16   1     0.07   0.09  -0.04     0.04   0.05  -0.01     0.04   0.05  -0.02
  17   1    -0.04   0.03   0.09    -0.03   0.02   0.04    -0.02   0.01   0.06
  18   1     0.04   0.08  -0.02     0.03   0.03  -0.02     0.03   0.05  -0.02
  19   1     0.08   0.01   0.05     0.05   0.01   0.03     0.05   0.02   0.04
  20   1     0.08  -0.15  -0.08     0.05  -0.09  -0.05     0.05  -0.11  -0.05
  21   1    -0.10  -0.10   0.04    -0.09  -0.06   0.05    -0.01  -0.06  -0.03
  22   1    -0.01  -0.01   0.06     0.04  -0.02   0.04    -0.09   0.01   0.02
  23   1     0.01   0.01  -0.01     0.02  -0.04   0.06    -0.03  -0.14  -0.09
  24   1    -0.04  -0.10   0.03    -0.00   0.13   0.06    -0.02   0.08  -0.01
  25   1     0.00   0.18   0.07     0.03  -0.16   0.02    -0.04  -0.06  -0.01
  26   1    -0.01   0.12  -0.05    -0.05  -0.06  -0.05     0.08   0.11   0.03
  27   1     0.02   0.12   0.01     0.06  -0.15   0.01    -0.05  -0.10  -0.03
  28   1    -0.00   0.02  -0.06    -0.01   0.04  -0.06     0.03   0.15   0.04
  29   1     0.03   0.15   0.03     0.07  -0.14   0.01    -0.06  -0.04  -0.02
                     22                     23                     24
                        a                      a                      a 
 Frequencies --   627.4976               711.4729               715.0607
 Red. masses --    10.6591                11.5106                10.3324
 Frc consts  --     0.0000                 0.0000                 0.0000
 IR Inten    --     3.0275                31.5168                 7.7188
 Raman Activ --     0.0000                 0.0000                 0.0000
 Depolar     --     0.0000                 0.0000                 0.0000
 Atom AN      X      Y      Z        X      Y      Z        X      Y      Z
   1   7    -0.06  -0.05   0.04     0.02  -0.00  -0.03    -0.01  -0.00   0.02
   2   6     0.01   0.11   0.10     0.01  -0.08  -0.03    -0.00   0.04   0.02
   3   6     0.25   0.05  -0.05     0.04  -0.05   0.06     0.01   0.02  -0.04
   4   8    -0.01  -0.27  -0.19     0.18   0.09   0.38    -0.09  -0.08  -0.19
   5   6    -0.10   0.51   0.03     0.04   0.09  -0.05     0.00   0.26   0.03
   6   6    -0.02  -0.12   0.02    -0.05  -0.07  -0.24     0.04  -0.12   0.09
   7   6     0.05   0.07  -0.04     0.00   0.11  -0.43    -0.00   0.19   0.22
   8   6     0.07  -0.01   0.00     0.13  -0.07  -0.05    -0.06  -0.09   0.01
   9   6    -0.12  -0.24   0.00    -0.15   0.24   0.05     0.04   0.45  -0.00
  10   6    -0.20   0.16  -0.09    -0.34  -0.09  -0.04     0.14  -0.20  -0.02
  11   6     0.08  -0.20  -0.08    -0.03   0.09   0.02     0.04   0.14  -0.01
  12   6     0.05   0.16   0.02     0.03  -0.09   0.01    -0.01  -0.20   0.01
  13   6     0.12  -0.19   0.14     0.15   0.07   0.23    -0.07   0.12  -0.07
  14   6    -0.12   0.00   0.11    -0.02  -0.24   0.11    -0.00  -0.48  -0.07
  15  17     0.00   0.00  -0.00    -0.00  -0.00  -0.00    -0.00  -0.00   0.00
  16   1    -0.05  -0.05   0.01     0.03   0.04  -0.04    -0.02  -0.02   0.02
  17   1     0.03  -0.01  -0.06    -0.02  -0.00   0.04     0.02  -0.00  -0.02
  18   1    -0.05  -0.04   0.03     0.00   0.03  -0.00    -0.01  -0.02   0.01
  19   1    -0.06  -0.04  -0.06    -0.01  -0.03  -0.04    -0.00   0.01   0.01
  20   1    -0.07   0.12   0.07    -0.01   0.01   0.00    -0.00   0.00   0.01
  21   1     0.03   0.06   0.03     0.13  -0.00  -0.10    -0.06   0.00   0.05
  22   1     0.09   0.00  -0.01    -0.12  -0.01  -0.04     0.07   0.01   0.02
  23   1     0.02  -0.18   0.03    -0.01  -0.00  -0.06     0.00  -0.13   0.01
  24   1     0.02  -0.02  -0.01    -0.04  -0.01  -0.13     0.02  -0.15   0.05
  25   1     0.03   0.00  -0.01     0.02  -0.07   0.00    -0.00  -0.22  -0.02
  26   1    -0.08   0.17   0.01    -0.12  -0.05   0.02     0.04   0.01  -0.01
  27   1     0.04   0.00   0.02     0.02   0.00   0.08    -0.01   0.11  -0.03
  28   1    -0.04   0.16   0.01    -0.05  -0.00   0.00     0.01   0.10   0.01
  29   1     0.04   0.03   0.02     0.03   0.05   0.08    -0.01   0.19  -0.03
                     25                     26                     27
                        a                      a                      a 
 Frequencies --   758.6400               775.8754               804.9613
 Red. masses --     4.5820                10.6418                 3.8195
 Frc consts  --     0.0000                 0.0000                 0.0000
 IR Inten    --     0.9693                 1.3412                59.6694
 Raman Activ --     0.0000                 0.0000                 0.0000
 Depolar     --     0.0000                 0.0000                 0.0000
 Atom AN      X      Y      Z        X      Y      Z        X      Y      Z
   1   7     0.01   0.01  -0.01     0.01  -0.00  -0.01     0.02  -0.01  -0.02
   2   6    -0.02   0.00  -0.02    -0.00  -0.03  -0.01     0.06  -0.04   0.04
   3   6    -0.03   0.01   0.01    -0.01  -0.01   0.03     0.02  -0.04   0.03
   4   8     0.04   0.07   0.04     0.02   0.05   0.08    -0.05   0.01   0.00
   5   6    -0.01  -0.28   0.02     0.12  -0.08  -0.19    -0.05   0.07  -0.00
   6   6    -0.07   0.15   0.03     0.35   0.06  -0.26     0.00  -0.21  -0.01
   7   6     0.02   0.08  -0.09    -0.07  -0.02   0.32    -0.00  -0.15   0.01
   8   6     0.05   0.16   0.00    -0.20   0.03   0.01     0.01  -0.18   0.02
   9   6     0.01  -0.02   0.01    -0.13  -0.02  -0.08     0.02   0.23   0.02
  10   6    -0.02  -0.16   0.03    -0.09  -0.01  -0.22     0.04  -0.15  -0.00
  11   6    -0.07  -0.16   0.03     0.33  -0.02  -0.20     0.00  -0.09  -0.01
  12   6     0.01  -0.07  -0.08    -0.06  -0.03   0.41     0.00  -0.10  -0.02
  13   6     0.04  -0.17  -0.03    -0.13  -0.04   0.17    -0.02  -0.11  -0.04
  14   6     0.02   0.24   0.02    -0.07   0.08  -0.01    -0.02   0.15  -0.00
  15  17    -0.00  -0.00   0.00    -0.00  -0.00  -0.00     0.00   0.00  -0.00
  16   1    -0.00  -0.01   0.01     0.01   0.02  -0.02     0.03   0.05  -0.07
  17   1     0.01  -0.00   0.01    -0.01  -0.00   0.02    -0.03   0.01   0.00
  18   1     0.01   0.00  -0.01     0.00   0.01  -0.00    -0.05   0.01   0.03
  19   1     0.01   0.01   0.02    -0.00  -0.01  -0.02    -0.02  -0.04  -0.10
  20   1     0.01  -0.03  -0.02    -0.01   0.00   0.00    -0.06   0.09   0.05
  21   1     0.01  -0.02  -0.01     0.04   0.01  -0.04     0.03   0.06  -0.02
  22   1    -0.01   0.01   0.00    -0.06  -0.00  -0.02    -0.05  -0.05  -0.04
  23   1    -0.01  -0.24  -0.00     0.04  -0.02  -0.19     0.00   0.47   0.06
  24   1     0.02  -0.23  -0.04    -0.09  -0.03   0.08    -0.01   0.37   0.03
  25   1     0.01  -0.33  -0.01    -0.01  -0.04  -0.06    -0.00   0.32   0.03
  26   1    -0.00   0.37   0.02    -0.07   0.06   0.02     0.01   0.20   0.01
  27   1    -0.01   0.37   0.05     0.06   0.07  -0.11    -0.01   0.27   0.01
  28   1     0.01   0.34  -0.00    -0.13   0.04   0.11     0.01   0.28   0.01
  29   1    -0.00   0.25   0.01    -0.01   0.03   0.01    -0.00   0.18  -0.01
                     28                     29                     30
                        a                      a                      a 
 Frequencies --   820.0946               857.2979               867.4388
 Red. masses --     4.1543                10.0225                 3.8463
 Frc consts  --     0.0000                 0.0000                 0.0000
 IR Inten    --    31.5596                 1.1562                 1.3337
 Raman Activ --     0.0000                 0.0000                 0.0000
 Depolar     --     0.0000                 0.0000                 0.0000
 Atom AN      X      Y      Z        X      Y      Z        X      Y      Z
   1   7     0.10   0.00  -0.06     0.05   0.01  -0.01    -0.01   0.01  -0.01
   2   6     0.19  -0.18   0.09     0.04  -0.01   0.05    -0.02   0.02   0.00
   3   6     0.04  -0.12   0.13    -0.12  -0.02   0.03     0.00  -0.02   0.01
   4   8    -0.15   0.15   0.01    -0.07  -0.01  -0.12     0.01  -0.03   0.00
   5   6    -0.12  -0.02  -0.00     0.12  -0.01  -0.04    -0.00   0.07   0.00
   6   6    -0.03   0.02   0.03     0.18  -0.01  -0.00     0.01  -0.34  -0.03
   7   6     0.01   0.06   0.04     0.03  -0.01   0.17    -0.01   0.08  -0.00
   8   6     0.08   0.07   0.13    -0.32   0.04  -0.42    -0.01   0.29   0.03
   9   6     0.04  -0.07   0.03     0.01   0.00  -0.14    -0.00  -0.09  -0.00
  10   6     0.11   0.03   0.01    -0.01  -0.02   0.11    -0.00  -0.09  -0.01
  11   6     0.04   0.02  -0.02    -0.28  -0.02   0.13     0.02  -0.04  -0.01
  12   6     0.01   0.03  -0.02    -0.02   0.02  -0.19    -0.00   0.13   0.02
  13   6    -0.07   0.03  -0.12     0.31   0.00   0.34    -0.01   0.08  -0.01
  14   6    -0.06  -0.03  -0.04     0.15  -0.01   0.14     0.00   0.01  -0.01
  15  17     0.01  -0.00  -0.01     0.00  -0.00  -0.00    -0.00  -0.00   0.00
  16   1     0.09   0.18  -0.30     0.03   0.06  -0.11    -0.01  -0.03   0.06
  17   1    -0.12   0.05   0.01    -0.03   0.03  -0.03     0.02  -0.01   0.01
  18   1    -0.21   0.02   0.13    -0.09  -0.02   0.06     0.06   0.01  -0.04
  19   1    -0.08  -0.12  -0.39     0.00   0.02  -0.10     0.00   0.00   0.06
  20   1    -0.23   0.25   0.18    -0.07   0.05   0.06     0.05   0.01  -0.03
  21   1     0.12   0.20  -0.09    -0.04   0.05   0.01     0.00   0.00   0.00
  22   1    -0.19  -0.13  -0.12    -0.04  -0.04  -0.02     0.00  -0.03  -0.01
  23   1    -0.00  -0.09   0.01     0.02   0.03  -0.05     0.01   0.58   0.07
  24   1    -0.02  -0.14   0.00     0.14  -0.01   0.05    -0.01  -0.14  -0.01
  25   1     0.01  -0.15   0.04    -0.03  -0.02  -0.20    -0.00  -0.48  -0.02
  26   1     0.04  -0.03  -0.02     0.01   0.02   0.01    -0.00   0.21   0.01
  27   1     0.00  -0.06  -0.03    -0.06   0.00   0.08     0.00   0.02  -0.00
  28   1     0.04  -0.07  -0.01    -0.06  -0.01  -0.05     0.00  -0.21  -0.01
  29   1    -0.01  -0.05  -0.06     0.02  -0.04   0.20    -0.00  -0.20  -0.01
                     31                     32                     33
                        a                      a                      a 
 Frequencies --   879.4044               907.0488               913.5321
 Red. masses --     3.8517                 3.6719                 4.6262
 Frc consts  --     0.0000                 0.0000                 0.0000
 IR Inten    --     0.0758                 9.5736                 3.1232
 Raman Activ --     0.0000                 0.0000                 0.0000
 Depolar     --     0.0000                 0.0000                 0.0000
 Atom AN      X      Y      Z        X      Y      Z        X      Y      Z
   1   7    -0.00  -0.02   0.01    -0.13  -0.02  -0.17     0.11   0.13  -0.09
   2   6     0.00  -0.01  -0.01    -0.02  -0.11  -0.02    -0.07   0.11   0.14
   3   6     0.00   0.02  -0.01     0.21  -0.01   0.20    -0.16  -0.17   0.05
   4   8    -0.00   0.01   0.00    -0.15   0.07  -0.05     0.09  -0.06  -0.05
   5   6     0.01   0.00   0.01    -0.10   0.01  -0.04     0.03  -0.04   0.01
   6   6    -0.02   0.13   0.02     0.03   0.02   0.01    -0.02  -0.07   0.01
   7   6     0.00  -0.02  -0.01     0.01   0.05   0.09    -0.00   0.30  -0.00
   8   6     0.02  -0.15   0.00    -0.03  -0.06  -0.04     0.02  -0.19  -0.00
   9   6    -0.00   0.12   0.01     0.01   0.00  -0.02    -0.01  -0.04   0.01
  10   6    -0.00  -0.30  -0.02     0.08  -0.02   0.04    -0.03   0.09  -0.01
  11   6     0.02  -0.11  -0.01    -0.05   0.01   0.02     0.02  -0.13  -0.01
  12   6     0.00   0.20   0.01     0.00   0.02  -0.06     0.00  -0.03   0.02
  13   6    -0.02   0.22  -0.01     0.06  -0.02   0.03    -0.02   0.08  -0.01
  14   6    -0.00  -0.09  -0.01    -0.04   0.00   0.02     0.02   0.04  -0.01
  15  17     0.00   0.00  -0.00    -0.01  -0.01   0.01     0.00   0.00   0.00
  16   1     0.01   0.01  -0.02     0.01  -0.05   0.27    -0.02  -0.03  -0.00
  17   1    -0.02   0.00  -0.00     0.01  -0.10   0.29     0.09   0.04  -0.14
  18   1    -0.01  -0.00   0.01     0.39   0.21  -0.30    -0.00  -0.04  -0.01
  19   1     0.00   0.00  -0.02    -0.09  -0.20   0.09     0.01   0.08   0.06
  20   1    -0.02  -0.01   0.01     0.16   0.19  -0.11     0.01   0.02   0.02
  21   1    -0.01  -0.01   0.01     0.17   0.26  -0.08    -0.01  -0.01  -0.02
  22   1     0.01   0.02   0.01    -0.16  -0.10  -0.12    -0.05  -0.14  -0.06
  23   1    -0.01  -0.21  -0.02     0.01  -0.04  -0.00    -0.01   0.17   0.02
  24   1    -0.00   0.04  -0.00     0.02  -0.11   0.02     0.00  -0.59  -0.04
  25   1     0.00   0.23   0.02     0.01   0.11  -0.03    -0.00   0.37   0.02
  26   1    -0.01   0.56   0.03     0.03   0.03  -0.01    -0.01  -0.15  -0.01
  27   1     0.00   0.13   0.01    -0.02  -0.02  -0.01     0.00   0.24   0.02
  28   1     0.01  -0.29  -0.01    -0.00  -0.02  -0.02     0.00   0.06   0.01
  29   1     0.00  -0.47  -0.01     0.01   0.04   0.02    -0.00  -0.12  -0.01
                     34                     35                     36
                        a                      a                      a 
 Frequencies --   915.1448               921.9616               932.7911
 Red. masses --     7.7273                 3.8492                 3.2741
 Frc consts  --     0.0000                 0.0000                 0.0000
 IR Inten    --     6.2782                 1.2150                 0.2500
 Raman Activ --     0.0000                 0.0000                 0.0000
 Depolar     --     0.0000                 0.0000                 0.0000
 Atom AN      X      Y      Z        X      Y      Z        X      Y      Z
   1   7     0.18   0.25  -0.22    -0.01  -0.03   0.05     0.00  -0.00   0.00
   2   6    -0.14   0.17   0.28     0.02  -0.01  -0.03     0.00   0.00   0.00
   3   6    -0.24  -0.34   0.14     0.00   0.04  -0.04    -0.00  -0.00  -0.01
   4   8     0.12  -0.08  -0.12     0.01   0.00   0.03     0.00  -0.00   0.00
   5   6     0.06   0.03   0.02    -0.00  -0.04  -0.00     0.00   0.00  -0.00
   6   6    -0.05   0.05   0.04     0.01  -0.04  -0.01     0.00   0.01  -0.00
   7   6     0.01  -0.14  -0.02    -0.01   0.15   0.00    -0.00  -0.02  -0.00
   8   6     0.03   0.06   0.02    -0.01  -0.11  -0.01    -0.00  -0.01  -0.00
   9   6    -0.01   0.02   0.01     0.00  -0.02  -0.00     0.00   0.09   0.00
  10   6    -0.05  -0.08  -0.03     0.01  -0.21  -0.01     0.00   0.04   0.00
  11   6     0.03   0.11  -0.00    -0.01   0.29   0.02    -0.01  -0.21  -0.01
  12   6    -0.00   0.03   0.04    -0.01   0.09   0.01    -0.01   0.33   0.02
  13   6    -0.03  -0.06  -0.03     0.01  -0.25  -0.01     0.01  -0.20  -0.00
  14   6     0.03  -0.02  -0.01    -0.00   0.10   0.01    -0.00  -0.06  -0.00
  15  17    -0.00   0.00   0.00     0.00   0.00  -0.00    -0.00   0.00  -0.00
  16   1    -0.03  -0.06   0.05     0.00   0.02  -0.04     0.00   0.00  -0.00
  17   1     0.17   0.06  -0.20    -0.02   0.00  -0.01     0.00   0.00  -0.01
  18   1     0.07  -0.02  -0.08    -0.06  -0.02   0.05    -0.01  -0.00   0.01
  19   1     0.00   0.10   0.11     0.01   0.02  -0.02     0.00   0.00  -0.00
  20   1     0.03   0.08   0.03    -0.02  -0.03   0.01    -0.01  -0.01   0.00
  21   1     0.02   0.05  -0.06    -0.02  -0.04   0.02    -0.00  -0.01   0.00
  22   1    -0.14  -0.29  -0.13     0.04   0.05   0.03     0.00   0.00   0.00
  23   1    -0.02  -0.13  -0.02     0.01   0.11   0.01     0.00  -0.02  -0.00
  24   1     0.02   0.27   0.01    -0.01  -0.30  -0.02    -0.00   0.04   0.00
  25   1     0.01  -0.12  -0.00    -0.01   0.22   0.01    -0.00   0.01   0.00
  26   1    -0.02   0.13   0.01    -0.00   0.35   0.02     0.00  -0.17  -0.01
  27   1     0.01  -0.19  -0.01     0.00  -0.51  -0.03    -0.01   0.42   0.02
  28   1     0.00  -0.06   0.01    -0.00  -0.17  -0.01     0.00  -0.63  -0.03
  29   1    -0.00   0.11  -0.01     0.00   0.40   0.01     0.00   0.44   0.00
                     37                     38                     39
                        a                      a                      a 
 Frequencies --   971.5543              1021.0737              1067.8402
 Red. masses --     8.7349                 9.1961                 9.7692
 Frc consts  --     0.0000                 0.0000                 0.0000
 IR Inten    --    60.1314               100.6447                23.8114
 Raman Activ --     0.0000                 0.0000                 0.0000
 Depolar     --     0.0000                 0.0000                 0.0000
 Atom AN      X      Y      Z        X      Y      Z        X      Y      Z
   1   7    -0.09  -0.19   0.00    -0.01   0.15   0.02    -0.24  -0.07   0.35
   2   6     0.05   0.04  -0.05     0.10  -0.20  -0.05     0.33   0.38  -0.37
   3   6    -0.32   0.23   0.19     0.07  -0.01  -0.07     0.01  -0.39   0.05
   4   8     0.22  -0.19  -0.26    -0.37   0.13  -0.05    -0.11   0.07  -0.03
   5   6     0.27   0.00   0.06     0.35  -0.03   0.06     0.02   0.01  -0.00
   6   6    -0.14  -0.01   0.13    -0.16  -0.01   0.14    -0.04   0.00   0.01
   7   6     0.02   0.00  -0.06     0.03   0.01  -0.05     0.01  -0.00   0.03
   8   6     0.05   0.00  -0.01     0.02   0.00  -0.06     0.03  -0.00  -0.00
   9   6     0.00  -0.00   0.03     0.07  -0.00   0.05     0.01   0.00  -0.01
  10   6    -0.22   0.01  -0.08    -0.29   0.00  -0.10    -0.01   0.00  -0.01
  11   6     0.08   0.00  -0.01     0.06   0.00   0.00    -0.03  -0.00   0.00
  12   6    -0.00  -0.01   0.13     0.00  -0.01   0.17     0.01  -0.00   0.03
  13   6    -0.09  -0.01  -0.06    -0.09  -0.01  -0.04     0.02   0.00   0.01
  14   6     0.20   0.00  -0.04     0.33   0.02  -0.07     0.00  -0.00  -0.01
  15  17    -0.00  -0.01  -0.00     0.00   0.00   0.00     0.00   0.00  -0.00
  16   1     0.11   0.16  -0.09    -0.11  -0.15   0.12    -0.10  -0.09   0.13
  17   1    -0.22  -0.06   0.34     0.15   0.03  -0.20    -0.01  -0.02   0.01
  18   1     0.05   0.15  -0.04     0.01  -0.11  -0.01    -0.06  -0.08   0.09
  19   1     0.09   0.16  -0.10    -0.13  -0.29  -0.04     0.15   0.20  -0.08
  20   1     0.01   0.09  -0.01    -0.03   0.04   0.02     0.11   0.11  -0.11
  21   1    -0.10   0.17   0.06    -0.04   0.05   0.04     0.12  -0.04  -0.12
  22   1    -0.05  -0.04  -0.02    -0.04   0.11   0.04    -0.17  -0.10  -0.07
  23   1    -0.06   0.01   0.00    -0.08   0.03  -0.03    -0.04  -0.01  -0.05
  24   1     0.09  -0.01  -0.01     0.16  -0.01  -0.00     0.02   0.00   0.01
  25   1     0.01   0.00  -0.00    -0.00   0.01  -0.01     0.02   0.01  -0.02
  26   1    -0.09  -0.01   0.02    -0.10   0.00   0.00     0.01   0.00  -0.02
  27   1     0.04  -0.00   0.04     0.05  -0.00   0.08    -0.01  -0.00  -0.00
  28   1     0.02  -0.00   0.04     0.03  -0.00   0.05     0.01  -0.00   0.01
  29   1    -0.04   0.02   0.01    -0.07   0.01   0.06     0.02  -0.00  -0.02
                     40                     41                     42
                        a                      a                      a 
 Frequencies --  1080.6351              1085.9939              1121.8334
 Red. masses --     8.3470                 6.5914                 6.6835
 Frc consts  --     0.0000                 0.0000                 0.0000
 IR Inten    --    42.8451                 0.1317                 3.4737
 Raman Activ --     0.0000                 0.0000                 0.0000
 Depolar     --     0.0000                 0.0000                 0.0000
 Atom AN      X      Y      Z        X      Y      Z        X      Y      Z
   1   7    -0.14   0.15   0.12    -0.04   0.01   0.03     0.11   0.03   0.06
   2   6     0.30  -0.18  -0.14     0.06   0.01  -0.03    -0.19  -0.11  -0.17
   3   6    -0.39   0.17   0.11    -0.05  -0.02  -0.00     0.08   0.13   0.31
   4   8     0.38  -0.08  -0.04     0.02  -0.00  -0.01     0.07  -0.04  -0.14
   5   6    -0.08   0.00   0.03     0.01  -0.00   0.02     0.02   0.03  -0.11
   6   6     0.08   0.01  -0.05     0.07   0.00  -0.01    -0.31  -0.01  -0.00
   7   6    -0.02  -0.00  -0.01     0.00   0.00  -0.05     0.01  -0.01   0.20
   8   6     0.00  -0.00   0.03    -0.03  -0.00  -0.01     0.26   0.00   0.05
   9   6    -0.05   0.00  -0.03    -0.08  -0.00   0.02    -0.10   0.00  -0.07
  10   6     0.10  -0.00   0.02     0.11  -0.01   0.20     0.10  -0.00   0.07
  11   6    -0.07  -0.00  -0.01     0.42   0.01  -0.02     0.02   0.00   0.00
  12   6     0.00   0.00  -0.01    -0.14   0.02  -0.41    -0.05   0.00  -0.05
  13   6     0.07   0.00   0.02    -0.23  -0.01  -0.03     0.06  -0.00   0.05
  14   6    -0.14  -0.00   0.01     0.01  -0.01   0.09    -0.04   0.00  -0.03
  15  17    -0.00   0.00  -0.00    -0.00   0.00  -0.00     0.00   0.00  -0.00
  16   1    -0.16  -0.18   0.19    -0.02  -0.03   0.04    -0.01  -0.01  -0.08
  17   1     0.17   0.01  -0.16     0.02  -0.00  -0.02     0.01   0.04  -0.12
  18   1     0.05  -0.11  -0.03     0.00  -0.01  -0.00    -0.11  -0.08   0.10
  19   1    -0.10  -0.29  -0.15    -0.00  -0.02  -0.03    -0.01  -0.02   0.11
  20   1    -0.05   0.15   0.03     0.00   0.03  -0.00     0.03  -0.19  -0.08
  21   1    -0.14   0.12   0.07    -0.02   0.02   0.00     0.18   0.01  -0.08
  22   1    -0.06   0.08   0.06    -0.00  -0.01  -0.00    -0.22   0.12   0.03
  23   1     0.03  -0.01  -0.00     0.04  -0.01   0.03    -0.21   0.06  -0.23
  24   1    -0.11   0.01  -0.01    -0.03   0.00  -0.02     0.01  -0.00   0.06
  25   1    -0.00   0.00   0.01    -0.03   0.00   0.03     0.28   0.02  -0.28
  26   1     0.05   0.01  -0.03    -0.19  -0.03   0.39    -0.01  -0.00   0.08
  27   1    -0.05   0.00  -0.07     0.20  -0.01   0.14    -0.03   0.00  -0.07
  28   1    -0.02  -0.00  -0.00    -0.21   0.00  -0.13    -0.12  -0.00  -0.02
  29   1     0.08  -0.00  -0.09    -0.28   0.00   0.31     0.01  -0.00   0.03
                     43                     44                     45
                        a                      a                      a 
 Frequencies --  1137.1019              1162.8542              1177.3825
 Red. masses --     6.3915                 3.7620                 1.8063
 Frc consts  --     0.0000                 0.0000                 0.0000
 IR Inten    --     4.1002                12.1767                 2.0303
 Raman Activ --     0.0000                 0.0000                 0.0000
 Depolar     --     0.0000                 0.0000                 0.0000
 Atom AN      X      Y      Z        X      Y      Z        X      Y      Z
   1   7     0.09   0.04   0.10    -0.02   0.00   0.00     0.00   0.00   0.02
   2   6    -0.19  -0.09  -0.25     0.04   0.01   0.01    -0.01  -0.00  -0.04
   3   6     0.07   0.11   0.34    -0.04   0.01  -0.00     0.01   0.01   0.03
   4   8     0.05  -0.04  -0.17     0.11  -0.01   0.06     0.01  -0.01   0.01
   5   6    -0.08   0.03  -0.02    -0.22   0.01  -0.06    -0.08   0.00   0.03
   6   6     0.23   0.00   0.06    -0.04   0.00  -0.10    -0.01   0.00  -0.03
   7   6     0.01   0.00  -0.12    -0.02  -0.01   0.12     0.02  -0.00   0.02
   8   6    -0.23  -0.00  -0.07     0.00   0.00  -0.07    -0.01  -0.00   0.05
   9   6     0.10  -0.00   0.09     0.10   0.00   0.02    -0.05   0.01  -0.11
  10   6    -0.07   0.00  -0.06    -0.07   0.01  -0.16    -0.03   0.00  -0.03
  11   6     0.02   0.00   0.00     0.06  -0.00   0.08    -0.07   0.00  -0.08
  12   6     0.02   0.00   0.00     0.08   0.00  -0.03     0.09   0.00   0.03
  13   6    -0.09   0.00  -0.07    -0.23  -0.00  -0.04     0.04  -0.00   0.02
  14   6    -0.01  -0.01   0.09     0.04  -0.01   0.16     0.14  -0.00   0.00
  15  17     0.00   0.00  -0.00    -0.00   0.00  -0.00     0.00   0.00  -0.00
  16   1    -0.02  -0.03  -0.06    -0.00  -0.00   0.02    -0.00  -0.00  -0.00
  17   1     0.01   0.05  -0.13     0.03  -0.01  -0.01     0.01   0.00  -0.02
  18   1    -0.12  -0.09   0.12     0.01   0.01  -0.01    -0.02  -0.01   0.01
  19   1    -0.00  -0.00   0.11    -0.01  -0.02  -0.01    -0.00  -0.01   0.01
  20   1     0.04  -0.19  -0.11    -0.01   0.01   0.01     0.01  -0.02  -0.02
  21   1     0.22   0.12  -0.11     0.01  -0.05  -0.01     0.01   0.03  -0.01
  22   1    -0.20   0.03  -0.02     0.01   0.01   0.01     0.01  -0.04  -0.02
  23   1     0.19  -0.03   0.26    -0.01  -0.00  -0.02     0.06  -0.02   0.12
  24   1     0.11   0.01  -0.03    -0.11  -0.00   0.03    -0.14   0.00  -0.00
  25   1    -0.26  -0.01   0.26     0.19   0.02  -0.29     0.01   0.00  -0.00
  26   1     0.01   0.01  -0.07     0.17   0.02  -0.33    -0.21  -0.02   0.30
  27   1     0.06  -0.01   0.11     0.20  -0.02   0.38    -0.26   0.02  -0.50
  28   1     0.11  -0.00   0.01     0.44   0.00   0.02     0.56   0.00   0.05
  29   1    -0.00   0.00  -0.05    -0.23  -0.00   0.23    -0.18  -0.01   0.30
                     46                     47                     48
                        a                      a                      a 
 Frequencies --  1189.4436              1206.6530              1216.6023
 Red. masses --     3.0661                 4.0577                 5.1439
 Frc consts  --     0.0000                 0.0000                 0.0000
 IR Inten    --    18.3695                14.4536                42.7928
 Raman Activ --     0.0000                 0.0000                 0.0000
 Depolar     --     0.0000                 0.0000                 0.0000
 Atom AN      X      Y      Z        X      Y      Z        X      Y      Z
   1   7    -0.04  -0.01  -0.04     0.11  -0.03   0.08    -0.02  -0.02  -0.09
   2   6     0.07   0.02   0.11    -0.12   0.02  -0.14     0.04   0.02   0.18
   3   6    -0.05  -0.02  -0.02     0.04   0.02  -0.04    -0.02  -0.11   0.02
   4   8     0.13  -0.01   0.02    -0.06  -0.01   0.02    -0.07   0.02  -0.26
   5   6    -0.20   0.02  -0.18     0.14  -0.03   0.23     0.24  -0.01   0.20
   6   6    -0.09  -0.00  -0.09     0.10   0.00  -0.03     0.15  -0.01   0.10
   7   6     0.11  -0.00   0.12     0.01   0.00  -0.01    -0.05   0.00  -0.08
   8   6    -0.00   0.00   0.00     0.11   0.00  -0.01     0.06   0.00  -0.06
   9   6     0.09  -0.00   0.03     0.04   0.01  -0.15    -0.02   0.00  -0.07
  10   6    -0.02  -0.00  -0.01     0.03   0.00  -0.05     0.04   0.00  -0.06
  11   6    -0.00   0.00  -0.03    -0.05  -0.00   0.02    -0.02  -0.00   0.03
  12   6     0.03   0.00  -0.04     0.03   0.00  -0.07    -0.02   0.00  -0.07
  13   6    -0.06   0.00   0.00    -0.04  -0.01   0.06    -0.01  -0.00   0.01
  14   6    -0.09  -0.00   0.07    -0.24  -0.00   0.11    -0.18  -0.01   0.16
  15  17    -0.00   0.00  -0.00     0.00  -0.00   0.00    -0.00  -0.00   0.00
  16   1     0.01   0.01   0.03     0.01   0.00  -0.08     0.02   0.02   0.02
  17   1     0.02  -0.02   0.02    -0.06   0.03  -0.02    -0.02  -0.02   0.07
  18   1     0.04   0.03  -0.05    -0.09  -0.04   0.10     0.05   0.04  -0.06
  19   1    -0.01  -0.01  -0.03    -0.07  -0.11   0.15     0.01   0.02  -0.02
  20   1    -0.04   0.03   0.06     0.14   0.10  -0.14    -0.05   0.03   0.08
  21   1     0.04  -0.20  -0.05    -0.19   0.25   0.18     0.14  -0.27  -0.13
  22   1    -0.07   0.16   0.08     0.12  -0.23  -0.12    -0.29   0.44   0.20
  23   1    -0.17   0.04  -0.31    -0.20   0.04  -0.46    -0.04   0.04  -0.14
  24   1     0.66  -0.00   0.08    -0.10  -0.00  -0.01    -0.34   0.00  -0.05
  25   1    -0.18  -0.02   0.27    -0.13  -0.01   0.23    -0.06  -0.00   0.09
  26   1    -0.07  -0.01   0.09    -0.02  -0.00   0.02    -0.02  -0.00   0.04
  27   1    -0.01   0.00  -0.03     0.04  -0.01   0.12     0.01  -0.00   0.04
  28   1     0.17   0.00   0.00     0.21   0.00  -0.01     0.18   0.01  -0.01
  29   1    -0.02  -0.00   0.01     0.00   0.00  -0.01     0.04   0.00  -0.06
                     49                     50                     51
                        a                      a                      a 
 Frequencies --  1226.6628              1229.6639              1246.7322
 Red. masses --     8.0227                 3.2364                 4.7067
 Frc consts  --     0.0000                 0.0000                 0.0000
 IR Inten    --    17.6689                35.7451                 4.2687
 Raman Activ --     0.0000                 0.0000                 0.0000
 Depolar     --     0.0000                 0.0000                 0.0000
 Atom AN      X      Y      Z        X      Y      Z        X      Y      Z
   1   7     0.01  -0.01  -0.01    -0.18   0.15  -0.06    -0.00   0.01   0.00
   2   6     0.01   0.03   0.02     0.05  -0.22  -0.00     0.00  -0.01  -0.01
   3   6    -0.02  -0.00   0.02     0.15   0.11   0.10     0.01   0.01  -0.02
   4   8     0.06  -0.01   0.01    -0.07  -0.01   0.00    -0.02   0.01   0.06
   5   6    -0.26   0.01   0.03     0.05  -0.00   0.06    -0.03  -0.00  -0.07
   6   6    -0.11   0.01  -0.09     0.01  -0.00  -0.00     0.03   0.00  -0.04
   7   6     0.10  -0.01   0.21     0.00  -0.00   0.02    -0.08  -0.00   0.03
   8   6     0.06  -0.00   0.09     0.06   0.00   0.00    -0.04   0.01  -0.12
   9   6     0.35   0.03  -0.44     0.03   0.00  -0.10     0.21  -0.01   0.18
  10   6    -0.13   0.00  -0.03     0.01   0.00  -0.02    -0.03   0.00  -0.07
  11   6    -0.19  -0.00  -0.03    -0.03  -0.00   0.01    -0.00   0.00  -0.04
  12   6     0.06  -0.00   0.08     0.01   0.00  -0.02    -0.13   0.00  -0.10
  13   6    -0.02  -0.00   0.11    -0.00  -0.00   0.03    -0.11   0.01  -0.09
  14   6     0.21   0.01  -0.20    -0.08   0.00   0.01     0.08  -0.02   0.40
  15  17    -0.00   0.00  -0.00    -0.00   0.00  -0.00    -0.00  -0.00   0.00
  16   1     0.01   0.01   0.01    -0.09  -0.07   0.14    -0.01  -0.01   0.00
  17   1    -0.01  -0.00   0.01     0.14  -0.03  -0.03    -0.00   0.00   0.01
  18   1    -0.02   0.01   0.01     0.13  -0.05  -0.14     0.01  -0.01  -0.00
  19   1    -0.03  -0.04   0.02     0.27   0.42  -0.31     0.01   0.01  -0.01
  20   1     0.01   0.02  -0.00    -0.27  -0.40   0.18    -0.00  -0.01  -0.00
  21   1     0.05  -0.06  -0.04     0.02   0.13   0.04    -0.03   0.04   0.03
  22   1    -0.02   0.05   0.03     0.08  -0.17  -0.09     0.05  -0.07  -0.03
  23   1     0.02  -0.02   0.08    -0.06   0.03  -0.13     0.01  -0.00  -0.00
  24   1    -0.25  -0.00   0.04    -0.06  -0.00   0.00    -0.00   0.00   0.01
  25   1    -0.08  -0.01   0.18    -0.05  -0.01   0.10     0.15   0.01  -0.26
  26   1    -0.21  -0.02   0.24    -0.01  -0.00   0.02    -0.25  -0.02   0.35
  27   1     0.10  -0.02   0.31     0.02  -0.00   0.07     0.01   0.00   0.02
  28   1    -0.14  -0.00   0.01     0.05   0.00   0.00     0.17   0.01  -0.01
  29   1     0.05  -0.00  -0.05    -0.01   0.00   0.01     0.29   0.02  -0.51
                     52                     53                     54
                        a                      a                      a 
 Frequencies --  1303.3038              1326.6852              1334.4498
 Red. masses --     4.2309                 8.0022                 4.4213
 Frc consts  --     0.0000                 0.0000                 0.0000
 IR Inten    --     4.5205                 1.5872                 5.0818
 Raman Activ --     0.0000                 0.0000                 0.0000
 Depolar     --     0.0000                 0.0000                 0.0000
 Atom AN      X      Y      Z        X      Y      Z        X      Y      Z
   1   7    -0.01   0.02   0.07    -0.01   0.02   0.09     0.01  -0.07  -0.14
   2   6    -0.17  -0.15   0.03    -0.09  -0.17   0.03     0.10   0.33  -0.05
   3   6     0.13  -0.28  -0.12    -0.01  -0.02  -0.08     0.03  -0.23  -0.02
   4   8     0.11   0.02   0.00     0.02   0.02   0.09     0.08   0.02   0.05
   5   6    -0.14  -0.00   0.13     0.23   0.01  -0.41     0.08   0.00  -0.16
   6   6     0.01   0.01  -0.12    -0.11  -0.00   0.14    -0.05  -0.00   0.04
   7   6     0.07   0.00  -0.03    -0.19  -0.01   0.12    -0.07  -0.00   0.04
   8   6    -0.11  -0.00   0.06     0.22   0.00  -0.03     0.08   0.00   0.00
   9   6     0.05  -0.00   0.02    -0.11   0.01  -0.09    -0.06   0.00  -0.03
  10   6    -0.05  -0.00   0.08     0.16   0.01  -0.22     0.08   0.01  -0.09
  11   6     0.01   0.00  -0.06    -0.05  -0.01   0.10    -0.02  -0.00   0.03
  12   6     0.08   0.00  -0.01    -0.20  -0.00   0.03    -0.09  -0.00   0.01
  13   6    -0.06  -0.00   0.01     0.15  -0.00   0.03     0.06   0.00   0.02
  14   6     0.09   0.00  -0.04    -0.18   0.00   0.02    -0.07   0.00  -0.00
  15  17     0.00   0.00   0.00    -0.00   0.00   0.00     0.00  -0.00  -0.00
  16   1    -0.01   0.02  -0.07    -0.01   0.01  -0.06     0.06   0.02   0.12
  17   1     0.04   0.02  -0.09     0.05   0.02  -0.10    -0.04  -0.04   0.12
  18   1     0.05  -0.01  -0.02     0.05  -0.01  -0.01    -0.10   0.06   0.03
  19   1     0.15   0.27  -0.04     0.10   0.16  -0.06    -0.16  -0.24   0.11
  20   1     0.09   0.15  -0.07     0.15   0.26  -0.11    -0.25  -0.45   0.17
  21   1    -0.23   0.46   0.21    -0.03   0.06   0.00    -0.17   0.36   0.16
  22   1    -0.22   0.40   0.18     0.04   0.06   0.04    -0.12   0.12   0.06
  23   1     0.01  -0.00  -0.02     0.09  -0.03   0.28     0.04   0.01   0.12
  24   1     0.06  -0.00  -0.01     0.05  -0.00   0.05     0.04  -0.00   0.02
  25   1     0.04   0.00  -0.09    -0.04  -0.01   0.15    -0.01  -0.00   0.05
  26   1     0.02   0.00  -0.02    -0.07  -0.01   0.10    -0.02  -0.00   0.04
  27   1    -0.01   0.00  -0.04     0.06  -0.01   0.19     0.03  -0.00   0.08
  28   1    -0.04   0.00  -0.01     0.14   0.00   0.03     0.06  -0.00   0.01
  29   1    -0.00   0.00  -0.02     0.01  -0.00   0.07     0.01  -0.00   0.02
                     55                     56                     57
                        a                      a                      a 
 Frequencies --  1361.8897              1376.1089              1393.0437
 Red. masses --     8.4269                 2.3635                 1.6056
 Frc consts  --     0.0000                 0.0000                 0.0000
 IR Inten    --    42.6671               119.6986                67.9685
 Raman Activ --     0.0000                 0.0000                 0.0000
 Depolar     --     0.0000                 0.0000                 0.0000
 Atom AN      X      Y      Z        X      Y      Z        X      Y      Z
   1   7    -0.02  -0.02   0.01    -0.04  -0.15   0.26    -0.06   0.13   0.09
   2   6    -0.01  -0.00  -0.00     0.06   0.11   0.00     0.00   0.11  -0.00
   3   6     0.02  -0.03  -0.02    -0.02  -0.02   0.02     0.01  -0.03  -0.01
   4   8     0.08   0.00   0.06    -0.01   0.00  -0.00     0.00  -0.00   0.01
   5   6    -0.25   0.01  -0.22     0.02  -0.00   0.01    -0.00   0.00  -0.03
   6   6     0.07  -0.02   0.26    -0.00  -0.00  -0.00    -0.02   0.00  -0.00
   7   6    -0.02  -0.01   0.10    -0.01  -0.00   0.01     0.01  -0.00   0.03
   8   6     0.15   0.02  -0.36     0.01   0.00  -0.00     0.02   0.00  -0.02
   9   6     0.16  -0.00   0.16     0.01   0.00  -0.02    -0.00   0.00  -0.02
  10   6    -0.17   0.00  -0.11    -0.01  -0.00   0.00    -0.02  -0.00  -0.00
  11   6     0.07  -0.01   0.26     0.00  -0.00   0.01     0.02  -0.00   0.04
  12   6     0.02  -0.00   0.07     0.01   0.00  -0.01    -0.00   0.00  -0.01
  13   6     0.11   0.02  -0.32    -0.01  -0.00  -0.00    -0.00  -0.00  -0.02
  14   6     0.08  -0.01   0.16    -0.00   0.00   0.01     0.02  -0.00   0.03
  15  17     0.00  -0.00  -0.00    -0.01  -0.01   0.00    -0.01   0.01  -0.00
  16   1     0.04   0.05   0.03    -0.08  -0.01  -0.37    -0.09   0.05  -0.53
  17   1     0.06  -0.01  -0.05    -0.23   0.18  -0.48     0.15  -0.11   0.31
  18   1    -0.02   0.04   0.02     0.45   0.37  -0.22     0.30  -0.61  -0.21
  19   1     0.01   0.02  -0.01    -0.06  -0.10  -0.03    -0.06  -0.08   0.06
  20   1     0.01   0.00  -0.01    -0.04  -0.17   0.04    -0.02  -0.05   0.02
  21   1    -0.04   0.04   0.04     0.02   0.02  -0.01    -0.02  -0.00   0.02
  22   1    -0.02   0.02   0.01     0.02  -0.02   0.00    -0.04   0.00  -0.01
  23   1    -0.12   0.02  -0.19    -0.00   0.00  -0.01     0.01   0.00   0.02
  24   1    -0.28  -0.00   0.01    -0.01  -0.01   0.00    -0.02   0.01   0.01
  25   1    -0.11  -0.01   0.13    -0.00  -0.01   0.01    -0.02   0.00   0.03
  26   1    -0.04   0.00  -0.04    -0.00  -0.00  -0.00     0.01   0.00  -0.02
  27   1    -0.12   0.01  -0.19    -0.00   0.00  -0.00    -0.01   0.00  -0.02
  28   1    -0.26  -0.00  -0.00    -0.00   0.00  -0.00    -0.01  -0.00  -0.00
  29   1    -0.11  -0.00   0.13     0.00   0.01  -0.01    -0.01   0.01   0.00
                     58                     59                     60
                        a                      a                      a 
 Frequencies --  1407.6498              1417.9560              1425.1587
 Red. masses --    10.6324                 9.0487                 2.4239
 Frc consts  --     0.0000                 0.0000                 0.0000
 IR Inten    --     0.5082                 2.6557                75.9163
 Raman Activ --     0.0000                 0.0000                 0.0000
 Depolar     --     0.0000                 0.0000                 0.0000
 Atom AN      X      Y      Z        X      Y      Z        X      Y      Z
   1   7     0.02   0.01  -0.01    -0.03  -0.01   0.02    -0.24  -0.13   0.08
   2   6     0.00  -0.01   0.00    -0.00   0.00  -0.01    -0.02   0.04  -0.02
   3   6     0.01   0.00  -0.00     0.02   0.02   0.02    -0.02   0.01   0.02
   4   8    -0.02  -0.00   0.01     0.01  -0.01  -0.05    -0.02   0.01  -0.01
   5   6    -0.10   0.00   0.09    -0.20  -0.00   0.22     0.03  -0.00   0.01
   6   6    -0.13   0.01  -0.17     0.20  -0.00   0.06    -0.01  -0.00   0.03
   7   6     0.24  -0.00   0.07    -0.10   0.01  -0.19     0.06   0.00  -0.02
   8   6    -0.02  -0.00   0.06    -0.12  -0.01   0.19    -0.02  -0.00   0.00
   9   6    -0.46   0.01  -0.26    -0.13  -0.01   0.09    -0.06  -0.00  -0.01
  10   6     0.08   0.01  -0.09     0.27   0.02  -0.36     0.00  -0.00   0.07
  11   6     0.16  -0.01   0.22    -0.19  -0.00   0.03     0.03   0.00  -0.05
  12   6    -0.28  -0.00  -0.06    -0.13  -0.01   0.23    -0.04   0.00  -0.03
  13   6     0.06   0.01  -0.10     0.28   0.02  -0.25    -0.03  -0.00   0.08
  14   6     0.44  -0.01   0.28     0.11   0.00  -0.06     0.05   0.00  -0.03
  15  17     0.00  -0.00   0.00    -0.00   0.00   0.00    -0.00  -0.00   0.00
  16   1    -0.02  -0.04   0.03     0.03   0.05  -0.04     0.38   0.54   0.01
  17   1    -0.05   0.02   0.00     0.06  -0.02  -0.02     0.58  -0.17  -0.21
  18   1    -0.02   0.02   0.01     0.03  -0.02  -0.02     0.01   0.08  -0.01
  19   1     0.01   0.01  -0.00    -0.00  -0.00   0.01    -0.06  -0.07  -0.02
  20   1     0.00   0.01   0.00    -0.00  -0.01   0.00     0.06  -0.05  -0.05
  21   1     0.00  -0.00  -0.00     0.01  -0.04   0.01     0.01  -0.00  -0.01
  22   1     0.00  -0.00  -0.00    -0.03  -0.01  -0.02     0.02  -0.03  -0.01
  23   1    -0.01  -0.00   0.00    -0.04   0.01  -0.17    -0.02   0.00  -0.02
  24   1    -0.05  -0.00   0.01     0.13   0.00  -0.05    -0.04  -0.00  -0.01
  25   1    -0.12  -0.01   0.17     0.10   0.01  -0.15    -0.02  -0.00   0.02
  26   1     0.10   0.01  -0.15    -0.15  -0.01   0.23     0.03   0.00  -0.02
  27   1    -0.00   0.00  -0.03     0.06  -0.01   0.23     0.02   0.00   0.00
  28   1     0.05   0.00  -0.01    -0.08  -0.01   0.07     0.06   0.00  -0.00
  29   1     0.11   0.01  -0.16    -0.07  -0.01   0.17     0.06  -0.00  -0.07
                     61                     62                     63
                        a                      a                      a 
 Frequencies --  1442.7773              1470.0108              1477.7021
 Red. masses --     9.4427                 1.8979                 1.9743
 Frc consts  --     0.0000                 0.0000                 0.0000
 IR Inten    --    37.2273                12.7828                12.0531
 Raman Activ --     0.0000                 0.0000                 0.0000
 Depolar     --     0.0000                 0.0000                 0.0000
 Atom AN      X      Y      Z        X      Y      Z        X      Y      Z
   1   7     0.03   0.02   0.00     0.00   0.00   0.01     0.02   0.03  -0.01
   2   6    -0.00  -0.00   0.01    -0.03   0.06   0.13    -0.08   0.11   0.20
   3   6     0.04   0.01  -0.01     0.18   0.12  -0.01    -0.12  -0.09   0.01
   4   8     0.05  -0.00   0.03     0.03  -0.00  -0.00    -0.01  -0.00  -0.00
   5   6    -0.18   0.01  -0.18     0.02   0.00  -0.02    -0.01   0.00   0.02
   6   6     0.01  -0.02   0.30    -0.00   0.00  -0.03     0.00  -0.00   0.00
   7   6     0.20   0.01  -0.06    -0.01  -0.00   0.01     0.01   0.00  -0.01
   8   6    -0.05   0.01  -0.18    -0.01  -0.00   0.03    -0.00   0.00  -0.01
   9   6    -0.16  -0.02   0.31     0.02   0.00  -0.05    -0.01  -0.00   0.02
  10   6     0.10  -0.01   0.14    -0.01   0.00  -0.01     0.01   0.00  -0.01
  11   6     0.04   0.02  -0.29    -0.00  -0.00   0.03    -0.01   0.00  -0.01
  12   6    -0.24  -0.00   0.03     0.03   0.00  -0.01     0.00  -0.00   0.01
  13   6     0.03  -0.01   0.25    -0.01   0.00  -0.02     0.01   0.00  -0.01
  14   6     0.18   0.02  -0.36    -0.03  -0.00   0.04     0.00   0.00  -0.00
  15  17    -0.00   0.00  -0.00     0.00  -0.00   0.00     0.00   0.00  -0.00
  16   1    -0.06  -0.08  -0.02    -0.01  -0.02   0.03    -0.03  -0.05   0.02
  17   1    -0.08   0.03   0.02    -0.02   0.01  -0.00    -0.03   0.00   0.06
  18   1     0.02  -0.02  -0.01    -0.02   0.02   0.02    -0.04  -0.06   0.03
  19   1     0.00   0.01  -0.03    -0.10  -0.05  -0.34    -0.17  -0.09  -0.53
  20   1     0.01  -0.01  -0.01     0.28  -0.16  -0.15     0.43  -0.28  -0.24
  21   1    -0.05  -0.04   0.05    -0.32  -0.32   0.34     0.19   0.21  -0.20
  22   1    -0.07  -0.00  -0.03    -0.49  -0.09  -0.29     0.30   0.08   0.19
  23   1    -0.12   0.01  -0.15     0.05  -0.01   0.09    -0.03   0.01  -0.05
  24   1    -0.21   0.00  -0.04     0.02  -0.00   0.00    -0.00  -0.00  -0.00
  25   1    -0.09  -0.00   0.05     0.01   0.00  -0.01    -0.00  -0.00  -0.00
  26   1     0.03  -0.00   0.04    -0.00   0.00  -0.01    -0.00  -0.00   0.01
  27   1     0.12  -0.01   0.12    -0.01   0.00  -0.01     0.00  -0.00   0.01
  28   1     0.24   0.00   0.03    -0.02   0.00  -0.00    -0.00  -0.00   0.00
  29   1     0.11   0.00  -0.07    -0.01  -0.00   0.00    -0.00  -0.00   0.01
                     64                     65                     66
                        a                      a                      a 
 Frequencies --  1518.0243              1567.5119              1585.8982
 Red. masses --    10.8840                11.5865                11.4960
 Frc consts  --     0.0000                 0.0000                 0.0000
 IR Inten    --    11.4364                35.9525                 3.3753
 Raman Activ --     0.0000                 0.0000                 0.0000
 Depolar     --     0.0000                 0.0000                 0.0000
 Atom AN      X      Y      Z        X      Y      Z        X      Y      Z
   1   7     0.00   0.00  -0.00    -0.01  -0.01   0.00     0.00  -0.00  -0.00
   2   6    -0.00   0.00   0.00     0.00   0.00   0.00     0.00  -0.00  -0.00
   3   6     0.01  -0.00   0.01    -0.00   0.01   0.01    -0.01  -0.01  -0.01
   4   8     0.01  -0.00  -0.02    -0.01  -0.01  -0.04     0.01   0.00   0.03
   5   6    -0.17   0.00   0.02     0.01  -0.02   0.38     0.13   0.01  -0.22
   6   6     0.27  -0.01   0.21    -0.16   0.03  -0.43    -0.13  -0.01   0.13
   7   6    -0.42   0.00  -0.12     0.06  -0.01   0.19     0.51   0.01  -0.13
   8   6     0.10  -0.01   0.17     0.09   0.01  -0.25    -0.43  -0.02   0.32
   9   6     0.18   0.02  -0.25     0.20  -0.01   0.32     0.27   0.01  -0.08
  10   6    -0.20  -0.00   0.01    -0.06   0.00  -0.09    -0.08   0.00  -0.10
  11   6     0.26  -0.01   0.29     0.16  -0.01   0.15     0.11  -0.01   0.20
  12   6    -0.32   0.00  -0.15    -0.37  -0.00  -0.01    -0.21  -0.00  -0.03
  13   6     0.04  -0.01   0.20     0.23   0.01  -0.02     0.13   0.00  -0.05
  14   6     0.11   0.01  -0.23    -0.18   0.01  -0.27    -0.27  -0.00   0.01
  15  17     0.00   0.00  -0.00     0.00  -0.00   0.00    -0.00  -0.00  -0.00
  16   1    -0.01  -0.01   0.00     0.01   0.02   0.00    -0.00  -0.00   0.00
  17   1    -0.01   0.00   0.01     0.01  -0.00  -0.01    -0.00   0.00   0.00
  18   1    -0.01  -0.01   0.00     0.00   0.01  -0.00    -0.00   0.00   0.00
  19   1    -0.00   0.00  -0.01    -0.00  -0.00  -0.00     0.00   0.00   0.00
  20   1     0.01  -0.01  -0.01     0.00  -0.01  -0.00    -0.00   0.01   0.00
  21   1     0.01  -0.00  -0.00     0.01  -0.02  -0.00    -0.00   0.01  -0.00
  22   1    -0.00   0.01   0.00    -0.02  -0.00  -0.01     0.02   0.00   0.01
  23   1    -0.00   0.01  -0.08     0.07  -0.01   0.11    -0.07   0.01  -0.05
  24   1     0.15   0.00  -0.01    -0.01  -0.00   0.05    -0.11   0.00  -0.06
  25   1     0.10   0.00  -0.06    -0.04  -0.00   0.04     0.02   0.01  -0.13
  26   1     0.03   0.01  -0.12    -0.03  -0.00   0.01    -0.03  -0.00  -0.02
  27   1    -0.03   0.01  -0.13     0.01   0.00  -0.03    -0.02   0.00  -0.04
  28   1     0.11   0.00  -0.03     0.09   0.00   0.02     0.03   0.00  -0.00
  29   1     0.09   0.00  -0.07     0.03  -0.00   0.05    -0.01  -0.00   0.05
                     67                     68                     69
                        a                      a                      a 
 Frequencies --  1610.8851              2879.7221              2933.3891
 Red. masses --    11.4485                 2.0363                 1.8926
 Frc consts  --     0.0000                 0.0000                 0.0000
 IR Inten    --     0.4575              1960.1709                16.1045
 Raman Activ --     0.0000                 0.0000                 0.0000
 Depolar     --     0.0000                 0.0000                 0.0000
 Atom AN      X      Y      Z        X      Y      Z        X      Y      Z
   1   7    -0.00  -0.00  -0.00     0.17  -0.02   0.22    -0.00   0.00  -0.00
   2   6     0.00  -0.00  -0.00    -0.02   0.00  -0.02     0.03  -0.00   0.02
   3   6     0.00   0.00   0.00    -0.00   0.00  -0.01     0.00   0.13  -0.25
   4   8     0.00  -0.00  -0.00    -0.00   0.00  -0.00     0.01  -0.00  -0.01
   5   6    -0.01   0.00   0.01     0.00  -0.00   0.00    -0.00  -0.00  -0.00
   6   6    -0.03  -0.00   0.00    -0.00   0.00  -0.00    -0.01  -0.00   0.00
   7   6     0.09   0.00  -0.01     0.00   0.00  -0.00     0.00   0.00   0.00
   8   6    -0.04   0.00  -0.02    -0.00   0.00  -0.00    -0.00  -0.00   0.00
   9   6    -0.11  -0.01   0.20     0.00  -0.00   0.00    -0.00   0.00  -0.00
  10   6     0.18   0.03  -0.48    -0.00   0.00  -0.00     0.00   0.00   0.00
  11   6    -0.02  -0.02   0.43    -0.00  -0.00   0.00     0.00   0.00  -0.00
  12   6     0.31   0.01  -0.19     0.00  -0.00   0.00     0.00   0.00  -0.00
  13   6    -0.33  -0.02   0.36    -0.00   0.00  -0.00     0.00  -0.00   0.00
  14   6     0.05   0.01  -0.24    -0.00   0.00   0.00     0.00  -0.00  -0.00
  15  17     0.00  -0.00   0.00    -0.01  -0.00  -0.01     0.00   0.00   0.00
  16   1     0.00   0.00   0.00    -0.07   0.05   0.03     0.00  -0.00  -0.00
  17   1     0.00  -0.00  -0.00     0.01  -0.02   0.00     0.00   0.00   0.00
  18   1    -0.00   0.00   0.00    -0.51   0.04  -0.80     0.01  -0.00   0.02
  19   1     0.00   0.00   0.00     0.01  -0.01  -0.01    -0.03   0.03   0.01
  20   1    -0.00   0.00   0.00     0.06   0.01   0.08    -0.08  -0.00  -0.12
  21   1     0.00  -0.00  -0.00     0.01   0.00   0.01     0.28   0.03   0.25
  22   1     0.00  -0.00   0.00    -0.01  -0.02   0.02    -0.30  -0.46   0.68
  23   1    -0.01  -0.00  -0.00     0.00  -0.00   0.00     0.02  -0.00  -0.01
  24   1    -0.03   0.00  -0.01    -0.00  -0.00   0.00    -0.00  -0.00   0.00
  25   1    -0.02  -0.00   0.00     0.00  -0.00   0.00     0.00  -0.00   0.00
  26   1    -0.09  -0.00   0.07     0.00  -0.00   0.00    -0.00   0.00  -0.00
  27   1    -0.10   0.00  -0.07     0.00   0.00  -0.00    -0.00   0.00   0.00
  28   1    -0.08   0.00  -0.07    -0.00   0.00  -0.00     0.00   0.00   0.00
  29   1     0.03   0.00  -0.10     0.00  -0.00   0.00    -0.00   0.00  -0.00
                     70                     71                     72
                        a                      a                      a 
 Frequencies --  2954.4927              2972.5028              2981.6393
 Red. masses --     1.9103                 1.6407                 1.5304
 Frc consts  --     0.0000                 0.0000                 0.0000
 IR Inten    --     5.9132                 5.5970                 7.8338
 Raman Activ --     0.0000                 0.0000                 0.0000
 Depolar     --     0.0000                 0.0000                 0.0000
 Atom AN      X      Y      Z        X      Y      Z        X      Y      Z
   1   7    -0.02   0.00  -0.02     0.00  -0.00   0.01    -0.01   0.01  -0.02
   2   6    -0.23   0.09  -0.13     0.10  -0.05   0.01     0.05  -0.10  -0.18
   3   6     0.06   0.04  -0.00     0.18   0.05   0.09    -0.04  -0.01  -0.04
   4   8     0.01  -0.00  -0.00     0.01  -0.00  -0.00    -0.00   0.00   0.00
   5   6    -0.00  -0.00  -0.00    -0.00   0.00  -0.00     0.00  -0.00  -0.00
   6   6    -0.00  -0.00   0.00    -0.00  -0.00   0.00     0.00   0.00  -0.00
   7   6     0.00   0.00  -0.00     0.00   0.00  -0.00     0.00  -0.00  -0.00
   8   6    -0.00   0.00   0.00     0.00  -0.00   0.00    -0.00  -0.00   0.00
   9   6    -0.00   0.00  -0.00    -0.00   0.00  -0.00    -0.00   0.00  -0.00
  10   6     0.00   0.00   0.00    -0.00  -0.00  -0.00     0.00  -0.00   0.00
  11   6     0.00   0.00  -0.00     0.00   0.00  -0.00     0.00  -0.00  -0.00
  12   6     0.00   0.00   0.00    -0.00   0.00  -0.00     0.00   0.00  -0.00
  13   6    -0.00  -0.00   0.00     0.00  -0.00   0.00     0.00  -0.00   0.00
  14   6     0.00   0.00  -0.00    -0.00   0.00  -0.00     0.00  -0.00  -0.00
  15  17     0.00   0.00   0.00    -0.00   0.00  -0.00     0.00   0.00   0.00
  16   1    -0.00   0.00  -0.00     0.00  -0.00   0.00     0.03  -0.03  -0.01
  17   1     0.00   0.00   0.00     0.00   0.00   0.00    -0.00  -0.00  -0.00
  18   1     0.05  -0.00   0.07    -0.01   0.00  -0.02     0.03  -0.00   0.05
  19   1     0.50  -0.32  -0.10    -0.30   0.19   0.05    -0.56   0.34   0.07
  20   1     0.33   0.02   0.56    -0.04  -0.01  -0.08     0.37  -0.00   0.57
  21   1    -0.17  -0.00  -0.18    -0.57  -0.01  -0.60     0.14   0.00   0.14
  22   1    -0.07  -0.13   0.20    -0.09  -0.17   0.28     0.00   0.01  -0.01
  23   1     0.01   0.00  -0.00     0.01   0.00  -0.00    -0.00   0.00   0.00
  24   1    -0.00  -0.00   0.00    -0.00  -0.00   0.00    -0.00  -0.00   0.00
  25   1     0.00  -0.00   0.00    -0.00  -0.00  -0.00     0.00  -0.00   0.00
  26   1    -0.00   0.00  -0.00     0.00  -0.00   0.00    -0.00  -0.00  -0.00
  27   1    -0.00   0.00   0.00    -0.00   0.00   0.00    -0.00  -0.00   0.00
  28   1     0.00   0.00  -0.00    -0.00   0.00   0.00    -0.00   0.00   0.00
  29   1    -0.00   0.00  -0.00    -0.00   0.00  -0.00    -0.00   0.00  -0.00
                     73                     74                     75
                        a                      a                      a 
 Frequencies --  3095.2253              3096.9036              3105.0291
 Red. masses --     1.7699                 1.7869                 1.8265
 Frc consts  --     0.0000                 0.0000                 0.0000
 IR Inten    --    13.3644                16.9810                24.5188
 Raman Activ --     0.0000                 0.0000                 0.0000
 Depolar     --     0.0000                 0.0000                 0.0000
 Atom AN      X      Y      Z        X      Y      Z        X      Y      Z
   1   7     0.00  -0.00  -0.00     0.00   0.00   0.00    -0.01   0.01   0.00
   2   6     0.00  -0.00   0.00    -0.00  -0.00  -0.00    -0.00   0.00   0.00
   3   6    -0.00  -0.00   0.00     0.00   0.00  -0.00    -0.00  -0.00  -0.00
   4   8     0.00  -0.00   0.00     0.00  -0.00   0.00    -0.00   0.00  -0.00
   5   6    -0.00  -0.00   0.00     0.00   0.00  -0.00     0.00   0.00  -0.00
   6   6    -0.00  -0.00   0.00     0.03   0.00  -0.01     0.00   0.00  -0.00
   7   6     0.00   0.00  -0.03    -0.02  -0.01   0.25    -0.00  -0.00   0.02
   8   6     0.02  -0.00   0.01    -0.07   0.00  -0.05     0.01  -0.00   0.01
   9   6    -0.00   0.00  -0.00    -0.00   0.00  -0.00    -0.00   0.00  -0.00
  10   6    -0.06   0.00  -0.04     0.00  -0.00   0.00    -0.08   0.00  -0.05
  11   6     0.20   0.01  -0.10     0.03   0.00  -0.01     0.09   0.00  -0.05
  12   6    -0.01  -0.01   0.12    -0.00  -0.00   0.03     0.02   0.01  -0.22
  13   6    -0.02  -0.00  -0.01    -0.00   0.00  -0.00     0.06  -0.00   0.04
  14   6    -0.00   0.00  -0.00     0.00   0.00  -0.00     0.00  -0.00   0.00
  15  17     0.00  -0.00   0.00     0.00  -0.00  -0.00    -0.00   0.00   0.00
  16   1    -0.00   0.00   0.00     0.00  -0.00  -0.00     0.03  -0.02  -0.01
  17   1    -0.00  -0.00  -0.00    -0.00  -0.00  -0.00    -0.00  -0.00  -0.00
  18   1     0.00  -0.00   0.00    -0.00   0.00  -0.00    -0.00   0.00  -0.01
  19   1    -0.00   0.00   0.00    -0.00   0.00   0.00     0.00  -0.00  -0.00
  20   1    -0.00  -0.00  -0.00     0.00   0.00   0.00    -0.00   0.00  -0.00
  21   1    -0.00  -0.00   0.00    -0.00   0.00  -0.00     0.00  -0.00   0.00
  22   1     0.00   0.00  -0.00    -0.00  -0.00   0.00     0.00   0.00  -0.00
  23   1     0.01   0.00  -0.01    -0.12  -0.01   0.06    -0.02  -0.00   0.01
  24   1    -0.01  -0.01   0.12     0.07   0.05  -0.88     0.00   0.00  -0.06
  25   1    -0.06   0.00  -0.04     0.27  -0.01   0.18    -0.03   0.00  -0.02
  26   1     0.22  -0.01   0.15    -0.00   0.00  -0.00     0.29  -0.01   0.19
  27   1    -0.71  -0.03   0.35    -0.09  -0.00   0.05    -0.32  -0.01   0.16
  28   1     0.03   0.02  -0.45     0.01   0.01  -0.10    -0.06  -0.04   0.77
  29   1     0.07  -0.00   0.04     0.02  -0.00   0.01    -0.22   0.00  -0.15
                     76                     77                     78
                        a                      a                      a 
 Frequencies --  3113.5268              3117.1295              3122.5068
 Red. masses --     1.8737                 1.8595                 1.8681
 Frc consts  --     0.0000                 0.0000                 0.0000
 IR Inten    --    15.7101                66.6372                 9.2739
 Raman Activ --     0.0000                 0.0000                 0.0000
 Depolar     --     0.0000                 0.0000                 0.0000
 Atom AN      X      Y      Z        X      Y      Z        X      Y      Z
   1   7     0.01  -0.00  -0.00    -0.01   0.01   0.01     0.04  -0.04  -0.02
   2   6     0.00  -0.00  -0.00    -0.00   0.00   0.00     0.00  -0.00  -0.00
   3   6     0.00   0.00  -0.00     0.00   0.00  -0.00     0.00   0.00  -0.00
   4   8    -0.00  -0.00   0.00     0.00  -0.00  -0.00     0.00  -0.00   0.00
   5   6     0.00   0.00  -0.00     0.00  -0.00   0.00    -0.00   0.00  -0.00
   6   6     0.02   0.00  -0.01     0.02   0.00  -0.01     0.01   0.00  -0.01
   7   6    -0.01  -0.00   0.08    -0.00  -0.00   0.06     0.00  -0.00   0.00
   8   6     0.16  -0.00   0.11     0.14  -0.00   0.09     0.01  -0.00   0.01
   9   6     0.01   0.00  -0.01     0.01  -0.00   0.00     0.00   0.00   0.00
  10   6    -0.13   0.00  -0.09     0.16  -0.00   0.11     0.02  -0.00   0.02
  11   6    -0.08  -0.00   0.04     0.07   0.00  -0.04     0.03   0.00  -0.01
  12   6    -0.00  -0.00   0.04    -0.00   0.00  -0.02     0.01   0.01  -0.09
  13   6    -0.02   0.00  -0.01     0.03  -0.00   0.02    -0.21   0.00  -0.14
  14   6    -0.00  -0.00   0.00    -0.00   0.00  -0.00    -0.01  -0.00   0.00
  15  17    -0.00  -0.00   0.00     0.00  -0.00  -0.00    -0.00  -0.00   0.00
  16   1    -0.02   0.02   0.00     0.06  -0.04  -0.01    -0.20   0.15   0.04
  17   1     0.00   0.00   0.00    -0.00  -0.01  -0.00     0.01   0.01   0.00
  18   1     0.00  -0.00   0.00    -0.01   0.00  -0.01     0.02  -0.00   0.02
  19   1    -0.00   0.00   0.00     0.00  -0.00  -0.00    -0.01   0.01   0.00
  20   1     0.00   0.00   0.00    -0.00   0.00  -0.00     0.00   0.00   0.00
  21   1    -0.00   0.00  -0.00    -0.00  -0.00  -0.00     0.00   0.00   0.00
  22   1    -0.00  -0.00   0.00    -0.00  -0.00   0.00    -0.00  -0.00   0.00
  23   1    -0.08  -0.00   0.04    -0.09  -0.00   0.04    -0.04  -0.00   0.02
  24   1     0.02   0.01  -0.25     0.01   0.01  -0.18     0.00   0.00  -0.01
  25   1    -0.56   0.02  -0.38    -0.49   0.01  -0.33    -0.03   0.00  -0.02
  26   1     0.45  -0.01   0.30    -0.55   0.01  -0.36    -0.07   0.00  -0.05
  27   1     0.25   0.01  -0.13    -0.23  -0.01   0.11    -0.10  -0.00   0.05
  28   1     0.01   0.01  -0.14    -0.01  -0.00   0.08    -0.02  -0.02   0.29
  29   1     0.08  -0.00   0.05    -0.11   0.00  -0.07     0.72  -0.00   0.48
                     79                     80                     81
                        a                      a                      a 
 Frequencies --  3130.9999              3134.3796              3185.4304
 Red. masses --     1.8012                 1.8218                 1.7371
 Frc consts  --     0.0000                 0.0000                 0.0000
 IR Inten    --    54.4372                93.4399                42.3448
 Raman Activ --     0.0000                 0.0000                 0.0000
 Depolar     --     0.0000                 0.0000                 0.0000
 Atom AN      X      Y      Z        X      Y      Z        X      Y      Z
   1   7     0.14  -0.13  -0.05    -0.09   0.08   0.03    -0.08  -0.22  -0.04
   2   6     0.01  -0.00  -0.01    -0.01   0.00   0.00    -0.00  -0.00  -0.00
   3   6    -0.00   0.00  -0.00     0.00   0.00  -0.00    -0.00  -0.00   0.00
   4   8    -0.00   0.00  -0.00     0.00  -0.00  -0.00    -0.00   0.00   0.00
   5   6     0.00   0.00   0.00     0.01  -0.00   0.00     0.00  -0.00  -0.00
   6   6     0.13   0.01  -0.06     0.20   0.01  -0.10    -0.00   0.00  -0.00
   7   6     0.00   0.00  -0.03     0.01   0.00  -0.05    -0.00  -0.00   0.00
   8   6    -0.01   0.00  -0.00    -0.02   0.00  -0.01     0.00  -0.00   0.00
   9   6    -0.00  -0.00   0.00    -0.00   0.00   0.00    -0.00  -0.00  -0.00
  10   6     0.00  -0.00   0.00    -0.01   0.00  -0.01     0.00  -0.00   0.00
  11   6     0.00   0.00  -0.00    -0.00  -0.00   0.00     0.00  -0.00  -0.00
  12   6    -0.00  -0.00   0.01     0.00   0.00  -0.00    -0.00   0.00  -0.00
  13   6     0.06   0.00   0.04    -0.02  -0.00  -0.02    -0.00   0.00  -0.00
  14   6     0.00   0.00   0.00    -0.00  -0.00  -0.00    -0.00   0.00  -0.00
  15  17     0.00  -0.00   0.00    -0.00   0.00  -0.00     0.00  -0.00   0.00
  16   1    -0.61   0.46   0.13     0.39  -0.29  -0.08     0.04  -0.06  -0.02
  17   1     0.03   0.03   0.01    -0.02  -0.02  -0.01     0.30   0.89   0.22
  18   1     0.06  -0.01   0.07    -0.04   0.01  -0.04    -0.03  -0.02  -0.04
  19   1    -0.02   0.01   0.00     0.02  -0.01  -0.00     0.00   0.00  -0.00
  20   1     0.01   0.00   0.01    -0.00   0.00  -0.01     0.00   0.00  -0.00
  21   1     0.00   0.00   0.00    -0.00   0.00  -0.00     0.00   0.00   0.00
  22   1    -0.00  -0.01   0.01    -0.01  -0.01   0.02     0.00   0.00  -0.00
  23   1    -0.44  -0.02   0.22    -0.71  -0.04   0.36    -0.00  -0.00   0.00
  24   1    -0.01  -0.00   0.08    -0.01  -0.01   0.14     0.00   0.00  -0.00
  25   1     0.02  -0.00   0.02     0.06  -0.00   0.04    -0.00  -0.00  -0.00
  26   1    -0.01   0.00  -0.01     0.03  -0.00   0.02    -0.00  -0.00  -0.00
  27   1    -0.00  -0.00   0.00     0.02   0.00  -0.01    -0.00  -0.00   0.00
  28   1     0.00   0.00  -0.04     0.00  -0.00   0.00    -0.00  -0.00   0.00
  29   1    -0.20   0.00  -0.13     0.09  -0.00   0.06     0.00   0.00   0.00
