12
 energy: -13.062675698762 gnorm: 0.000695887179 xtb: 6.5.1 (fef0646)
N            1.06817124684427        0.01572267599557        0.00706714054244
C            2.53435373867872       -0.00030734139021        0.10508270956274
C            3.31348216397388        0.81785538473370       -0.87610000215383
C            3.30466800174432       -0.67999757002792       -0.98295348986361
H            0.67843228864557        0.81724748103843        0.52123676491475
H            0.66852777856862       -0.85070653016107        0.39217490999820
H            0.78499472462797        0.09343259572415       -0.97862952025589
H            2.88957453718046       -0.07520247128613        1.12243442236307
H            4.21082048693676        1.30848416095137       -0.53652228229638
H            2.77538603786508        1.38428632516322       -1.61899699474323
H            4.19603810781719       -1.22388291335430       -0.71635406666008
H            2.76121088711715       -1.12947179738680       -1.79835959140817
