 Entering Gaussian System
 *********************************************
 Gaussian 98:
 frequency output generated by the xtb code
 *********************************************
                         Standard orientation:
 --------------------------------------------------------------------
  Center     Atomic     Atomic              Coordinates (Angstroms)
  Number     Number      Type              X           Y           Z
 --------------------------------------------------------------------
    1          7             0       -1.897508    0.000011    0.743507
    2          6             0       -1.087172    0.000005   -0.517036
    3          6             0       -0.220206    1.272200   -0.639252
    4          6             0        0.966478    1.269076    0.340654
    5          6             0        1.821311   -0.000009    0.183264
    6          6             0        0.966475   -1.269085    0.340659
    7          6             0       -0.220219   -1.272200   -0.639237
    8          1             0       -2.497813    0.830245    0.796037
    9          1             0       -1.291125   -0.000120    1.570445
   10          1             0       -2.498012   -0.830086    0.795920
   11          1             0       -1.808065    0.000007   -1.354314
   12          1             0       -0.844710    2.157644   -0.474341
   13          1             0        0.156531    1.362376   -1.664033
   14          1             0        0.597732    1.337689    1.369646
   15          1             0        1.583802    2.165362    0.195661
   16          1             0        2.648503   -0.000032    0.905011
   17          1             0        2.294507   -0.000003   -0.805388
   18          1             0        0.597768   -1.337761    1.369670
   19          1             0        1.583789   -2.165358    0.195558
   20          1             0       -0.844723   -2.157637   -0.474343
   21          1             0        0.156517   -1.362374   -1.664028
 --------------------------------------------------------------------
     1 basis functions        1 primitive gaussians
     1 alpha electrons        1 beta electrons

 Harmonic frequencies (cm**-1), IR intensities (km*mol⁻¹),
 Raman scattering activities (A**4/amu), Raman depolarization ratios,
 reduced masses (AMU), force constants (mDyne/A) and normal coordinates:
                      1                      2                      3
                        a                      a                      a 
 Frequencies --    68.1839               161.5573               228.6351
 Red. masses --     1.1540                 9.0611                 7.7466
 Frc consts  --     0.0000                 0.0000                 0.0000
 IR Inten    --     0.6825                26.0960                10.2786
 Raman Activ --     0.0000                 0.0000                 0.0000
 Depolar     --     0.0000                 0.0000                 0.0000
 Atom AN      X      Y      Z        X      Y      Z        X      Y      Z
   1   7     0.00  -0.04   0.00     0.50  -0.00   0.25    -0.00  -0.40  -0.00
   2   6    -0.00  -0.01  -0.00    -0.01   0.00  -0.06     0.00   0.08  -0.00
   3   6     0.01  -0.03  -0.04    -0.01  -0.03  -0.25    -0.04   0.13   0.10
   4   6    -0.02   0.03  -0.01    -0.19   0.06  -0.03     0.29   0.11  -0.28
   5   6    -0.00   0.05   0.00    -0.19  -0.00   0.33    -0.00  -0.13  -0.00
   6   6     0.02   0.03   0.01    -0.19  -0.06  -0.03    -0.29   0.11   0.28
   7   6    -0.01  -0.03   0.04    -0.01   0.03  -0.25     0.04   0.13  -0.10
   8   1     0.41   0.27   0.27     0.14   0.00   0.14    -0.04  -0.14   0.08
   9   1     0.00  -0.59  -0.00     0.24   0.00  -0.01     0.00  -0.16  -0.00
  10   1    -0.41   0.27  -0.27     0.14  -0.00   0.14     0.04  -0.14  -0.08
  11   1    -0.00   0.01  -0.00    -0.07   0.00   0.04     0.00   0.05  -0.00
  12   1    -0.00  -0.00  -0.04    -0.00   0.00  -0.15    -0.01   0.02   0.13
  13   1     0.01  -0.03  -0.01     0.04  -0.07  -0.06    -0.11   0.09  -0.00
  14   1    -0.02   0.01  -0.01    -0.11   0.08  -0.03     0.17   0.16  -0.06
  15   1    -0.01   0.01  -0.00    -0.03  -0.00  -0.01     0.13  -0.02  -0.22
  16   1    -0.00   0.02   0.00    -0.13  -0.00   0.18     0.00  -0.03  -0.00
  17   1     0.00   0.01   0.00     0.06  -0.00   0.15    -0.00  -0.14  -0.00
  18   1     0.02   0.01   0.01    -0.11  -0.08  -0.03    -0.17   0.16   0.06
  19   1     0.01   0.01   0.00    -0.03   0.00  -0.01    -0.13  -0.02   0.22
  20   1     0.00  -0.00   0.04    -0.00  -0.00  -0.15     0.01   0.02  -0.13
  21   1    -0.01  -0.03   0.01     0.04   0.07  -0.06     0.11   0.09   0.00
                      4                      5                      6
                        a                      a                      a 
 Frequencies --   306.2799               369.3841               386.4570
 Red. masses --     7.5721                 7.2977                 6.8064
 Frc consts  --     0.0000                 0.0000                 0.0000
 IR Inten    --    11.2312                14.5239                 2.4142
 Raman Activ --     0.0000                 0.0000                 0.0000
 Depolar     --     0.0000                 0.0000                 0.0000
 Atom AN      X      Y      Z        X      Y      Z        X      Y      Z
   1   7     0.36  -0.00  -0.12    -0.00   0.35   0.00    -0.17  -0.00   0.18
   2   6     0.15   0.00  -0.19    -0.00  -0.16   0.00    -0.16   0.00   0.12
   3   6     0.00   0.12   0.07    -0.34   0.04   0.15     0.15  -0.26  -0.16
   4   6    -0.16  -0.07   0.24    -0.09  -0.15  -0.13    -0.06  -0.23   0.10
   5   6    -0.20   0.00  -0.34     0.00  -0.13  -0.00     0.17   0.00  -0.15
   6   6    -0.16   0.07   0.24     0.09  -0.15   0.13    -0.06   0.23   0.10
   7   6     0.00  -0.12   0.07     0.34   0.04  -0.15     0.15   0.26  -0.16
   8   1     0.10   0.00   0.01     0.11   0.18  -0.09    -0.05   0.00   0.03
   9   1     0.15   0.00  -0.07    -0.00   0.11   0.00    -0.06  -0.00   0.06
  10   1     0.10  -0.00   0.01    -0.11   0.18   0.09    -0.05  -0.00   0.03
  11   1     0.04   0.00  -0.05    -0.00  -0.11   0.00    -0.07   0.00   0.05
  12   1    -0.05  -0.00   0.05    -0.13  -0.05   0.23     0.12   0.01  -0.21
  13   1     0.04   0.12   0.04    -0.20   0.19   0.02     0.13  -0.25  -0.03
  14   1    -0.07  -0.16   0.07     0.03  -0.02  -0.02    -0.09  -0.20   0.01
  15   1    -0.06   0.01   0.19    -0.03  -0.05  -0.07    -0.08   0.00   0.16
  16   1     0.09  -0.00  -0.26     0.00   0.03  -0.00     0.09  -0.00  -0.10
  17   1    -0.26   0.00  -0.19    -0.00  -0.08  -0.00    -0.03   0.00  -0.08
  18   1    -0.07   0.16   0.07    -0.03  -0.02   0.02    -0.09   0.20   0.01
  19   1    -0.06  -0.01   0.19     0.03  -0.05   0.07    -0.08  -0.00   0.16
  20   1    -0.05   0.00   0.05     0.13  -0.05  -0.23     0.12  -0.01  -0.21
  21   1     0.04  -0.12   0.04     0.20   0.19  -0.02     0.13   0.25  -0.03
                      7                      8                      9
                        a                      a                      a 
 Frequencies --   445.6236               475.1186               624.1649
 Red. masses --     9.1225                 7.5428                 6.2310
 Frc consts  --     0.0000                 0.0000                 0.0000
 IR Inten    --     4.2537                 5.6809                19.0799
 Raman Activ --     0.0000                 0.0000                 0.0000
 Depolar     --     0.0000                 0.0000                 0.0000
 Atom AN      X      Y      Z        X      Y      Z        X      Y      Z
   1   7     0.00  -0.13  -0.00    -0.14  -0.00   0.09    -0.05  -0.00   0.18
   2   6    -0.00   0.30  -0.00     0.24   0.00   0.26     0.36  -0.00   0.24
   3   6    -0.09   0.30  -0.28     0.17   0.06  -0.06     0.03   0.27  -0.15
   4   6    -0.21  -0.24  -0.16    -0.00   0.29   0.04    -0.09  -0.05  -0.13
   5   6     0.00  -0.17   0.00    -0.43  -0.00  -0.10     0.03   0.00  -0.04
   6   6     0.21  -0.24   0.16    -0.00  -0.29   0.04    -0.09   0.05  -0.13
   7   6     0.09   0.30   0.28     0.17  -0.06  -0.06     0.03  -0.27  -0.15
   8   1    -0.07  -0.10   0.11    -0.05  -0.00  -0.07    -0.04  -0.01  -0.11
   9   1     0.00  -0.10  -0.00    -0.17  -0.00   0.12    -0.24  -0.00   0.21
  10   1     0.07  -0.10  -0.11    -0.05   0.00  -0.07    -0.04   0.01  -0.11
  11   1    -0.00   0.01  -0.00     0.08   0.00   0.06     0.06   0.00   0.10
  12   1     0.02   0.11  -0.04     0.02   0.03  -0.18    -0.04   0.02   0.07
  13   1    -0.05   0.08  -0.09     0.11  -0.13  -0.01    -0.08   0.15  -0.07
  14   1    -0.15  -0.15  -0.07     0.01   0.19   0.01    -0.16  -0.21  -0.07
  15   1    -0.03  -0.06   0.10     0.09   0.01  -0.06    -0.03   0.02   0.20
  16   1    -0.00   0.05   0.00     0.01   0.00  -0.18    -0.13  -0.00   0.15
  17   1     0.00  -0.08   0.00    -0.28  -0.00  -0.11     0.19  -0.00   0.08
  18   1     0.15  -0.15   0.07     0.01  -0.19   0.01    -0.16   0.21  -0.07
  19   1     0.03  -0.06  -0.10     0.09  -0.01  -0.06    -0.03  -0.02   0.20
  20   1    -0.02   0.11   0.04     0.02  -0.03  -0.18    -0.04  -0.02   0.07
  21   1     0.05   0.08   0.09     0.11   0.13  -0.01    -0.08  -0.15  -0.07
                     10                     11                     12
                        a                      a                      a 
 Frequencies --   784.1571               812.4560               853.7772
 Red. masses --     9.1776                 4.6183                 5.3933
 Frc consts  --     0.0000                 0.0000                 0.0000
 IR Inten    --    10.1784                 0.1669                 5.8965
 Raman Activ --     0.0000                 0.0000                 0.0000
 Depolar     --     0.0000                 0.0000                 0.0000
 Atom AN      X      Y      Z        X      Y      Z        X      Y      Z
   1   7    -0.31   0.00   0.24    -0.00   0.02   0.00    -0.05  -0.00   0.20
   2   6    -0.28  -0.00  -0.26     0.00   0.19  -0.00     0.05  -0.00  -0.15
   3   6     0.07   0.33  -0.17    -0.22   0.06   0.14     0.12  -0.13  -0.16
   4   6     0.14   0.16   0.10    -0.21  -0.10   0.10     0.02  -0.24  -0.00
   5   6     0.12   0.00   0.05    -0.00  -0.15   0.00    -0.11  -0.00   0.29
   6   6     0.14  -0.16   0.10     0.21  -0.10  -0.10     0.02   0.24  -0.00
   7   6     0.07  -0.33  -0.17     0.22   0.06  -0.14     0.12   0.13  -0.16
   8   1    -0.06   0.01   0.23    -0.01  -0.00   0.02    -0.03  -0.01  -0.03
   9   1     0.16   0.00  -0.11     0.00   0.00  -0.00    -0.13   0.00   0.14
  10   1    -0.06  -0.01   0.23     0.01  -0.00  -0.02    -0.03   0.01  -0.03
  11   1    -0.08  -0.00  -0.06    -0.00   0.02  -0.00    -0.07  -0.00   0.03
  12   1     0.03   0.10  -0.03     0.02   0.12  -0.25     0.05  -0.08   0.25
  13   1     0.04   0.12  -0.04     0.13  -0.24   0.08    -0.11   0.20  -0.07
  14   1    -0.03  -0.01   0.01     0.14   0.23   0.08    -0.08   0.12  -0.04
  15   1     0.07   0.04   0.13     0.02  -0.13  -0.27     0.06  -0.12  -0.10
  16   1     0.09  -0.00  -0.06    -0.00   0.01   0.00     0.20  -0.00  -0.19
  17   1    -0.05  -0.00  -0.03    -0.00   0.05  -0.00    -0.35  -0.00  -0.08
  18   1    -0.03   0.01   0.01    -0.14   0.23  -0.08    -0.08  -0.12  -0.04
  19   1     0.07  -0.04   0.13    -0.02  -0.13   0.27     0.06   0.12  -0.10
  20   1     0.03  -0.10  -0.03    -0.02   0.12   0.25     0.05   0.08   0.25
  21   1     0.04  -0.12  -0.04    -0.13  -0.24  -0.08    -0.11  -0.20  -0.07
                     13                     14                     15
                        a                      a                      a 
 Frequencies --   879.6585               880.1376               929.1258
 Red. masses --     5.9511                 7.6013                 5.4865
 Frc consts  --     0.0000                 0.0000                 0.0000
 IR Inten    --    10.5113                23.8563                 8.1939
 Raman Activ --     0.0000                 0.0000                 0.0000
 Depolar     --     0.0000                 0.0000                 0.0000
 Atom AN      X      Y      Z        X      Y      Z        X      Y      Z
   1   7    -0.00   0.29   0.00     0.18   0.00  -0.06    -0.00   0.15  -0.00
   2   6     0.00   0.24  -0.00    -0.01   0.00   0.07     0.00  -0.14   0.00
   3   6     0.11  -0.26   0.12    -0.22  -0.02  -0.13    -0.05   0.03  -0.27
   4   6    -0.13  -0.11  -0.11    -0.01   0.24   0.12     0.02   0.07   0.28
   5   6    -0.01   0.18  -0.00     0.49   0.00   0.17     0.00  -0.20   0.00
   6   6     0.13  -0.10   0.10    -0.00  -0.25   0.12    -0.02   0.07  -0.28
   7   6    -0.11  -0.26  -0.11    -0.23   0.01  -0.13     0.05   0.03   0.27
   8   1    -0.24  -0.12   0.33     0.02  -0.01  -0.16    -0.13  -0.07   0.19
   9   1     0.00  -0.14  -0.00    -0.16  -0.00   0.14     0.00  -0.10  -0.00
  10   1     0.23  -0.12  -0.32     0.03   0.01  -0.17     0.13  -0.07  -0.19
  11   1     0.00   0.19  -0.00    -0.08   0.00   0.08     0.00  -0.21  -0.00
  12   1     0.03  -0.09   0.17    -0.12  -0.04  -0.06    -0.14  -0.10   0.04
  13   1    -0.03   0.05   0.02    -0.08  -0.02  -0.04    -0.02   0.20  -0.06
  14   1    -0.01   0.04  -0.03    -0.06   0.06   0.01    -0.02   0.24   0.05
  15   1    -0.10  -0.01  -0.13    -0.10   0.13   0.03     0.13  -0.09  -0.05
  16   1    -0.00   0.14   0.00     0.33   0.00  -0.18     0.00  -0.27  -0.00
  17   1     0.00   0.06   0.00    -0.13   0.00  -0.08    -0.00   0.18  -0.00
  18   1     0.01   0.04   0.02    -0.06  -0.06   0.01     0.02   0.24  -0.05
  19   1     0.10  -0.00   0.12    -0.09  -0.13   0.04    -0.13  -0.09   0.05
  20   1    -0.03  -0.09  -0.16    -0.12   0.03  -0.06     0.14  -0.10  -0.04
  21   1     0.03   0.05  -0.02    -0.08   0.02  -0.04     0.02   0.20   0.06
                     16                     17                     18
                        a                      a                      a 
 Frequencies --   953.1090               965.2107               968.7010
 Red. masses --     6.7429                 4.9993                 6.8689
 Frc consts  --     0.0000                 0.0000                 0.0000
 IR Inten    --     6.0788                42.5916                14.2795
 Raman Activ --     0.0000                 0.0000                 0.0000
 Depolar     --     0.0000                 0.0000                 0.0000
 Atom AN      X      Y      Z        X      Y      Z        X      Y      Z
   1   7     0.23  -0.00  -0.06     0.00   0.22  -0.00    -0.04   0.00   0.38
   2   6    -0.28  -0.00   0.06    -0.00   0.02   0.00     0.18   0.00  -0.49
   3   6    -0.10   0.31  -0.02    -0.28  -0.04   0.06    -0.02  -0.05   0.01
   4   6     0.05  -0.26   0.07     0.18   0.16  -0.01    -0.10   0.02   0.10
   5   6    -0.03   0.00   0.05    -0.00  -0.15   0.00     0.09  -0.00  -0.18
   6   6     0.05   0.26   0.07    -0.18   0.16   0.01    -0.10  -0.02   0.10
   7   6    -0.10  -0.31  -0.02     0.28  -0.04  -0.06    -0.02   0.05   0.01
   8   1     0.03  -0.01  -0.20    -0.16  -0.07   0.23    -0.04  -0.02  -0.05
   9   1    -0.19   0.00   0.16     0.00  -0.09  -0.00    -0.23  -0.00   0.25
  10   1     0.03   0.01  -0.20     0.16  -0.07  -0.23    -0.04   0.02  -0.05
  11   1    -0.17   0.00   0.09    -0.00  -0.06   0.00    -0.05  -0.00  -0.04
  12   1     0.10   0.20  -0.13    -0.12  -0.01  -0.18    -0.11  -0.08  -0.07
  13   1     0.10  -0.06   0.03    -0.01  -0.17   0.02     0.21   0.10   0.09
  14   1     0.13   0.04   0.05     0.07  -0.24   0.03     0.17   0.04   0.09
  15   1     0.12  -0.16  -0.10    -0.05   0.14   0.18    -0.09   0.02  -0.15
  16   1     0.00   0.00   0.00     0.00  -0.11  -0.00    -0.09  -0.00   0.09
  17   1    -0.02   0.00   0.01    -0.00  -0.27  -0.00     0.18  -0.00   0.03
  18   1     0.13  -0.04   0.05    -0.07  -0.24  -0.03     0.17  -0.04   0.09
  19   1     0.12   0.16  -0.10     0.05   0.14  -0.18    -0.09  -0.02  -0.15
  20   1     0.10  -0.20  -0.13     0.12  -0.01   0.18    -0.11   0.08  -0.07
  21   1     0.10   0.06   0.03     0.01  -0.17  -0.02     0.21  -0.10   0.09
                     19                     20                     21
                        a                      a                      a 
 Frequencies --  1005.9024              1075.3807              1075.8371
 Red. masses --     7.5392                 3.5061                 6.7058
 Frc consts  --     0.0000                 0.0000                 0.0000
 IR Inten    --    27.3065                 2.8943                 5.3164
 Raman Activ --     0.0000                 0.0000                 0.0000
 Depolar     --     0.0000                 0.0000                 0.0000
 Atom AN      X      Y      Z        X      Y      Z        X      Y      Z
   1   7    -0.21  -0.00  -0.01    -0.00  -0.06   0.00    -0.08   0.00   0.01
   2   6     0.40  -0.00   0.13     0.00   0.30  -0.00     0.26  -0.00  -0.03
   3   6    -0.08   0.17   0.01    -0.12  -0.16   0.02    -0.28  -0.08  -0.15
   4   6    -0.22  -0.21  -0.04    -0.00   0.10   0.02     0.27  -0.11   0.14
   5   6     0.29   0.00   0.12    -0.00  -0.18   0.00    -0.16   0.00   0.02
   6   6    -0.22   0.21  -0.04     0.00   0.11  -0.02     0.27   0.11   0.14
   7   6    -0.08  -0.17   0.01     0.11  -0.16  -0.02    -0.28   0.08  -0.15
   8   1    -0.01   0.02   0.18     0.05   0.03  -0.08    -0.01   0.01   0.06
   9   1     0.19   0.00  -0.18     0.00   0.04  -0.00     0.04  -0.00  -0.04
  10   1    -0.01  -0.02   0.18    -0.05   0.03   0.08    -0.01  -0.01   0.06
  11   1     0.22  -0.00  -0.06     0.00   0.29  -0.00     0.06  -0.00  -0.01
  12   1    -0.05   0.05  -0.13     0.08   0.03   0.07    -0.26  -0.13  -0.15
  13   1     0.06  -0.05   0.02    -0.30  -0.18  -0.11    -0.09  -0.06  -0.05
  14   1     0.03   0.11   0.01    -0.25   0.12  -0.09     0.10  -0.08   0.05
  15   1    -0.07  -0.08  -0.19     0.01   0.03   0.06     0.24  -0.14   0.12
  16   1     0.18   0.00  -0.09    -0.00  -0.38   0.00    -0.06   0.00   0.03
  17   1    -0.08  -0.00  -0.05     0.00   0.19   0.00     0.00  -0.00   0.03
  18   1     0.03  -0.11   0.01     0.25   0.12   0.09     0.10   0.08   0.05
  19   1    -0.07   0.08  -0.19    -0.01   0.03  -0.06     0.24   0.14   0.12
  20   1    -0.05  -0.05  -0.13    -0.08   0.03  -0.07    -0.26   0.13  -0.15
  21   1     0.06   0.05   0.02     0.30  -0.18   0.11    -0.09   0.06  -0.05
                     22                     23                     24
                        a                      a                      a 
 Frequencies --  1098.7802              1138.7016              1152.0830
 Red. masses --     6.9430                 7.8081                 2.2591
 Frc consts  --     0.0000                 0.0000                 0.0000
 IR Inten    --     1.9118                16.4141                 6.0903
 Raman Activ --     0.0000                 0.0000                 0.0000
 Depolar     --     0.0000                 0.0000                 0.0000
 Atom AN      X      Y      Z        X      Y      Z        X      Y      Z
   1   7    -0.00  -0.04  -0.00     0.04  -0.00   0.17    -0.00   0.08   0.00
   2   6     0.00  -0.01   0.00     0.11   0.00  -0.38     0.00  -0.20  -0.00
   3   6     0.16  -0.00   0.06    -0.10   0.03   0.27     0.03   0.06   0.14
   4   6    -0.28   0.23  -0.06     0.10   0.00  -0.27    -0.01   0.03  -0.08
   5   6    -0.00  -0.45   0.00    -0.08   0.00   0.27     0.00  -0.03  -0.00
   6   6     0.28   0.23   0.06     0.10  -0.00  -0.27     0.01   0.03   0.08
   7   6    -0.16   0.00  -0.06    -0.10  -0.03   0.27    -0.03   0.06  -0.14
   8   1     0.03   0.01  -0.05    -0.01  -0.01  -0.02    -0.04  -0.02   0.04
   9   1     0.00   0.02  -0.00    -0.10  -0.00   0.12    -0.00  -0.03   0.00
  10   1    -0.03   0.01   0.05    -0.01   0.01  -0.02     0.04  -0.02  -0.04
  11   1     0.00   0.25   0.00     0.08  -0.00  -0.14     0.00   0.22  -0.00
  12   1    -0.16  -0.13  -0.02     0.05   0.09  -0.11    -0.18  -0.09  -0.11
  13   1     0.16   0.15   0.07     0.01  -0.20   0.06    -0.02  -0.09   0.02
  14   1    -0.07   0.05  -0.01    -0.13  -0.14  -0.11    -0.19   0.07  -0.09
  15   1    -0.12   0.09  -0.03     0.01   0.04   0.12     0.38  -0.23   0.19
  16   1    -0.00  -0.12   0.00     0.12   0.00  -0.09     0.00   0.36   0.00
  17   1    -0.00  -0.35   0.00    -0.21  -0.00  -0.02     0.00   0.07  -0.00
  18   1     0.07   0.05   0.01    -0.13   0.14  -0.11     0.19   0.07   0.09
  19   1     0.12   0.09   0.03     0.01  -0.04   0.12    -0.38  -0.23  -0.19
  20   1     0.16  -0.13   0.02     0.05  -0.09  -0.11     0.18  -0.09   0.11
  21   1    -0.16   0.15  -0.07     0.01   0.20   0.06     0.02  -0.09  -0.02
                     25                     26                     27
                        a                      a                      a 
 Frequencies --  1168.6252              1227.5930              1241.3857
 Red. masses --     4.9575                 3.8109                 3.2887
 Frc consts  --     0.0000                 0.0000                 0.0000
 IR Inten    --    19.8505                 2.8320                 0.8226
 Raman Activ --     0.0000                 0.0000                 0.0000
 Depolar     --     0.0000                 0.0000                 0.0000
 Atom AN      X      Y      Z        X      Y      Z        X      Y      Z
   1   7     0.00   0.13   0.00     0.02  -0.00   0.09    -0.00  -0.01  -0.00
   2   6    -0.00  -0.35   0.00     0.08   0.00  -0.21     0.00   0.12   0.00
   3   6     0.11   0.13   0.20    -0.02  -0.01   0.06     0.02  -0.10  -0.07
   4   6    -0.09   0.07  -0.12    -0.08   0.01   0.17    -0.08   0.13   0.22
   5   6    -0.00  -0.13  -0.00     0.16  -0.00  -0.30    -0.00  -0.14   0.00
   6   6     0.09   0.07   0.12    -0.08  -0.01   0.17     0.08   0.13  -0.22
   7   6    -0.11   0.13  -0.20    -0.02   0.01   0.06    -0.02  -0.10   0.07
   8   1    -0.09  -0.04   0.09    -0.01  -0.01  -0.02     0.01   0.00  -0.01
   9   1    -0.00  -0.09  -0.00    -0.03  -0.00   0.05    -0.00  -0.00   0.00
  10   1     0.09  -0.04  -0.09    -0.01   0.01  -0.02    -0.01   0.00   0.01
  11   1    -0.00  -0.43  -0.00     0.09  -0.00  -0.11     0.00  -0.19   0.00
  12   1     0.27   0.19   0.07     0.15   0.10   0.05     0.17   0.07   0.14
  13   1     0.03  -0.10   0.04    -0.26  -0.20  -0.10    -0.21  -0.07  -0.10
  14   1    -0.21   0.08  -0.10    -0.25   0.27  -0.06     0.03   0.08   0.07
  15   1    -0.05   0.04   0.02     0.18  -0.13   0.03     0.08  -0.04   0.03
  16   1    -0.00  -0.16   0.00    -0.07   0.00   0.06     0.00   0.48   0.00
  17   1     0.00   0.03   0.00     0.19  -0.00  -0.00    -0.00  -0.51  -0.00
  18   1     0.21   0.08   0.10    -0.25  -0.27  -0.06    -0.03   0.08  -0.07
  19   1     0.05   0.04  -0.02     0.18   0.13   0.03    -0.08  -0.04  -0.03
  20   1    -0.27   0.19  -0.07     0.15  -0.10   0.05    -0.17   0.07  -0.14
  21   1    -0.03  -0.10  -0.04    -0.26   0.20  -0.10     0.21  -0.07   0.10
                     28                     29                     30
                        a                      a                      a 
 Frequencies --  1244.4951              1302.6118              1325.3832
 Red. masses --     3.1155                 5.3899                 3.0772
 Frc consts  --     0.0000                 0.0000                 0.0000
 IR Inten    --     2.5198                 3.7786                32.4388
 Raman Activ --     0.0000                 0.0000                 0.0000
 Depolar     --     0.0000                 0.0000                 0.0000
 Atom AN      X      Y      Z        X      Y      Z        X      Y      Z
   1   7     0.04  -0.00  -0.04     0.00  -0.10  -0.00     0.07   0.00   0.22
   2   6    -0.21   0.00   0.09     0.00   0.51   0.00    -0.24  -0.00   0.15
   3   6     0.10  -0.01   0.13    -0.09  -0.20   0.07    -0.05  -0.05  -0.10
   4   6    -0.10   0.00  -0.12     0.08   0.03  -0.07    -0.06   0.05  -0.01
   5   6     0.16  -0.00  -0.05    -0.00  -0.04  -0.00     0.03   0.00   0.03
   6   6    -0.10  -0.00  -0.13    -0.08   0.03   0.07    -0.06  -0.05  -0.01
   7   6     0.10   0.01   0.13     0.09  -0.20  -0.07    -0.05   0.05  -0.10
   8   1    -0.01  -0.01  -0.01     0.06   0.03  -0.04    -0.01  -0.01  -0.20
   9   1    -0.01   0.00   0.01    -0.00   0.07   0.00     0.08  -0.00  -0.00
  10   1    -0.01   0.01  -0.01    -0.06   0.03   0.04    -0.01   0.01  -0.20
  11   1    -0.06  -0.00   0.03     0.00  -0.52  -0.00     0.61   0.00  -0.53
  12   1    -0.27  -0.19  -0.10    -0.06  -0.07  -0.01     0.04   0.02   0.04
  13   1     0.23   0.13   0.12     0.23   0.13   0.13     0.05   0.08   0.01
  14   1    -0.23   0.12  -0.11    -0.18   0.05  -0.09     0.11  -0.05   0.04
  15   1     0.27  -0.18   0.11     0.08  -0.02   0.08     0.08  -0.05   0.04
  16   1     0.05   0.00  -0.02     0.00   0.07   0.00     0.03  -0.00  -0.01
  17   1     0.03  -0.00  -0.02     0.00   0.05   0.00    -0.01   0.00   0.00
  18   1    -0.23  -0.12  -0.11     0.18   0.05   0.09     0.11   0.05   0.04
  19   1     0.27   0.18   0.11    -0.08  -0.02  -0.08     0.08   0.05   0.04
  20   1    -0.27   0.19  -0.10     0.06  -0.07   0.01     0.04  -0.02   0.04
  21   1     0.23  -0.13   0.12    -0.23   0.13  -0.13     0.05  -0.08   0.01
                     31                     32                     33
                        a                      a                      a 
 Frequencies --  1329.3364              1343.2529              1345.6008
 Red. masses --     3.7974                 4.3403                 4.4003
 Frc consts  --     0.0000                 0.0000                 0.0000
 IR Inten    --     1.6780                 8.2863                31.8806
 Raman Activ --     0.0000                 0.0000                 0.0000
 Depolar     --     0.0000                 0.0000                 0.0000
 Atom AN      X      Y      Z        X      Y      Z        X      Y      Z
   1   7    -0.00   0.00   0.00    -0.00   0.05   0.00    -0.13  -0.00   0.02
   2   6     0.00  -0.08  -0.00     0.00  -0.16   0.00     0.22   0.00   0.01
   3   6    -0.19  -0.15  -0.09    -0.20  -0.00  -0.07    -0.25  -0.17  -0.07
   4   6    -0.14   0.12  -0.07     0.25  -0.14   0.12    -0.06   0.12  -0.05
   5   6     0.00   0.18   0.00    -0.00   0.04  -0.00     0.05  -0.00  -0.01
   6   6     0.14   0.12   0.07    -0.25  -0.14  -0.12    -0.06  -0.12  -0.05
   7   6     0.19  -0.15   0.09     0.20  -0.00   0.07    -0.25   0.17  -0.07
   8   1    -0.01  -0.00   0.01    -0.03  -0.01  -0.05     0.11   0.10  -0.05
   9   1     0.00  -0.00  -0.00     0.00  -0.09  -0.00     0.10   0.00  -0.09
  10   1     0.01  -0.00  -0.01     0.03  -0.01   0.05     0.11  -0.10  -0.05
  11   1    -0.00   0.22   0.00     0.00   0.32  -0.00    -0.14  -0.00   0.17
  12   1     0.26   0.15   0.13     0.08   0.09  -0.00     0.30   0.18   0.14
  13   1     0.22   0.12   0.09     0.19   0.10   0.08     0.26   0.11   0.12
  14   1     0.10  -0.08   0.04    -0.29   0.21  -0.11     0.01  -0.01   0.00
  15   1     0.26  -0.16   0.11    -0.16   0.12  -0.03     0.19  -0.09   0.11
  16   1     0.00  -0.28  -0.00    -0.00   0.20   0.00     0.04  -0.00  -0.02
  17   1     0.00  -0.15   0.00     0.00  -0.22   0.00     0.03   0.00   0.00
  18   1    -0.10  -0.08  -0.04     0.29   0.21   0.11     0.01   0.01   0.00
  19   1    -0.26  -0.16  -0.11     0.16   0.12   0.03     0.19   0.09   0.11
  20   1    -0.26   0.15  -0.13    -0.08   0.09   0.00     0.30  -0.18   0.14
  21   1    -0.22   0.12  -0.09    -0.19   0.10  -0.08     0.26  -0.11   0.12
                     34                     35                     36
                        a                      a                      a 
 Frequencies --  1351.4875              1352.8788              1365.8640
 Red. masses --     4.6566                 4.6130                 3.2017
 Frc consts  --     0.0000                 0.0000                 0.0000
 IR Inten    --    30.6789                 3.1202               289.9872
 Raman Activ --     0.0000                 0.0000                 0.0000
 Depolar     --     0.0000                 0.0000                 0.0000
 Atom AN      X      Y      Z        X      Y      Z        X      Y      Z
   1   7    -0.05  -0.00   0.10    -0.00  -0.00   0.00    -0.21   0.00   0.27
   2   6     0.01   0.00   0.08     0.00  -0.06   0.00     0.01   0.00  -0.08
   3   6    -0.14   0.00  -0.03    -0.09  -0.07  -0.06     0.12   0.05   0.07
   4   6     0.30  -0.15   0.08     0.03   0.14  -0.04    -0.06  -0.00  -0.03
   5   6    -0.12   0.00  -0.11    -0.00  -0.49  -0.00     0.02  -0.00   0.03
   6   6     0.30   0.15   0.08    -0.03   0.14   0.04    -0.06   0.00  -0.03
   7   6    -0.14  -0.00  -0.03     0.09  -0.07   0.06     0.12  -0.05   0.07
   8   1     0.03   0.03  -0.14     0.00   0.00   0.03     0.19   0.18  -0.41
   9   1     0.14   0.00  -0.09     0.00   0.03  -0.00     0.36  -0.00  -0.26
  10   1     0.03  -0.03  -0.14    -0.00   0.00  -0.03     0.19  -0.18  -0.41
  11   1     0.08  -0.00  -0.05     0.00   0.12  -0.00    -0.18  -0.00   0.13
  12   1    -0.01   0.03  -0.04     0.15   0.09   0.05    -0.09  -0.06  -0.06
  13   1     0.17   0.10   0.08     0.08   0.07   0.03    -0.14  -0.06  -0.05
  14   1    -0.32   0.19  -0.13     0.11  -0.10   0.04     0.07  -0.03   0.03
  15   1    -0.24   0.16  -0.07    -0.05   0.08   0.03     0.01  -0.01   0.01
  16   1    -0.08  -0.00   0.03    -0.00   0.42   0.00     0.01   0.00   0.00
  17   1     0.03  -0.00   0.01     0.00   0.57   0.00    -0.02   0.00  -0.00
  18   1    -0.32  -0.19  -0.13    -0.11  -0.10  -0.04     0.07   0.03   0.03
  19   1    -0.24  -0.16  -0.07     0.05   0.08  -0.03     0.01   0.01   0.01
  20   1    -0.01  -0.03  -0.04    -0.15   0.09  -0.05    -0.09   0.06  -0.06
  21   1     0.18  -0.10   0.08    -0.08   0.07  -0.03    -0.14   0.06  -0.05
                     37                     38                     39
                        a                      a                      a 
 Frequencies --  1392.6238              1401.7760              1486.0873
 Red. masses --     1.5560                 1.6496                 1.8957
 Frc consts  --     0.0000                 0.0000                 0.0000
 IR Inten    --   102.5454               103.9582                 3.5551
 Raman Activ --     0.0000                 0.0000                 0.0000
 Depolar     --     0.0000                 0.0000                 0.0000
 Atom AN      X      Y      Z        X      Y      Z        X      Y      Z
   1   7     0.15   0.00   0.11    -0.00   0.20  -0.00    -0.00  -0.01   0.00
   2   6     0.09   0.00  -0.01    -0.00   0.09   0.00    -0.00   0.03   0.00
   3   6    -0.02  -0.00  -0.01     0.01  -0.01  -0.01    -0.04   0.14  -0.13
   4   6    -0.02   0.01  -0.02    -0.02   0.03  -0.00     0.00  -0.01  -0.02
   5   6     0.00  -0.00   0.01    -0.00  -0.02  -0.00    -0.00  -0.02   0.00
   6   6    -0.02  -0.01  -0.02     0.02   0.03   0.01    -0.00  -0.01   0.02
   7   6    -0.02   0.00  -0.01    -0.01  -0.01   0.01     0.04   0.14   0.13
   8   1    -0.49  -0.36  -0.17    -0.17  -0.07  -0.42     0.01   0.01   0.01
   9   1     0.30  -0.00  -0.20    -0.00  -0.71   0.00     0.00   0.02  -0.00
  10   1    -0.49   0.36  -0.17     0.17  -0.07   0.42    -0.01   0.01  -0.01
  11   1    -0.12  -0.00   0.12     0.00  -0.04  -0.00     0.00  -0.00  -0.00
  12   1     0.02   0.01   0.04    -0.02  -0.02   0.01    -0.11  -0.16   0.44
  13   1     0.03  -0.04   0.01     0.01  -0.01   0.00     0.24  -0.40   0.05
  14   1     0.03  -0.00   0.01     0.04  -0.06   0.01     0.03   0.05   0.01
  15   1     0.02  -0.01   0.03     0.02  -0.02  -0.03    -0.02   0.03   0.06
  16   1     0.01  -0.00  -0.01    -0.00  -0.00   0.00     0.00   0.01  -0.00
  17   1     0.00   0.00   0.00     0.00   0.05   0.00     0.00   0.02   0.00
  18   1     0.03   0.00   0.01    -0.04  -0.06  -0.01    -0.03   0.05  -0.01
  19   1     0.02   0.01   0.03    -0.02  -0.02   0.03     0.02   0.03  -0.06
  20   1     0.02  -0.01   0.04     0.02  -0.02  -0.01     0.11  -0.16  -0.44
  21   1     0.03   0.04   0.01    -0.01  -0.01  -0.00    -0.24  -0.40  -0.05
                     40                     41                     42
                        a                      a                      a 
 Frequencies --  1493.1736              1508.2703              1511.3058
 Red. masses --     1.9144                 1.8703                 1.9568
 Frc consts  --     0.0000                 0.0000                 0.0000
 IR Inten    --     5.9895                 0.6653                 0.0313
 Raman Activ --     0.0000                 0.0000                 0.0000
 Depolar     --     0.0000                 0.0000                 0.0000
 Atom AN      X      Y      Z        X      Y      Z        X      Y      Z
   1   7    -0.02   0.00   0.01     0.00   0.00   0.00     0.00  -0.01  -0.00
   2   6    -0.02   0.00  -0.02     0.00   0.00   0.01    -0.00  -0.02   0.00
   3   6    -0.02   0.15  -0.12     0.02  -0.02   0.03    -0.01   0.03  -0.01
   4   6     0.00  -0.01  -0.01     0.01   0.06   0.07     0.05   0.14   0.14
   5   6    -0.08   0.00   0.02    -0.24  -0.00   0.05    -0.00   0.00   0.00
   6   6     0.00   0.01  -0.01     0.01  -0.06   0.07    -0.05   0.14  -0.14
   7   6    -0.02  -0.15  -0.12     0.02   0.02   0.03     0.01   0.03   0.01
   8   1     0.04   0.03  -0.01    -0.01  -0.01  -0.01     0.01   0.01   0.03
   9   1    -0.01  -0.00   0.01     0.02  -0.00  -0.01     0.00   0.05   0.00
  10   1     0.04  -0.03  -0.01    -0.01   0.01  -0.01    -0.01   0.01  -0.03
  11   1     0.01  -0.00  -0.02    -0.01  -0.00   0.01    -0.00   0.02   0.00
  12   1    -0.12  -0.16   0.42     0.02   0.03  -0.10    -0.01  -0.01   0.05
  13   1     0.21  -0.40   0.04    -0.05   0.09  -0.01     0.04  -0.04   0.01
  14   1     0.01   0.02  -0.00    -0.12  -0.18  -0.03    -0.26  -0.39  -0.06
  15   1    -0.02   0.01   0.02     0.03  -0.07  -0.21     0.08  -0.13  -0.45
  16   1     0.12   0.00  -0.14     0.38  -0.00  -0.44     0.00   0.02  -0.00
  17   1     0.16  -0.00   0.08     0.52  -0.00   0.25     0.00  -0.00   0.00
  18   1     0.01  -0.02  -0.00    -0.12   0.18  -0.03     0.26  -0.39   0.06
  19   1    -0.02  -0.01   0.02     0.03   0.07  -0.22    -0.08  -0.13   0.45
  20   1    -0.12   0.16   0.42     0.02  -0.03  -0.10     0.01  -0.01  -0.05
  21   1     0.21   0.40   0.04    -0.05  -0.09  -0.01    -0.04  -0.04  -0.01
                     43                     44                     45
                        a                      a                      a 
 Frequencies --  1519.7318              2869.1158              2911.0478
 Red. masses --     1.9900                 1.7682                 1.9177
 Frc consts  --     0.0000                 0.0000                 0.0000
 IR Inten    --     1.0303                14.9246                70.4962
 Raman Activ --     0.0000                 0.0000                 0.0000
 Depolar     --     0.0000                 0.0000                 0.0000
 Atom AN      X      Y      Z        X      Y      Z        X      Y      Z
   1   7    -0.00  -0.00   0.01    -0.00  -0.00   0.00    -0.00   0.00   0.00
   2   6     0.00  -0.00   0.00     0.17  -0.00   0.20    -0.00  -0.00  -0.00
   3   6    -0.01   0.03  -0.02     0.01   0.01  -0.00    -0.00   0.00   0.00
   4   6     0.03   0.13   0.12    -0.00   0.00  -0.00    -0.04  -0.03   0.04
   5   6     0.14  -0.00  -0.02    -0.00   0.00  -0.00    -0.10   0.00  -0.25
   6   6     0.03  -0.13   0.12    -0.00  -0.00  -0.00    -0.04   0.03   0.04
   7   6    -0.01  -0.03  -0.02     0.01  -0.01  -0.00    -0.00  -0.00   0.00
   8   1    -0.00   0.00  -0.02    -0.00  -0.00   0.00    -0.00   0.00  -0.00
   9   1     0.03   0.00  -0.02     0.01  -0.00   0.02     0.00  -0.00  -0.00
  10   1    -0.00  -0.00  -0.02    -0.00   0.00   0.00    -0.00  -0.00  -0.00
  11   1     0.00   0.00   0.00    -0.62   0.00  -0.74     0.01   0.00   0.01
  12   1    -0.01  -0.02   0.08     0.01  -0.01  -0.00     0.01  -0.01  -0.00
  13   1     0.05  -0.07   0.01    -0.01  -0.00   0.03    -0.00  -0.00   0.00
  14   1    -0.22  -0.36  -0.05    -0.00  -0.00   0.00     0.06  -0.01  -0.17
  15   1     0.09  -0.12  -0.39     0.00   0.00  -0.00     0.07   0.10  -0.01
  16   1    -0.19   0.00   0.23     0.01  -0.00   0.01     0.58  -0.00   0.51
  17   1    -0.26   0.00  -0.13    -0.00  -0.00   0.00    -0.22  -0.00   0.42
  18   1    -0.22   0.36  -0.05    -0.00   0.00   0.00     0.06   0.01  -0.17
  19   1     0.09   0.12  -0.39     0.00  -0.00  -0.00     0.07  -0.10  -0.01
  20   1    -0.01   0.02   0.08     0.01   0.01  -0.00     0.01   0.01  -0.00
  21   1     0.05   0.07   0.01    -0.01   0.00   0.03    -0.00   0.00   0.00
                     46                     47                     48
                        a                      a                      a 
 Frequencies --  2913.6967              2915.3341              2935.7398
 Red. masses --     1.9461                 1.9001                 1.9090
 Frc consts  --     0.0000                 0.0000                 0.0000
 IR Inten    --    56.2442                60.3490                24.8968
 Raman Activ --     0.0000                 0.0000                 0.0000
 Depolar     --     0.0000                 0.0000                 0.0000
 Atom AN      X      Y      Z        X      Y      Z        X      Y      Z
   1   7     0.00  -0.00  -0.00    -0.00   0.00  -0.00     0.00  -0.00  -0.00
   2   6    -0.00   0.00  -0.00    -0.00  -0.00   0.00    -0.00   0.01   0.00
   3   6     0.00  -0.00  -0.01    -0.01   0.01   0.01    -0.12   0.12   0.11
   4   6    -0.12  -0.12   0.12     0.11   0.12  -0.10    -0.01  -0.02  -0.02
   5   6    -0.00  -0.01  -0.00    -0.06   0.00  -0.07     0.00  -0.00  -0.00
   6   6     0.12  -0.12  -0.12     0.11  -0.12  -0.10     0.01  -0.02   0.02
   7   6    -0.00  -0.00   0.01    -0.01  -0.01   0.01     0.12   0.12  -0.11
   8   1    -0.00   0.00   0.00     0.00  -0.00   0.00    -0.00   0.00  -0.00
   9   1    -0.00   0.00   0.00    -0.00  -0.00   0.00     0.00   0.00   0.00
  10   1     0.00   0.00  -0.00     0.00   0.00   0.00     0.00   0.00   0.00
  11   1     0.00  -0.00   0.00     0.00   0.00   0.00     0.00   0.00   0.00
  12   1     0.00  -0.01  -0.00     0.01  -0.01  -0.00     0.33  -0.47  -0.09
  13   1    -0.02  -0.00   0.05     0.02   0.00  -0.06     0.10   0.04  -0.31
  14   1     0.11  -0.03  -0.34    -0.10   0.03   0.29    -0.05   0.00   0.12
  15   1     0.32   0.46  -0.07    -0.31  -0.45   0.08     0.06   0.08  -0.02
  16   1     0.00  -0.00   0.00     0.24  -0.00   0.22    -0.00   0.00  -0.00
  17   1    -0.00   0.00   0.00    -0.01  -0.00   0.00    -0.00  -0.00   0.00
  18   1    -0.11  -0.03   0.34    -0.10  -0.03   0.29     0.04   0.00  -0.12
  19   1    -0.32   0.46   0.07    -0.31   0.45   0.08    -0.06   0.08   0.02
  20   1    -0.00  -0.01   0.00     0.01   0.01  -0.00    -0.32  -0.46   0.08
  21   1     0.02  -0.00  -0.05     0.02  -0.00  -0.06    -0.10   0.04   0.30
                     49                     50                     51
                        a                      a                      a 
 Frequencies --  2937.8118              2950.4996              2951.6873
 Red. masses --     1.8810                 1.5731                 1.5598
 Frc consts  --     0.0000                 0.0000                 0.0000
 IR Inten    --    31.8159               134.6805                83.9867
 Raman Activ --     0.0000                 0.0000                 0.0000
 Depolar     --     0.0000                 0.0000                 0.0000
 Atom AN      X      Y      Z        X      Y      Z        X      Y      Z
   1   7     0.00   0.00  -0.00    -0.00  -0.00   0.00    -0.00   0.00  -0.00
   2   6    -0.01  -0.00   0.01     0.00   0.00   0.00    -0.00  -0.00   0.00
   3   6    -0.12   0.12   0.10     0.01  -0.02   0.00     0.03  -0.03  -0.03
   4   6    -0.01  -0.02  -0.02     0.02   0.01  -0.04    -0.00  -0.08  -0.12
   5   6     0.01   0.00  -0.01     0.18   0.00  -0.12     0.00  -0.00  -0.00
   6   6    -0.01   0.02  -0.03     0.02  -0.01  -0.04     0.00  -0.08   0.13
   7   6    -0.12  -0.12   0.10     0.01   0.02  -0.00    -0.03  -0.03   0.03
   8   1     0.00   0.00  -0.00     0.00  -0.00   0.00     0.00  -0.00   0.00
   9   1     0.00  -0.00   0.00    -0.00   0.00   0.00     0.00  -0.00  -0.00
  10   1     0.00  -0.00  -0.00     0.00   0.00   0.00    -0.00  -0.00  -0.00
  11   1     0.00  -0.00   0.00    -0.00   0.00  -0.00    -0.00  -0.00  -0.00
  12   1     0.32  -0.47  -0.09    -0.04   0.06   0.01    -0.08   0.11   0.02
  13   1     0.09   0.04  -0.27     0.01  -0.00  -0.02    -0.03  -0.01   0.08
  14   1    -0.05   0.00   0.12    -0.04   0.00   0.11    -0.20   0.01   0.52
  15   1     0.07   0.10  -0.02    -0.03  -0.04   0.00     0.21   0.28  -0.08
  16   1    -0.02  -0.00  -0.02    -0.31   0.00  -0.33    -0.00  -0.00  -0.00
  17   1    -0.02   0.00   0.04    -0.33   0.00   0.77    -0.00  -0.00   0.01
  18   1    -0.05  -0.00   0.13    -0.04  -0.00   0.12     0.21   0.01  -0.54
  19   1     0.07  -0.10  -0.03    -0.02   0.04   0.00    -0.21   0.29   0.08
  20   1     0.33   0.48  -0.09    -0.04  -0.06   0.01     0.08   0.11  -0.02
  21   1     0.10  -0.04  -0.28     0.01   0.00  -0.02     0.03  -0.01  -0.08
                     52                     53                     54
                        a                      a                      a 
 Frequencies --  2953.9497              2967.0192              2969.3474
 Red. masses --     1.5623                 1.5533                 1.5718
 Frc consts  --     0.0000                 0.0000                 0.0000
 IR Inten    --   109.6845                41.8828                60.9928
 Raman Activ --     0.0000                 0.0000                 0.0000
 Depolar     --     0.0000                 0.0000                 0.0000
 Atom AN      X      Y      Z        X      Y      Z        X      Y      Z
   1   7     0.00   0.00   0.00    -0.00   0.00   0.00     0.00   0.00  -0.00
   2   6     0.00  -0.00  -0.00    -0.00  -0.00  -0.00     0.01  -0.00   0.01
   3   6     0.03  -0.03  -0.03    -0.01  -0.08   0.13    -0.01  -0.08   0.14
   4   6    -0.00  -0.08  -0.12    -0.01  -0.01   0.01    -0.01  -0.01   0.02
   5   6    -0.04  -0.00  -0.02     0.00   0.00  -0.00    -0.01   0.00   0.01
   6   6    -0.00   0.08  -0.12     0.01  -0.01  -0.01    -0.01   0.01   0.02
   7   6     0.03   0.03  -0.03     0.01  -0.08  -0.13    -0.01   0.08   0.14
   8   1    -0.00   0.00   0.00     0.00  -0.00  -0.00    -0.00   0.00   0.00
   9   1    -0.00  -0.00   0.00    -0.00  -0.00  -0.00     0.00   0.00   0.00
  10   1    -0.00  -0.00   0.00    -0.00  -0.00   0.00    -0.00  -0.00   0.00
  11   1     0.01  -0.00   0.00     0.00  -0.00   0.00    -0.03  -0.00  -0.03
  12   1    -0.09   0.13   0.02    -0.20   0.27   0.08    -0.18   0.25   0.07
  13   1    -0.02  -0.01   0.06     0.22   0.03  -0.55     0.22   0.03  -0.57
  14   1    -0.20   0.01   0.52     0.01  -0.00  -0.02     0.02  -0.00  -0.04
  15   1     0.21   0.28  -0.08     0.03   0.04  -0.01     0.02   0.03  -0.00
  16   1     0.13  -0.00   0.12    -0.00  -0.00  -0.00     0.01  -0.00   0.01
  17   1     0.02  -0.00  -0.05    -0.00  -0.00   0.00     0.02  -0.00  -0.05
  18   1    -0.20  -0.01   0.51    -0.01  -0.00   0.02     0.02   0.00  -0.04
  19   1     0.20  -0.27  -0.07    -0.03   0.04   0.01     0.02  -0.03  -0.00
  20   1    -0.09  -0.12   0.02     0.20   0.27  -0.08    -0.18  -0.24   0.07
  21   1    -0.02   0.01   0.06    -0.22   0.03   0.56     0.22  -0.03  -0.56
                     55                     56                     57
                        a                      a                      a 
 Frequencies --  3263.9855              3266.3314              3290.4207
 Red. masses --     2.0519                 2.0379                 1.2842
 Frc consts  --     0.0000                 0.0000                 0.0000
 IR Inten    --   177.5205               178.6057                49.6764
 Raman Activ --     0.0000                 0.0000                 0.0000
 Depolar     --     0.0000                 0.0000                 0.0000
 Atom AN      X      Y      Z        X      Y      Z        X      Y      Z
   1   7     0.00  -0.28   0.00    -0.25  -0.00  -0.14     0.05   0.00  -0.14
   2   6     0.00  -0.00   0.00    -0.00  -0.00  -0.00     0.00   0.00  -0.01
   3   6     0.00   0.00  -0.00     0.00  -0.00   0.00    -0.00   0.00  -0.00
   4   6     0.00  -0.00  -0.00    -0.00  -0.00   0.00    -0.00   0.00   0.00
   5   6     0.00  -0.00  -0.00    -0.00  -0.00   0.00     0.00   0.00  -0.00
   6   6    -0.00  -0.00   0.00    -0.00   0.00   0.00    -0.00  -0.00   0.00
   7   6    -0.00   0.00   0.00     0.00   0.00   0.00    -0.00  -0.00  -0.00
   8   1    -0.41   0.55   0.02     0.24  -0.38  -0.03    -0.30   0.43   0.01
   9   1    -0.00  -0.03  -0.00     0.43  -0.00   0.58     0.40  -0.00   0.52
  10   1     0.40   0.54  -0.02     0.25   0.38  -0.03    -0.30  -0.43   0.01
  11   1    -0.00   0.00  -0.00     0.01   0.00   0.01     0.01  -0.00   0.01
  12   1    -0.00   0.00   0.00    -0.00   0.00   0.00     0.00  -0.00  -0.00
  13   1    -0.00   0.00   0.00     0.00   0.00  -0.00    -0.00  -0.00   0.01
  14   1     0.00   0.00   0.00     0.00  -0.00  -0.00     0.00  -0.00  -0.00
  15   1     0.00   0.00   0.00     0.00   0.00  -0.00    -0.00  -0.00   0.00
  16   1    -0.00   0.00  -0.00     0.00   0.00   0.00    -0.00  -0.00  -0.00
  17   1    -0.00   0.00   0.00     0.00   0.00  -0.00    -0.00   0.00   0.00
  18   1    -0.00   0.00  -0.00     0.00   0.00  -0.00     0.00   0.00  -0.00
  19   1    -0.00   0.00  -0.00     0.00  -0.00  -0.00    -0.00   0.00   0.00
  20   1     0.00   0.00  -0.00    -0.00  -0.00   0.00     0.00   0.00  -0.00
  21   1     0.00   0.00   0.00     0.00  -0.00  -0.00    -0.00   0.00   0.01
