 Entering Gaussian System
 *********************************************
 Gaussian 98:
 frequency output generated by the xtb code
 *********************************************
                         Standard orientation:
 --------------------------------------------------------------------
  Center     Atomic     Atomic              Coordinates (Angstroms)
  Number     Number      Type              X           Y           Z
 --------------------------------------------------------------------
    1          7             0       -2.948143   -0.655744    0.271761
    2          6             0       -2.011979    0.397460   -0.218734
    3          6             0       -0.555198    0.180973    0.223312
    4          6             0        0.325337    1.420758   -0.079134
    5          6             0        1.779468    1.217251    0.382512
    6          6             0        2.393799   -0.045453   -0.245918
    7          6             0        1.531664   -1.286938    0.042097
    8          6             0        0.076373   -1.080211   -0.416638
    9          1             0       -2.927490   -0.722892    1.299762
   10          1             0       -2.713459   -1.584476   -0.106738
   11          1             0       -3.921283   -0.453710   -0.002826
   12          1             0       -2.360243    1.373553    0.138986
   13          1             0       -2.056872    0.449659   -1.311924
   14          1             0       -0.555925    0.032715    1.314172
   15          1             0       -0.108547    2.315741    0.383766
   16          1             0        0.306314    1.612777   -1.157404
   17          1             0        1.806481    1.130603    1.475292
   18          1             0        2.386902    2.101418    0.145958
   19          1             0        3.420850   -0.195928    0.114008
   20          1             0        2.483446    0.093085   -1.330009
   21          1             0        1.548006   -1.499406    1.117707
   22          1             0        1.964227   -2.176191   -0.436133
   23          1             0       -0.527371   -1.966948   -0.190595
   24          1             0        0.045980   -0.976593   -1.506659
 --------------------------------------------------------------------
     1 basis functions        1 primitive gaussians
     1 alpha electrons        1 beta electrons

 Harmonic frequencies (cm**-1), IR intensities (km*mol⁻¹),
 Raman scattering activities (A**4/amu), Raman depolarization ratios,
 reduced masses (AMU), force constants (mDyne/A) and normal coordinates:
                      1                      2                      3
                        a                      a                      a 
 Frequencies --   110.3365               145.5749               162.5752
 Red. masses --     8.1552                 5.1398                 5.8370
 Frc consts  --     0.0000                 0.0000                 0.0000
 IR Inten    --    11.8063                 2.7951                13.7890
 Raman Activ --     0.0000                 0.0000                 0.0000
 Depolar     --     0.0000                 0.0000                 0.0000
 Atom AN      X      Y      Z        X      Y      Z        X      Y      Z
   1   7    -0.07   0.22   0.45    -0.15   0.14  -0.14    -0.31   0.27  -0.03
   2   6    -0.01  -0.16  -0.25     0.07  -0.06  -0.12     0.06  -0.09  -0.12
   3   6    -0.01  -0.09  -0.22    -0.02  -0.07   0.18     0.00  -0.18   0.04
   4   6    -0.02  -0.03  -0.02    -0.04  -0.03   0.26    -0.07  -0.11   0.11
   5   6    -0.09  -0.02   0.19     0.05  -0.02  -0.03    -0.03   0.03   0.01
   6   6     0.05   0.05   0.18    -0.03   0.07  -0.28     0.05   0.14  -0.12
   7   6     0.04  -0.01  -0.10     0.12   0.03  -0.06     0.22   0.05  -0.01
   8   6     0.11   0.01  -0.31     0.02  -0.09   0.24     0.13  -0.17   0.13
   9   1    -0.05   0.27   0.14    -0.34   0.30  -0.01     0.17  -0.13  -0.03
  10   1    -0.01  -0.02   0.32     0.16  -0.04   0.27    -0.41   0.09  -0.25
  11   1    -0.01   0.00   0.05     0.03  -0.11  -0.38    -0.11   0.35   0.28
  12   1     0.03   0.02  -0.21     0.01   0.01  -0.12     0.07   0.01  -0.08
  13   1    -0.03  -0.21  -0.08     0.10  -0.09  -0.04     0.04  -0.06  -0.04
  14   1    -0.02  -0.06  -0.07    -0.05  -0.02   0.05    -0.03  -0.05   0.01
  15   1    -0.04  -0.02  -0.00     0.00  -0.03   0.13    -0.04  -0.05   0.05
  16   1     0.03   0.01  -0.00    -0.06   0.04   0.08    -0.04  -0.01   0.04
  17   1    -0.07  -0.03   0.05     0.08  -0.04  -0.01     0.02  -0.01   0.00
  18   1    -0.02   0.00   0.10    -0.01   0.01  -0.01    -0.04   0.03   0.01
  19   1    -0.00   0.01   0.10     0.02   0.04  -0.17     0.03   0.07  -0.08
  20   1     0.07   0.05   0.06    -0.10   0.04  -0.09    -0.03   0.05  -0.04
  21   1    -0.03  -0.04  -0.04     0.11   0.02  -0.01     0.10   0.02  -0.00
  22   1     0.04   0.02  -0.04     0.02   0.01  -0.03     0.08   0.02  -0.01
  23   1     0.02  -0.01  -0.16     0.03  -0.03   0.13     0.07  -0.06   0.09
  24   1     0.08   0.05  -0.08    -0.06  -0.06   0.07     0.00  -0.09   0.03
                      4                      5                      6
                        a                      a                      a 
 Frequencies --   226.8050               249.8659               327.0993
 Red. masses --     7.7470                 6.3640                 8.2968
 Frc consts  --     0.0000                 0.0000                 0.0000
 IR Inten    --     6.8758                 0.4950                 4.9097
 Raman Activ --     0.0000                 0.0000                 0.0000
 Depolar     --     0.0000                 0.0000                 0.0000
 Atom AN      X      Y      Z        X      Y      Z        X      Y      Z
   1   7     0.34  -0.12   0.09    -0.09  -0.02  -0.01    -0.29  -0.17  -0.00
   2   6     0.01  -0.08  -0.40    -0.01  -0.08  -0.01    -0.16  -0.22  -0.08
   3   6    -0.06   0.20  -0.05    -0.01  -0.09  -0.00    -0.10   0.22   0.19
   4   6     0.05   0.18   0.21    -0.07   0.05   0.32     0.09   0.08   0.02
   5   6     0.05  -0.10   0.11     0.15   0.07  -0.30     0.19  -0.00  -0.14
   6   6    -0.16  -0.06  -0.18     0.01  -0.14  -0.04     0.30  -0.11   0.14
   7   6    -0.13  -0.02   0.04    -0.10   0.03   0.31     0.04  -0.02  -0.22
   8   6    -0.13   0.06   0.16     0.13   0.13  -0.27    -0.04   0.28   0.15
   9   1     0.30  -0.05   0.02    -0.02  -0.01  -0.00    -0.06  -0.05  -0.00
  10   1     0.02  -0.02  -0.04    -0.05  -0.01  -0.01    -0.14  -0.06  -0.01
  11   1     0.04  -0.03   0.22    -0.02   0.02   0.01    -0.07   0.01   0.02
  12   1    -0.06   0.00  -0.25     0.00  -0.02  -0.01    -0.11  -0.04  -0.14
  13   1     0.03  -0.17  -0.12     0.00  -0.03  -0.00     0.02  -0.17  -0.03
  14   1    -0.09   0.08  -0.01    -0.01  -0.11  -0.01    -0.05   0.10   0.06
  15   1     0.04   0.03   0.13     0.02  -0.05   0.25     0.09   0.06  -0.00
  16   1     0.01   0.14   0.08    -0.14   0.15   0.12    -0.01  -0.01   0.00
  17   1     0.03  -0.10   0.03     0.18   0.13  -0.08     0.08   0.07  -0.03
  18   1     0.04  -0.04   0.08     0.01   0.00  -0.24     0.05  -0.01  -0.11
  19   1    -0.02  -0.03  -0.15     0.01  -0.02  -0.02     0.03  -0.07   0.18
  20   1    -0.15   0.00  -0.06    -0.01  -0.13  -0.03     0.24  -0.04   0.05
  21   1    -0.00   0.02   0.02    -0.13   0.15   0.12     0.06  -0.14  -0.09
  22   1    -0.07  -0.02   0.02    -0.01  -0.06   0.24    -0.06   0.03  -0.19
  23   1    -0.06   0.04   0.10    -0.01   0.02  -0.26    -0.01   0.08   0.03
  24   1    -0.06  -0.03   0.04     0.18   0.16  -0.07    -0.07   0.12   0.05
                      7                      8                      9
                        a                      a                      a 
 Frequencies --   349.6010               417.8583               435.2424
 Red. masses --     7.7097                 8.3507                 8.8585
 Frc consts  --     0.0000                 0.0000                 0.0000
 IR Inten    --     4.2544                 2.5831                 1.6112
 Raman Activ --     0.0000                 0.0000                 0.0000
 Depolar     --     0.0000                 0.0000                 0.0000
 Atom AN      X      Y      Z        X      Y      Z        X      Y      Z
   1   7     0.28   0.14  -0.04     0.05  -0.01   0.05     0.09   0.07   0.02
   2   6     0.23   0.06  -0.07    -0.28   0.20  -0.10    -0.20   0.24  -0.04
   3   6     0.06  -0.12   0.11    -0.22  -0.13  -0.23    -0.16   0.09  -0.12
   4   6    -0.21   0.02   0.13     0.12  -0.22   0.16    -0.28   0.11   0.03
   5   6    -0.11   0.26  -0.20     0.26   0.06   0.01    -0.27  -0.27  -0.16
   6   6    -0.11  -0.01   0.27     0.28   0.10   0.04     0.20  -0.14  -0.02
   7   6    -0.07  -0.19  -0.21    -0.04   0.27  -0.05     0.33  -0.17   0.05
   8   6    -0.13  -0.18   0.03    -0.19  -0.23  -0.02     0.26   0.06   0.13
   9   1     0.11   0.04  -0.01     0.07   0.02   0.01     0.07   0.02   0.00
  10   1     0.07   0.04  -0.01     0.11   0.02   0.02     0.11   0.04   0.00
  11   1     0.06   0.03   0.02    -0.02  -0.12   0.05    -0.01  -0.09   0.04
  12   1     0.07   0.03  -0.06    -0.05   0.03   0.06    -0.03   0.05   0.08
  13   1     0.11  -0.01  -0.02    -0.17   0.12  -0.02    -0.12   0.14  -0.00
  14   1     0.01  -0.05   0.03    -0.12  -0.07  -0.07    -0.08   0.04  -0.03
  15   1    -0.08  -0.04   0.11     0.03  -0.09   0.09    -0.01  -0.01   0.15
  16   1    -0.15   0.06   0.05     0.04   0.01   0.06    -0.16   0.16   0.03
  17   1     0.05   0.25  -0.05     0.14   0.06   0.00    -0.12  -0.14  -0.05
  18   1    -0.05   0.04  -0.24    -0.00   0.05  -0.07    -0.07  -0.06   0.04
  19   1    -0.08  -0.00   0.21     0.04  -0.05   0.09     0.04   0.06   0.08
  20   1     0.11  -0.03   0.09     0.17   0.04   0.02     0.12  -0.08  -0.00
  21   1     0.01  -0.21  -0.09    -0.04   0.14  -0.00     0.14  -0.08   0.01
  22   1     0.01   0.03  -0.19     0.01   0.05   0.06     0.04  -0.05  -0.04
  23   1    -0.03  -0.04   0.06     0.04  -0.09   0.17     0.07   0.01   0.03
  24   1    -0.10  -0.06   0.01    -0.14  -0.22  -0.02     0.11  -0.00   0.03
                     10                     11                     12
                        a                      a                      a 
 Frequencies --   442.0126               548.9850               788.1466
 Red. masses --     8.1356                 5.8626                 5.5163
 Frc consts  --     0.0000                 0.0000                 0.0000
 IR Inten    --     3.1155                 2.4961                23.6338
 Raman Activ --     0.0000                 0.0000                 0.0000
 Depolar     --     0.0000                 0.0000                 0.0000
 Atom AN      X      Y      Z        X      Y      Z        X      Y      Z
   1   7    -0.24  -0.11   0.03    -0.04  -0.01   0.01    -0.10   0.05   0.04
   2   6    -0.05  -0.10   0.09    -0.26   0.15  -0.10    -0.17   0.19   0.10
   3   6     0.21   0.12  -0.39    -0.15   0.00  -0.02    -0.01   0.02   0.24
   4   6     0.11   0.43   0.02     0.13  -0.12   0.04     0.02   0.23  -0.01
   5   6     0.09   0.13   0.04     0.17   0.21   0.11     0.04   0.13   0.01
   6   6    -0.13  -0.03   0.08    -0.23   0.02   0.07     0.04   0.02  -0.07
   7   6     0.04  -0.18   0.00     0.17  -0.28   0.06     0.11  -0.19  -0.04
   8   6     0.03  -0.23  -0.00     0.17   0.02   0.05    -0.02  -0.32  -0.17
   9   1    -0.14  -0.03   0.01     0.05   0.01   0.00    -0.03  -0.21  -0.00
  10   1    -0.09  -0.04   0.02     0.06   0.02   0.00     0.24   0.16  -0.18
  11   1    -0.03   0.03  -0.06    -0.05  -0.10   0.05    -0.07  -0.18   0.02
  12   1     0.01  -0.05   0.11    -0.06   0.03   0.02    -0.12   0.16  -0.33
  13   1    -0.11   0.04   0.03    -0.12   0.07  -0.02     0.12  -0.29   0.00
  14   1     0.11   0.04  -0.11    -0.11   0.00  -0.01     0.06  -0.02   0.06
  15   1     0.01   0.03   0.17    -0.00   0.02  -0.14     0.00   0.10  -0.07
  16   1     0.03   0.32   0.04     0.12  -0.16  -0.01    -0.00  -0.03  -0.02
  17   1     0.02   0.05   0.01     0.16   0.23   0.04    -0.05  -0.05  -0.00
  18   1     0.09  -0.01   0.00     0.03   0.02  -0.18     0.07   0.03   0.11
  19   1    -0.02  -0.01  -0.01     0.02   0.04  -0.22    -0.01   0.02   0.05
  20   1    -0.06  -0.01   0.02    -0.30   0.03  -0.00     0.09   0.00  -0.01
  21   1     0.02  -0.09  -0.01     0.13  -0.26  -0.02    -0.05   0.11   0.02
  22   1     0.05  -0.02  -0.03     0.05   0.02  -0.17     0.12  -0.10   0.16
  23   1    -0.03   0.01   0.19     0.00  -0.01  -0.15    -0.01  -0.10  -0.10
  24   1    -0.04  -0.26  -0.02     0.17   0.11   0.02    -0.00  -0.02  -0.04
                     13                     14                     15
                        a                      a                      a 
 Frequencies --   815.1354               827.7352               878.7117
 Red. masses --     4.6196                 4.3483                 7.9278
 Frc consts  --     0.0000                 0.0000                 0.0000
 IR Inten    --     1.3244                21.2066                 7.3262
 Raman Activ --     0.0000                 0.0000                 0.0000
 Depolar     --     0.0000                 0.0000                 0.0000
 Atom AN      X      Y      Z        X      Y      Z        X      Y      Z
   1   7    -0.01   0.00  -0.01     0.01   0.07   0.10    -0.13  -0.04   0.01
   2   6    -0.01  -0.01  -0.03     0.02   0.04   0.16    -0.04   0.08  -0.07
   3   6    -0.03  -0.18   0.03     0.02   0.02  -0.19     0.12  -0.02   0.04
   4   6     0.14  -0.01  -0.19     0.03  -0.26  -0.08     0.26  -0.04   0.09
   5   6     0.17   0.15  -0.15    -0.04  -0.18  -0.04    -0.08  -0.20  -0.15
   6   6     0.03   0.15  -0.02    -0.02   0.02   0.16    -0.53   0.05  -0.01
   7   6    -0.13   0.04   0.16    -0.02   0.20   0.08    -0.03   0.24  -0.09
   8   6    -0.18  -0.17   0.18     0.01   0.17   0.01     0.26  -0.03   0.08
   9   1     0.04   0.02  -0.00    -0.20  -0.31   0.01     0.05  -0.00   0.00
  10   1     0.02  -0.00   0.01     0.19   0.17  -0.23     0.07   0.02  -0.00
  11   1    -0.02  -0.03   0.02     0.04  -0.00  -0.12    -0.08  -0.14   0.07
  12   1     0.03  -0.01   0.03     0.03   0.12  -0.24     0.02   0.03  -0.01
  13   1    -0.01   0.03  -0.00     0.02  -0.30   0.02    -0.02   0.03  -0.02
  14   1    -0.01   0.06   0.02     0.09   0.01  -0.05    -0.00  -0.00   0.01
  15   1     0.05  -0.13   0.20     0.06  -0.16   0.19     0.12   0.02   0.01
  16   1    -0.13   0.23  -0.01    -0.06   0.14   0.02     0.09  -0.03   0.02
  17   1    -0.19  -0.23  -0.05    -0.01   0.07  -0.00     0.05  -0.08  -0.04
  18   1     0.10   0.09   0.30    -0.06  -0.04  -0.11     0.05  -0.12  -0.07
  19   1    -0.01  -0.01   0.03     0.05   0.02  -0.13    -0.27  -0.02   0.33
  20   1     0.04  -0.05  -0.01    -0.20   0.01   0.03     0.20  -0.03   0.03
  21   1     0.13  -0.21  -0.00     0.03  -0.15  -0.02     0.06   0.08  -0.02
  22   1    -0.04   0.14  -0.20    -0.04   0.14  -0.16     0.08   0.12  -0.04
  23   1    -0.10  -0.11  -0.31     0.05   0.04   0.10     0.11  -0.04   0.00
  24   1     0.19   0.22   0.07    -0.00  -0.07  -0.01     0.09   0.01   0.02
                     16                     17                     18
                        a                      a                      a 
 Frequencies --   890.0630               922.6859               931.4192
 Red. masses --     4.4650                 5.5079                 6.1677
 Frc consts  --     0.0000                 0.0000                 0.0000
 IR Inten    --    13.7050                20.0272                23.7073
 Raman Activ --     0.0000                 0.0000                 0.0000
 Depolar     --     0.0000                 0.0000                 0.0000
 Atom AN      X      Y      Z        X      Y      Z        X      Y      Z
   1   7     0.14   0.04   0.13     0.12  -0.08   0.00     0.27   0.04   0.00
   2   6     0.07  -0.07   0.03    -0.00   0.06   0.04    -0.06  -0.08   0.09
   3   6    -0.08   0.03  -0.26    -0.09   0.21   0.03    -0.31   0.02   0.08
   4   6    -0.04  -0.01   0.17     0.20  -0.11  -0.07    -0.02   0.24   0.08
   5   6    -0.03   0.13   0.08    -0.17  -0.22   0.01     0.11  -0.12  -0.15
   6   6    -0.02   0.02  -0.26    -0.02   0.19   0.06    -0.08  -0.03   0.11
   7   6    -0.07  -0.13   0.02     0.18  -0.10  -0.07     0.06   0.22   0.11
   8   6    -0.02   0.00   0.19    -0.22  -0.23  -0.00     0.03  -0.17  -0.19
   9   1    -0.26  -0.24   0.02    -0.08   0.03   0.01    -0.13  -0.01   0.00
  10   1     0.01   0.08  -0.14    -0.19  -0.10   0.06    -0.16  -0.05   0.01
  11   1     0.14   0.19  -0.19     0.10   0.21  -0.08     0.17   0.30  -0.15
  12   1     0.11   0.01   0.00    -0.14  -0.02  -0.02    -0.11  -0.04  -0.00
  13   1    -0.17  -0.10   0.01     0.03  -0.01   0.01    -0.01  -0.05   0.02
  14   1    -0.13   0.03  -0.06    -0.01   0.21   0.03    -0.14  -0.12   0.00
  15   1    -0.13   0.03  -0.13     0.17  -0.07   0.16     0.09   0.20  -0.15
  16   1     0.18  -0.12   0.02     0.05   0.17   0.02    -0.01  -0.14  -0.02
  17   1     0.15  -0.05   0.01     0.03   0.17   0.02    -0.00  -0.14  -0.05
  18   1    -0.08   0.08   0.01    -0.10  -0.08  -0.22     0.12  -0.07   0.06
  19   1    -0.10  -0.03   0.20     0.00   0.13   0.02     0.00   0.03  -0.02
  20   1     0.29  -0.02  -0.05     0.00   0.19   0.03    -0.09  -0.14   0.01
  21   1     0.15   0.04   0.02     0.04   0.16   0.02    -0.01  -0.17  -0.02
  22   1    -0.11  -0.08  -0.01     0.15  -0.06   0.14     0.12   0.20  -0.14
  23   1    -0.12   0.03  -0.12    -0.11  -0.08  -0.23     0.12  -0.11   0.01
  24   1     0.19   0.07   0.05     0.02   0.16   0.02    -0.01  -0.12  -0.06
                     19                     20                     21
                        a                      a                      a 
 Frequencies --   940.1085               970.1955               986.9195
 Red. masses --     6.8259                 5.9984                 8.7195
 Frc consts  --     0.0000                 0.0000                 0.0000
 IR Inten    --     0.2972                26.0616                11.5497
 Raman Activ --     0.0000                 0.0000                 0.0000
 Depolar     --     0.0000                 0.0000                 0.0000
 Atom AN      X      Y      Z        X      Y      Z        X      Y      Z
   1   7    -0.08  -0.16   0.02    -0.15  -0.04  -0.05    -0.21  -0.31   0.27
   2   6     0.04   0.19  -0.04     0.14   0.05   0.06     0.42   0.35  -0.31
   3   6     0.16   0.18  -0.03     0.05  -0.00  -0.09    -0.05  -0.06   0.06
   4   6     0.15  -0.23   0.22    -0.12   0.24   0.08    -0.01   0.11   0.02
   5   6    -0.13   0.07  -0.21    -0.13  -0.26   0.09    -0.02  -0.03  -0.05
   6   6     0.03   0.22  -0.05     0.21  -0.00  -0.07     0.06  -0.03   0.09
   7   6     0.03  -0.20   0.22    -0.07   0.23   0.18     0.01   0.04  -0.05
   8   6    -0.13   0.09  -0.19    -0.19  -0.20   0.00    -0.03  -0.05   0.01
   9   1    -0.00   0.04   0.01     0.13   0.07  -0.01    -0.21  -0.23   0.06
  10   1    -0.11  -0.09   0.07     0.05  -0.01   0.04    -0.03  -0.03  -0.04
  11   1    -0.02   0.00   0.03    -0.11  -0.17   0.11    -0.01  -0.04  -0.04
  12   1    -0.12   0.03  -0.07     0.01   0.02  -0.04     0.23   0.08   0.06
  13   1     0.08   0.00  -0.01     0.17  -0.00   0.01    -0.10   0.13  -0.07
  14   1     0.06  -0.11  -0.03     0.15  -0.01  -0.03    -0.24   0.01   0.02
  15   1     0.07  -0.01  -0.02    -0.08   0.13  -0.15     0.05   0.08  -0.04
  16   1     0.05  -0.16   0.04     0.20  -0.04  -0.00    -0.07  -0.06  -0.01
  17   1    -0.00  -0.22  -0.07     0.22   0.07   0.02    -0.08   0.02  -0.01
  18   1    -0.16   0.15   0.13    -0.12  -0.07  -0.22     0.04  -0.04   0.00
  19   1     0.01   0.25   0.07     0.07   0.02  -0.04     0.06   0.01  -0.09
  20   1     0.05  -0.16  -0.04     0.02  -0.01  -0.02    -0.10   0.01   0.01
  21   1    -0.03  -0.21   0.03     0.19  -0.14  -0.00    -0.07   0.02  -0.01
  22   1     0.05   0.03  -0.06    -0.08   0.16  -0.19     0.03   0.01   0.02
  23   1    -0.16   0.15   0.13    -0.10  -0.06  -0.16     0.04  -0.06  -0.04
  24   1    -0.05  -0.17  -0.06     0.18  -0.01  -0.00    -0.08   0.08   0.01
                     22                     23                     24
                        a                      a                      a 
 Frequencies --   997.9719              1063.9756              1068.0767
 Red. masses --     6.3605                 7.5754                 2.1171
 Frc consts  --     0.0000                 0.0000                 0.0000
 IR Inten    --     5.1414                 9.9080                 0.6967
 Raman Activ --     0.0000                 0.0000                 0.0000
 Depolar     --     0.0000                 0.0000                 0.0000
 Atom AN      X      Y      Z        X      Y      Z        X      Y      Z
   1   7     0.02  -0.26   0.02    -0.05  -0.03   0.00     0.02  -0.03  -0.01
   2   6     0.02   0.41   0.06     0.12   0.03   0.02     0.01   0.04   0.04
   3   6     0.01   0.08  -0.03    -0.05  -0.01  -0.10    -0.08  -0.13  -0.02
   4   6    -0.18  -0.14  -0.08    -0.31  -0.06  -0.09     0.08   0.08  -0.02
   5   6     0.09   0.14   0.14     0.35  -0.10   0.05     0.03  -0.08  -0.03
   6   6    -0.04  -0.19  -0.09    -0.23   0.03   0.04     0.01   0.15   0.00
   7   6    -0.09   0.10  -0.04     0.37  -0.01   0.07    -0.06  -0.11   0.03
   8   6     0.21  -0.07   0.03    -0.31   0.17  -0.05    -0.02   0.10   0.01
   9   1    -0.06   0.07   0.01     0.02   0.00   0.00     0.01   0.02   0.00
  10   1    -0.26  -0.18   0.12     0.01  -0.01   0.01    -0.03  -0.02   0.01
  11   1     0.06   0.15  -0.02    -0.02  -0.04   0.02     0.01   0.01   0.00
  12   1    -0.29   0.08  -0.18     0.04   0.02  -0.01    -0.01   0.02  -0.03
  13   1     0.22  -0.05  -0.00     0.08  -0.00   0.00     0.06  -0.03   0.01
  14   1     0.11   0.02  -0.01     0.04  -0.01  -0.03    -0.03  -0.41  -0.06
  15   1    -0.16  -0.12   0.04    -0.22  -0.08  -0.03     0.24   0.12  -0.00
  16   1    -0.06   0.06  -0.00    -0.08  -0.00  -0.02    -0.24  -0.12  -0.03
  17   1    -0.00   0.03   0.04     0.13  -0.10   0.01    -0.22   0.17   0.01
  18   1     0.01   0.05   0.05     0.27  -0.15   0.02     0.17  -0.14  -0.04
  19   1    -0.05  -0.25   0.01    -0.09   0.02   0.11    -0.01  -0.03   0.01
  20   1     0.06   0.00  -0.01     0.07  -0.00   0.02     0.05   0.36   0.05
  21   1     0.08   0.02  -0.01     0.15   0.07   0.03     0.26   0.11   0.03
  22   1    -0.09   0.02  -0.05     0.27   0.06   0.06    -0.23  -0.12  -0.01
  23   1     0.10  -0.04   0.00    -0.20   0.13   0.01    -0.18   0.15   0.06
  24   1     0.16  -0.08  -0.00    -0.10   0.04  -0.01     0.24  -0.21  -0.02
                     25                     26                     27
                        a                      a                      a 
 Frequencies --  1080.3840              1106.1789              1113.4150
 Red. masses --     7.9029                 8.3403                 6.3305
 Frc consts  --     0.0000                 0.0000                 0.0000
 IR Inten    --     4.0028                 3.5486                 1.7881
 Raman Activ --     0.0000                 0.0000                 0.0000
 Depolar     --     0.0000                 0.0000                 0.0000
 Atom AN      X      Y      Z        X      Y      Z        X      Y      Z
   1   7    -0.06  -0.05  -0.04     0.10  -0.04   0.01    -0.06   0.04  -0.01
   2   6     0.26   0.03   0.21    -0.24   0.13  -0.09     0.12  -0.12   0.04
   3   6    -0.54  -0.22  -0.12     0.26  -0.38   0.03    -0.12   0.19  -0.03
   4   6     0.21   0.08  -0.11     0.22   0.16   0.03     0.15  -0.10   0.08
   5   6    -0.06   0.10   0.04    -0.23   0.09   0.00    -0.18   0.24   0.03
   6   6    -0.07  -0.01  -0.07     0.01  -0.23  -0.02    -0.05  -0.36  -0.05
   7   6     0.07  -0.12   0.02     0.22   0.13   0.02     0.26   0.16   0.02
   8   6     0.01   0.19  -0.01    -0.25   0.17   0.07    -0.16  -0.03  -0.11
   9   1     0.09   0.06  -0.01    -0.07  -0.00   0.01     0.05   0.00  -0.01
  10   1    -0.00  -0.04   0.05    -0.10  -0.04   0.00     0.07   0.03  -0.01
  11   1    -0.04  -0.05   0.06     0.07   0.11  -0.05    -0.04  -0.07   0.03
  12   1     0.07   0.04  -0.04    -0.11   0.04  -0.07     0.07  -0.03   0.05
  13   1     0.30  -0.05   0.04    -0.11  -0.03  -0.03     0.03   0.01   0.01
  14   1    -0.07  -0.03  -0.03     0.10  -0.23  -0.01    -0.08  -0.03  -0.02
  15   1     0.04  -0.03   0.05    -0.16  -0.05  -0.03     0.20   0.04   0.05
  16   1     0.23   0.20   0.00     0.15   0.04   0.01    -0.06  -0.04   0.02
  17   1     0.05  -0.01   0.01    -0.12   0.09   0.01    -0.22   0.11   0.02
  18   1    -0.03   0.04  -0.00     0.09  -0.09  -0.03    -0.18   0.17   0.07
  19   1    -0.03   0.16   0.08     0.03   0.10  -0.00    -0.05  -0.40  -0.05
  20   1     0.05  -0.11  -0.03    -0.03  -0.15  -0.02    -0.00  -0.09  -0.01
  21   1    -0.03  -0.02   0.01     0.13   0.06   0.01     0.23   0.08   0.01
  22   1    -0.12  -0.11   0.02    -0.07  -0.02  -0.01     0.20   0.12  -0.02
  23   1     0.21  -0.07   0.07     0.02  -0.02  -0.02    -0.13   0.05  -0.03
  24   1    -0.10  -0.02  -0.01    -0.16   0.15   0.03     0.05  -0.06  -0.04
                     28                     29                     30
                        a                      a                      a 
 Frequencies --  1157.2122              1192.5651              1213.3838
 Red. masses --     7.9143                 3.8446                 3.6558
 Frc consts  --     0.0000                 0.0000                 0.0000
 IR Inten    --     0.7467                 2.9807                14.5188
 Raman Activ --     0.0000                 0.0000                 0.0000
 Depolar     --     0.0000                 0.0000                 0.0000
 Atom AN      X      Y      Z        X      Y      Z        X      Y      Z
   1   7    -0.03  -0.02  -0.12    -0.06   0.08   0.06     0.01  -0.09  -0.22
   2   6     0.05   0.04   0.24     0.10  -0.13  -0.06     0.04   0.09   0.22
   3   6     0.02   0.05  -0.35    -0.01   0.29   0.03     0.10   0.07  -0.08
   4   6    -0.01  -0.03   0.29     0.04  -0.16   0.13    -0.01  -0.04   0.02
   5   6     0.00   0.04  -0.30    -0.03   0.10  -0.02    -0.00   0.02   0.16
   6   6     0.01  -0.04   0.29    -0.01  -0.11  -0.02     0.01  -0.01  -0.20
   7   6     0.01   0.05  -0.29     0.05   0.08   0.04     0.01   0.00   0.15
   8   6    -0.02  -0.04   0.27    -0.06  -0.10  -0.18    -0.00  -0.04  -0.06
   9   1     0.10   0.10  -0.02    -0.01  -0.06   0.01     0.12   0.16  -0.04
  10   1    -0.02  -0.05   0.06     0.08   0.07  -0.04    -0.08  -0.11   0.12
  11   1    -0.04  -0.04   0.06    -0.02  -0.04  -0.00    -0.03  -0.01   0.08
  12   1     0.01   0.06  -0.09    -0.12  -0.12   0.09     0.29   0.19  -0.12
  13   1     0.05  -0.15   0.05     0.07   0.11  -0.01    -0.39  -0.31   0.06
  14   1    -0.05   0.01  -0.08    -0.03   0.20   0.02    -0.15   0.11  -0.00
  15   1    -0.08   0.04  -0.11    -0.21  -0.13  -0.00     0.11   0.04   0.01
  16   1     0.07  -0.18   0.04    -0.04  -0.07   0.03    -0.25  -0.12  -0.01
  17   1    -0.14  -0.14  -0.08    -0.20   0.09   0.01    -0.09   0.16   0.06
  18   1     0.09  -0.00   0.11     0.33  -0.20   0.02     0.10  -0.09  -0.04
  19   1     0.08   0.04  -0.12     0.03   0.32   0.04    -0.03   0.08   0.07
  20   1    -0.20   0.01   0.06    -0.00  -0.04  -0.01     0.11  -0.04  -0.04
  21   1    -0.08   0.18  -0.04     0.20   0.04   0.01    -0.04  -0.12   0.01
  22   1     0.01  -0.07   0.10    -0.36  -0.12  -0.06    -0.04   0.03  -0.05
  23   1    -0.04  -0.03  -0.12     0.18  -0.15  -0.03     0.12  -0.09  -0.01
  24   1     0.10   0.14   0.08     0.05  -0.10  -0.06    -0.19   0.11  -0.00
                     31                     32                     33
                        a                      a                      a 
 Frequencies --  1234.9673              1241.4529              1254.3224
 Red. masses --     2.8745                 3.5360                 3.4388
 Frc consts  --     0.0000                 0.0000                 0.0000
 IR Inten    --     6.3323                 1.5573                 2.7263
 Raman Activ --     0.0000                 0.0000                 0.0000
 Depolar     --     0.0000                 0.0000                 0.0000
 Atom AN      X      Y      Z        X      Y      Z        X      Y      Z
   1   7    -0.01   0.03   0.01    -0.00  -0.01  -0.01     0.04  -0.07  -0.09
   2   6     0.03  -0.02   0.06     0.00   0.01   0.00    -0.03   0.05   0.02
   3   6    -0.06  -0.01  -0.03     0.00  -0.06  -0.00    -0.11  -0.03   0.32
   4   6     0.14  -0.01   0.07     0.01   0.03   0.16     0.05  -0.00  -0.07
   5   6    -0.14  -0.00  -0.00    -0.01  -0.06  -0.27    -0.06   0.03  -0.10
   6   6     0.15   0.04  -0.22    -0.00   0.11   0.03     0.03  -0.05   0.13
   7   6    -0.14  -0.01   0.04     0.02  -0.13   0.25    -0.05   0.06  -0.09
   8   6     0.13  -0.00   0.08    -0.02   0.07  -0.16     0.08  -0.03  -0.16
   9   1     0.00  -0.02   0.00     0.01   0.01  -0.00     0.03   0.07  -0.02
  10   1     0.02   0.02  -0.01    -0.00  -0.01   0.01    -0.06  -0.07   0.05
  11   1    -0.01  -0.02   0.00     0.00   0.01   0.00     0.00   0.01   0.02
  12   1    -0.12  -0.05   0.01     0.01   0.01  -0.01     0.32   0.14  -0.03
  13   1     0.13   0.02   0.01    -0.04  -0.02   0.00    -0.28  -0.14   0.01
  14   1    -0.22  -0.02  -0.01     0.05   0.20   0.03    -0.08   0.15   0.10
  15   1    -0.27  -0.13  -0.01    -0.17  -0.03  -0.06    -0.23  -0.13   0.03
  16   1     0.11   0.02   0.02     0.24   0.00   0.03     0.28   0.18   0.02
  17   1    -0.28   0.21   0.02    -0.12  -0.06  -0.07     0.06  -0.10  -0.04
  18   1     0.28  -0.23  -0.07    -0.01   0.01   0.03     0.05  -0.03   0.01
  19   1     0.01  -0.06  -0.02    -0.05  -0.42  -0.05     0.04   0.05  -0.04
  20   1     0.10   0.04  -0.05     0.05   0.50   0.07    -0.08  -0.01   0.02
  21   1    -0.32  -0.17  -0.02     0.15  -0.08   0.05     0.15   0.11  -0.01
  22   1     0.37   0.20  -0.00    -0.05  -0.01  -0.03    -0.04  -0.01  -0.01
  23   1    -0.20   0.15   0.03     0.21  -0.10   0.05    -0.27   0.21   0.07
  24   1     0.04  -0.01   0.02    -0.26   0.08  -0.03     0.24  -0.27  -0.07
                     34                     35                     36
                        a                      a                      a 
 Frequencies --  1279.6097              1310.8035              1325.5073
 Red. masses --     2.9718                 3.4311                 4.0543
 Frc consts  --     0.0000                 0.0000                 0.0000
 IR Inten    --     4.1534                 1.2493                 4.7945
 Raman Activ --     0.0000                 0.0000                 0.0000
 Depolar     --     0.0000                 0.0000                 0.0000
 Atom AN      X      Y      Z        X      Y      Z        X      Y      Z
   1   7     0.04  -0.09   0.06     0.02   0.03   0.02     0.01  -0.10   0.04
   2   6    -0.20  -0.00  -0.12    -0.06   0.03   0.07    -0.23  -0.07   0.02
   3   6    -0.16  -0.09  -0.03     0.11  -0.29  -0.10     0.13   0.33   0.03
   4   6    -0.13  -0.10   0.16    -0.10   0.00   0.03    -0.14  -0.11  -0.08
   5   6    -0.02   0.09  -0.01     0.00   0.02   0.02     0.00   0.02  -0.01
   6   6     0.03  -0.01  -0.08    -0.01   0.03   0.03     0.00   0.10   0.01
   7   6    -0.01   0.00  -0.01     0.05   0.10   0.04     0.03   0.02   0.03
   8   6     0.00   0.02   0.04     0.22  -0.12  -0.11     0.07  -0.15   0.01
   9   1    -0.03   0.02   0.01    -0.02  -0.02   0.01    -0.00   0.07   0.01
  10   1    -0.02  -0.01  -0.04    -0.01   0.01  -0.01     0.01   0.01  -0.05
  11   1     0.05   0.08  -0.06     0.00  -0.02  -0.00     0.03   0.07  -0.02
  12   1     0.36   0.13   0.00    -0.15  -0.03  -0.02     0.38   0.14  -0.02
  13   1     0.16   0.10  -0.04     0.21   0.03   0.01     0.30   0.09  -0.00
  14   1     0.57   0.26   0.02    -0.31   0.39   0.04    -0.25  -0.43  -0.06
  15   1     0.27   0.15  -0.01     0.23   0.12   0.00     0.01  -0.03   0.04
  16   1     0.11  -0.05   0.04     0.03  -0.02   0.00     0.25   0.15   0.01
  17   1    -0.16   0.11   0.01    -0.00   0.01   0.01    -0.02  -0.01  -0.01
  18   1     0.21  -0.11   0.03     0.03  -0.02   0.00     0.08  -0.05  -0.02
  19   1     0.01   0.04   0.00    -0.01  -0.02   0.00    -0.01  -0.10  -0.01
  20   1     0.03  -0.04  -0.02    -0.03  -0.11  -0.01    -0.01  -0.08  -0.01
  21   1    -0.08  -0.04  -0.01     0.11   0.04   0.01     0.03  -0.01   0.01
  22   1     0.08   0.03   0.01    -0.23  -0.05  -0.06    -0.13  -0.05  -0.01
  23   1    -0.03   0.02  -0.00    -0.37   0.27   0.05     0.01  -0.04  -0.04
  24   1     0.05  -0.02   0.01    -0.28   0.12  -0.01    -0.19   0.16   0.02
                     37                     38                     39
                        a                      a                      a 
 Frequencies --  1330.4163              1337.4489              1351.5845
 Red. masses --     3.5928                 4.0327                 4.4655
 Frc consts  --     0.0000                 0.0000                 0.0000
 IR Inten    --     2.9151                 1.4341                 1.9468
 Raman Activ --     0.0000                 0.0000                 0.0000
 Depolar     --     0.0000                 0.0000                 0.0000
 Atom AN      X      Y      Z        X      Y      Z        X      Y      Z
   1   7    -0.01   0.10  -0.05     0.01   0.02  -0.01     0.01   0.02  -0.02
   2   6     0.28   0.03  -0.03     0.03   0.01  -0.00    -0.02   0.02   0.04
   3   6    -0.12   0.08   0.05    -0.04   0.03   0.00     0.28  -0.11   0.03
   4   6    -0.20  -0.14  -0.02    -0.11   0.00   0.02    -0.30  -0.10  -0.03
   5   6    -0.07   0.09  -0.01     0.29  -0.12  -0.03     0.04   0.08  -0.01
   6   6     0.04   0.15   0.02    -0.02  -0.21  -0.03    -0.02  -0.10  -0.04
   7   6     0.00  -0.00  -0.01    -0.30  -0.06   0.01     0.01  -0.04  -0.01
   8   6     0.10  -0.09   0.04     0.15  -0.04  -0.02    -0.25   0.17  -0.01
   9   1    -0.01  -0.06  -0.02    -0.01  -0.02  -0.00    -0.03  -0.01  -0.00
  10   1    -0.01  -0.01   0.05    -0.02  -0.01   0.01    -0.02  -0.01   0.02
  11   1    -0.05  -0.10   0.04    -0.01  -0.03   0.00    -0.02  -0.03   0.04
  12   1    -0.30  -0.12   0.00    -0.03  -0.01  -0.02    -0.10  -0.03   0.00
  13   1    -0.39  -0.09   0.00    -0.04   0.00   0.00     0.02  -0.03   0.01
  14   1     0.24  -0.24  -0.02     0.05  -0.10  -0.01    -0.36   0.10   0.03
  15   1     0.23   0.07   0.04    -0.01   0.02  -0.02     0.33   0.13   0.05
  16   1     0.32   0.13   0.02     0.17   0.07   0.02     0.35   0.12   0.02
  17   1    -0.01  -0.01  -0.01    -0.30   0.22   0.02    -0.05   0.02  -0.00
  18   1     0.22  -0.14   0.00    -0.22   0.19   0.07     0.07  -0.01   0.03
  19   1    -0.01  -0.16  -0.03     0.04   0.40   0.06     0.01   0.09  -0.00
  20   1    -0.01  -0.17  -0.03     0.01   0.08   0.01     0.05   0.11   0.01
  21   1     0.03   0.00   0.00     0.33   0.15   0.03    -0.09  -0.03  -0.01
  22   1    -0.07  -0.04   0.01     0.23   0.15  -0.03     0.12   0.04   0.01
  23   1    -0.07   0.04  -0.01    -0.02   0.03   0.03     0.23  -0.14   0.03
  24   1    -0.14   0.11   0.03    -0.20   0.13   0.01     0.32  -0.18  -0.03
                     40                     41                     42
                        a                      a                      a 
 Frequencies --  1354.5453              1356.1146              1387.1610
 Red. masses --     4.5170                 4.5105                 2.9775
 Frc consts  --     0.0000                 0.0000                 0.0000
 IR Inten    --     1.9048                 0.2891               217.5566
 Raman Activ --     0.0000                 0.0000                 0.0000
 Depolar     --     0.0000                 0.0000                 0.0000
 Atom AN      X      Y      Z        X      Y      Z        X      Y      Z
   1   7     0.00   0.00   0.01     0.01   0.02  -0.00     0.27   0.26  -0.09
   2   6    -0.02  -0.01   0.01     0.04  -0.00  -0.01    -0.08  -0.01  -0.02
   3   6    -0.01   0.03  -0.05    -0.06   0.05   0.03    -0.01   0.04  -0.01
   4   6     0.04  -0.07  -0.06    -0.04  -0.03  -0.02     0.03   0.01   0.01
   5   6    -0.30   0.27   0.03     0.09   0.05  -0.05    -0.01  -0.01   0.00
   6   6     0.10  -0.27   0.02    -0.11  -0.34  -0.08     0.00   0.02   0.00
   7   6    -0.23  -0.03   0.04     0.28   0.23   0.06     0.00  -0.01   0.00
   8   6     0.08  -0.01  -0.01     0.04  -0.14   0.05    -0.01   0.00   0.00
   9   1    -0.01  -0.00   0.00    -0.01  -0.01  -0.00    -0.36  -0.31  -0.02
  10   1     0.00   0.00  -0.00    -0.03  -0.00  -0.00    -0.45  -0.17   0.17
  11   1    -0.00  -0.00   0.00    -0.01  -0.04   0.00    -0.15  -0.50   0.20
  12   1     0.00   0.00  -0.00    -0.01  -0.01   0.00     0.13   0.02   0.06
  13   1     0.05   0.01   0.00    -0.07  -0.01  -0.00     0.13  -0.02  -0.01
  14   1    -0.01  -0.05  -0.02     0.08  -0.12  -0.01     0.02  -0.00  -0.01
  15   1     0.13   0.02   0.03     0.02   0.01  -0.01    -0.04  -0.01  -0.01
  16   1    -0.12  -0.01  -0.01     0.07   0.06   0.00    -0.04  -0.02  -0.00
  17   1     0.42  -0.31  -0.04    -0.00  -0.04  -0.02     0.00  -0.00   0.00
  18   1     0.24  -0.15  -0.00    -0.10   0.11   0.04    -0.00  -0.00  -0.01
  19   1     0.07   0.17  -0.03    -0.02   0.22   0.07    -0.00  -0.02  -0.00
  20   1     0.00   0.32   0.05     0.06   0.46   0.06    -0.00  -0.02  -0.00
  21   1     0.20   0.06   0.02    -0.42  -0.22  -0.03     0.01  -0.00   0.00
  22   1     0.23   0.14  -0.01    -0.23  -0.07  -0.03    -0.00  -0.01   0.00
  23   1     0.01   0.01   0.02    -0.21   0.10  -0.03     0.03  -0.02  -0.02
  24   1    -0.13   0.10   0.01    -0.02   0.05   0.02    -0.01  -0.01  -0.00
                     43                     44                     45
                        a                      a                      a 
 Frequencies --  1435.2555              1437.0929              1475.3406
 Red. masses --     1.6492                 1.6432                 1.8519
 Frc consts  --     0.0000                 0.0000                 0.0000
 IR Inten    --    81.0748                78.6368                14.0791
 Raman Activ --     0.0000                 0.0000                 0.0000
 Depolar     --     0.0000                 0.0000                 0.0000
 Atom AN      X      Y      Z        X      Y      Z        X      Y      Z
   1   7    -0.03  -0.01  -0.21    -0.14   0.15   0.02     0.02   0.00   0.00
   2   6    -0.03   0.00  -0.04    -0.06   0.02  -0.01     0.07  -0.21   0.16
   3   6     0.00   0.00   0.00     0.03   0.00   0.01    -0.00  -0.01  -0.00
   4   6    -0.00   0.00  -0.00    -0.01   0.00  -0.01    -0.01   0.04  -0.02
   5   6     0.00   0.00   0.00    -0.00   0.00  -0.00    -0.00  -0.00  -0.00
   6   6    -0.00  -0.01  -0.00     0.00  -0.00  -0.00    -0.00  -0.00   0.00
   7   6     0.01   0.01   0.00     0.00   0.00   0.00     0.01  -0.00  -0.00
   8   6     0.02   0.01   0.01     0.01   0.01   0.01    -0.00   0.02   0.01
   9   1    -0.24  -0.30  -0.04     0.51  -0.50  -0.04    -0.03  -0.05   0.00
  10   1     0.42  -0.10   0.46    -0.04  -0.16   0.41    -0.04  -0.03   0.04
  11   1    -0.06   0.41   0.47     0.11  -0.00  -0.46    -0.01  -0.03   0.01
  12   1     0.02  -0.00   0.02     0.05   0.03   0.01    -0.04   0.21  -0.64
  13   1     0.05   0.01  -0.01     0.04  -0.02  -0.00    -0.18   0.64   0.05
  14   1     0.01  -0.01  -0.00    -0.02  -0.02   0.00    -0.02   0.01   0.00
  15   1     0.00   0.00   0.00     0.01  -0.00   0.01     0.01  -0.03   0.08
  16   1     0.00  -0.00  -0.00     0.01  -0.00  -0.00     0.03  -0.08  -0.02
  17   1    -0.00  -0.00  -0.00     0.00   0.00  -0.00     0.01   0.00  -0.00
  18   1    -0.00   0.00   0.00     0.00  -0.00   0.00     0.00   0.00   0.01
  19   1    -0.00   0.01   0.00    -0.00  -0.00   0.00     0.00  -0.00  -0.00
  20   1     0.00   0.01   0.00    -0.00   0.00   0.00     0.01   0.00   0.00
  21   1    -0.01  -0.00   0.00    -0.01  -0.00   0.00    -0.01   0.01   0.00
  22   1    -0.01   0.00  -0.01    -0.00   0.00  -0.00     0.00   0.00  -0.01
  23   1    -0.03   0.00  -0.04    -0.01  -0.01  -0.04    -0.00  -0.01  -0.04
  24   1    -0.03  -0.03  -0.00    -0.03  -0.04  -0.00    -0.00  -0.05  -0.00
                     46                     47                     48
                        a                      a                      a 
 Frequencies --  1499.8810              1504.8022              1506.5902
 Red. masses --     1.8942                 1.9451                 1.9745
 Frc consts  --     0.0000                 0.0000                 0.0000
 IR Inten    --     0.3675                 4.4101                 2.5455
 Raman Activ --     0.0000                 0.0000                 0.0000
 Depolar     --     0.0000                 0.0000                 0.0000
 Atom AN      X      Y      Z        X      Y      Z        X      Y      Z
   1   7    -0.01   0.01  -0.01     0.00  -0.01   0.00     0.00  -0.00   0.00
   2   6     0.01  -0.02   0.02     0.00  -0.01   0.01    -0.00   0.01  -0.01
   3   6    -0.01  -0.03  -0.01     0.03  -0.01   0.01     0.00  -0.01  -0.00
   4   6     0.06  -0.13   0.08     0.02  -0.12   0.06    -0.03   0.08  -0.03
   5   6     0.04   0.04   0.06     0.00  -0.00  -0.01     0.11   0.12   0.13
   6   6    -0.01   0.02   0.01     0.19   0.00  -0.12    -0.02  -0.01   0.01
   7   6    -0.03   0.06  -0.05    -0.01   0.03  -0.03    -0.07   0.13  -0.07
   8   6    -0.09  -0.11  -0.13     0.03   0.09   0.07     0.05   0.07   0.06
   9   1     0.01  -0.05  -0.00    -0.01   0.02   0.00    -0.00   0.02   0.00
  10   1     0.01  -0.02   0.06    -0.01   0.01  -0.02    -0.00   0.01  -0.02
  11   1     0.00   0.01  -0.00    -0.00  -0.01   0.00     0.00  -0.00  -0.00
  12   1    -0.00   0.03  -0.08    -0.01   0.01  -0.03    -0.00  -0.01   0.02
  13   1    -0.02   0.08   0.00    -0.01   0.03   0.00     0.00  -0.03  -0.00
  14   1     0.00   0.00   0.00    -0.02   0.00   0.00     0.00   0.02   0.00
  15   1    -0.03   0.16  -0.35    -0.01   0.14  -0.28     0.02  -0.07   0.17
  16   1    -0.15   0.34   0.07    -0.10   0.30   0.05     0.08  -0.18  -0.03
  17   1    -0.13  -0.17  -0.01     0.02   0.02   0.00    -0.29  -0.38  -0.02
  18   1    -0.04  -0.03  -0.21     0.02  -0.00   0.03    -0.10  -0.06  -0.47
  19   1     0.01   0.00  -0.04    -0.18  -0.05   0.49     0.02   0.03  -0.04
  20   1     0.03  -0.02   0.00    -0.52   0.05  -0.04     0.05   0.00   0.01
  21   1     0.09  -0.18  -0.04     0.05  -0.10  -0.02     0.17  -0.32  -0.07
  22   1     0.02  -0.09   0.19     0.03  -0.04   0.10     0.06  -0.14   0.33
  23   1     0.06   0.08   0.45    -0.02  -0.05  -0.25    -0.03  -0.03  -0.21
  24   1     0.26   0.38   0.03    -0.13  -0.23  -0.02    -0.13  -0.19  -0.02
                     49                     50                     51
                        a                      a                      a 
 Frequencies --  1509.6106              1517.6213              2884.6187
 Red. masses --     1.8963                 1.9887                 1.7390
 Frc consts  --     0.0000                 0.0000                 0.0000
 IR Inten    --     5.4632                 0.1842                19.6217
 Raman Activ --     0.0000                 0.0000                 0.0000
 Depolar     --     0.0000                 0.0000                 0.0000
 Atom AN      X      Y      Z        X      Y      Z        X      Y      Z
   1   7     0.00  -0.00   0.00     0.00  -0.01   0.00     0.00  -0.00  -0.00
   2   6     0.00  -0.00   0.00    -0.00  -0.00   0.01    -0.00   0.01   0.01
   3   6     0.01  -0.00   0.01     0.02  -0.01   0.01    -0.00   0.03  -0.25
   4   6     0.04  -0.10   0.06     0.03  -0.10   0.05    -0.00   0.01   0.02
   5   6     0.06   0.08   0.09    -0.06  -0.08  -0.07    -0.00  -0.01   0.01
   6   6    -0.05  -0.00   0.04    -0.15   0.00   0.09    -0.00   0.00  -0.00
   7   6     0.06  -0.15   0.09    -0.05   0.11  -0.05    -0.00   0.00   0.01
   8   6     0.04   0.05   0.06     0.05   0.08   0.07    -0.01  -0.02   0.02
   9   1    -0.00   0.01   0.00    -0.01   0.02   0.00    -0.00  -0.00   0.01
  10   1    -0.01   0.00  -0.02    -0.01   0.01  -0.02    -0.00   0.00  -0.00
  11   1     0.00  -0.01  -0.00    -0.00  -0.00   0.00    -0.00   0.00  -0.00
  12   1    -0.01   0.01  -0.02    -0.01   0.01  -0.02     0.01  -0.02  -0.00
  13   1    -0.02   0.02   0.00    -0.01   0.01   0.00    -0.00   0.00  -0.05
  14   1     0.01  -0.00   0.01    -0.03   0.00   0.00     0.01  -0.12   0.94
  15   1    -0.02   0.13  -0.26    -0.03   0.12  -0.25     0.02  -0.05  -0.02
  16   1    -0.11   0.27   0.05    -0.11   0.26   0.05    -0.00   0.01  -0.07
  17   1    -0.19  -0.27  -0.01     0.16   0.22   0.01     0.00   0.00  -0.03
  18   1    -0.06  -0.05  -0.32     0.04   0.03   0.26     0.02   0.02  -0.01
  19   1     0.06   0.01  -0.16     0.13   0.04  -0.36     0.01  -0.00   0.00
  20   1     0.18  -0.02   0.02     0.38  -0.04   0.03    -0.00  -0.00   0.01
  21   1    -0.19   0.38   0.08     0.12  -0.25  -0.05     0.00   0.01  -0.03
  22   1    -0.06   0.18  -0.39     0.04  -0.12   0.26     0.01  -0.02  -0.01
  23   1    -0.02  -0.04  -0.21    -0.04  -0.04  -0.26     0.05   0.07  -0.02
  24   1    -0.12  -0.19  -0.01    -0.15  -0.23  -0.02    -0.00   0.00  -0.07
                     52                     53                     54
                        a                      a                      a 
 Frequencies --  2912.8779              2915.4913              2916.0641
 Red. masses --     1.8879                 1.9352                 1.9381
 Frc consts  --     0.0000                 0.0000                 0.0000
 IR Inten    --    63.0044                14.0424                15.5783
 Raman Activ --     0.0000                 0.0000                 0.0000
 Depolar     --     0.0000                 0.0000                 0.0000
 Atom AN      X      Y      Z        X      Y      Z        X      Y      Z
   1   7    -0.00   0.00   0.00     0.00   0.00  -0.00     0.00   0.00   0.00
   2   6     0.00  -0.00   0.00    -0.00   0.00   0.00     0.00  -0.00  -0.00
   3   6     0.00   0.01  -0.03     0.00   0.00  -0.01    -0.00   0.00  -0.01
   4   6    -0.01   0.02   0.03    -0.01   0.01   0.01     0.00   0.00   0.02
   5   6    -0.02  -0.02   0.02    -0.02  -0.03   0.03     0.09   0.14  -0.16
   6   6     0.01  -0.00   0.01     0.07  -0.03   0.10     0.10  -0.02   0.13
   7   6     0.00   0.01   0.04     0.07  -0.13  -0.21    -0.01   0.03   0.03
   8   6     0.12   0.20  -0.14     0.01   0.01  -0.00     0.00   0.01  -0.01
   9   1    -0.00   0.00  -0.00    -0.00  -0.00   0.00    -0.00   0.00  -0.00
  10   1    -0.00  -0.02  -0.01    -0.00  -0.00  -0.00    -0.00  -0.00  -0.00
  11   1     0.00  -0.00   0.00     0.00  -0.00  -0.00     0.00  -0.00   0.00
  12   1    -0.00   0.01   0.00     0.00  -0.01  -0.00    -0.00   0.00   0.00
  13   1     0.00   0.00  -0.01    -0.00   0.00  -0.01     0.00  -0.00   0.00
  14   1     0.00  -0.01   0.08    -0.00  -0.00   0.04    -0.00  -0.01   0.04
  15   1     0.04  -0.07  -0.04     0.02  -0.04  -0.02     0.01  -0.01  -0.00
  16   1    -0.00   0.01  -0.07    -0.00   0.00   0.00    -0.00   0.01  -0.08
  17   1    -0.00   0.00  -0.04    -0.00   0.00  -0.05     0.02  -0.02   0.46
  18   1     0.06   0.08  -0.02     0.08   0.12  -0.03    -0.34  -0.49   0.13
  19   1    -0.03   0.01  -0.01    -0.29   0.04  -0.10    -0.40   0.06  -0.14
  20   1     0.00   0.00  -0.01     0.03   0.04  -0.28     0.04   0.04  -0.34
  21   1    -0.00   0.03  -0.15     0.02  -0.11   0.47    -0.00   0.01  -0.04
  22   1     0.02  -0.04  -0.01    -0.27   0.56   0.30     0.06  -0.11  -0.06
  23   1    -0.47  -0.70   0.19    -0.05  -0.07   0.02    -0.02  -0.02   0.01
  24   1     0.02  -0.01   0.33    -0.00   0.01  -0.05     0.00  -0.00   0.04
                     55                     56                     57
                        a                      a                      a 
 Frequencies --  2919.2124              2925.6732              2949.2726
 Red. masses --     1.8956                 1.8837                 1.4993
 Frc consts  --     0.0000                 0.0000                 0.0000
 IR Inten    --    18.5709                31.6245                22.9014
 Raman Activ --     0.0000                 0.0000                 0.0000
 Depolar     --     0.0000                 0.0000                 0.0000
 Atom AN      X      Y      Z        X      Y      Z        X      Y      Z
   1   7     0.00   0.00   0.00    -0.00   0.00   0.00    -0.00  -0.00  -0.00
   2   6     0.00   0.00   0.00    -0.00   0.00   0.00    -0.00   0.00   0.00
   3   6    -0.00   0.00  -0.00     0.00  -0.00  -0.03    -0.00   0.00   0.00
   4   6    -0.01   0.03   0.06     0.09  -0.16  -0.20    -0.01   0.02  -0.00
   5   6     0.06   0.11  -0.09     0.03   0.04   0.00     0.04   0.05   0.07
   6   6    -0.15   0.03  -0.12    -0.03   0.00  -0.00     0.11  -0.00  -0.08
   7   6     0.04  -0.08  -0.08     0.01  -0.02  -0.02     0.04  -0.09   0.07
   8   6     0.02   0.02  -0.01     0.02   0.03  -0.01    -0.01  -0.02  -0.01
   9   1    -0.00   0.00  -0.00    -0.00  -0.00   0.00    -0.00  -0.00  -0.00
  10   1    -0.00  -0.00  -0.00     0.00  -0.00  -0.00    -0.00   0.00   0.00
  11   1    -0.00   0.00   0.00    -0.00  -0.00  -0.00     0.00  -0.00   0.00
  12   1     0.00  -0.00  -0.00     0.00  -0.01  -0.01     0.01  -0.02  -0.01
  13   1    -0.00   0.00  -0.01     0.00   0.00  -0.01    -0.00   0.00  -0.00
  14   1    -0.00  -0.00   0.02     0.00  -0.01   0.09     0.00   0.00  -0.01
  15   1     0.06  -0.13  -0.06    -0.32   0.67   0.35     0.03  -0.05  -0.03
  16   1    -0.00   0.03  -0.15     0.01  -0.09   0.37     0.00  -0.00   0.04
  17   1     0.01  -0.01   0.21     0.00   0.02  -0.08     0.00   0.04  -0.34
  18   1    -0.26  -0.38   0.11    -0.11  -0.16   0.05    -0.15  -0.23   0.08
  19   1     0.57  -0.08   0.21     0.10  -0.02   0.04    -0.39   0.06  -0.17
  20   1    -0.04  -0.03   0.22    -0.00   0.00  -0.03    -0.02  -0.07   0.49
  21   1     0.01  -0.03   0.10     0.00  -0.01   0.01     0.00   0.06  -0.43
  22   1    -0.15   0.31   0.18    -0.04   0.07   0.04    -0.14   0.27   0.18
  23   1    -0.06  -0.09   0.03    -0.08  -0.12   0.03     0.04   0.06  -0.02
  24   1     0.00   0.01  -0.01     0.00   0.01  -0.01    -0.00  -0.01   0.07
                     58                     59                     60
                        a                      a                      a 
 Frequencies --  2950.3195              2953.9395              2959.5848
 Red. masses --     1.5304                 1.5862                 1.6908
 Frc consts  --     0.0000                 0.0000                 0.0000
 IR Inten    --    36.3929                40.8112                13.7190
 Raman Activ --     0.0000                 0.0000                 0.0000
 Depolar     --     0.0000                 0.0000                 0.0000
 Atom AN      X      Y      Z        X      Y      Z        X      Y      Z
   1   7     0.00  -0.00  -0.00    -0.00  -0.00  -0.00    -0.00   0.00   0.00
   2   6    -0.00   0.00   0.00    -0.00   0.00   0.01     0.04  -0.11  -0.11
   3   6     0.00  -0.00  -0.00    -0.00   0.00  -0.00     0.00   0.00  -0.00
   4   6     0.01  -0.03  -0.02    -0.02   0.05  -0.02    -0.02   0.06  -0.07
   5   6    -0.06  -0.07  -0.12     0.02   0.02   0.10     0.00   0.01  -0.00
   6   6    -0.02  -0.01   0.02    -0.08  -0.01   0.14    -0.01  -0.00   0.02
   7   6     0.04  -0.10   0.10     0.01  -0.04   0.07     0.00  -0.01   0.04
   8   6    -0.01  -0.02  -0.00    -0.02  -0.03  -0.06     0.03   0.03   0.15
   9   1     0.00  -0.00   0.00     0.00  -0.00   0.00    -0.00   0.00  -0.01
  10   1     0.00   0.00   0.00    -0.00   0.01   0.00     0.00  -0.02  -0.01
  11   1    -0.00   0.00  -0.00     0.00  -0.00   0.00     0.00   0.00   0.00
  12   1     0.00  -0.01  -0.01     0.01  -0.01  -0.00    -0.14   0.41   0.15
  13   1    -0.00   0.00  -0.00    -0.00   0.00  -0.02     0.01  -0.02   0.24
  14   1     0.00  -0.00   0.00     0.00   0.00  -0.01    -0.00   0.00   0.01
  15   1    -0.05   0.10   0.06     0.07  -0.15  -0.09     0.09  -0.18  -0.12
  16   1     0.00  -0.00   0.00    -0.00  -0.02   0.16    -0.00  -0.05   0.38
  17   1     0.00  -0.07   0.56    -0.00   0.05  -0.41    -0.00   0.00  -0.00
  18   1     0.21   0.31  -0.12    -0.09  -0.13   0.05    -0.02  -0.03   0.01
  19   1     0.05  -0.01   0.02     0.24  -0.04   0.12     0.01  -0.00   0.01
  20   1     0.00   0.01  -0.08     0.03   0.08  -0.62     0.00   0.01  -0.07
  21   1    -0.00   0.08  -0.54    -0.00   0.05  -0.33    -0.00   0.03  -0.15
  22   1    -0.14   0.28   0.19    -0.05   0.09   0.07    -0.00   0.01   0.01
  23   1     0.05   0.08  -0.03     0.09   0.13  -0.05    -0.12  -0.18   0.08
  24   1    -0.00  -0.01   0.04    -0.00  -0.04   0.26     0.00   0.08  -0.61
                     61                     62                     63
                        a                      a                      a 
 Frequencies --  2963.2622              2964.9684              2989.3456
 Red. masses --     1.7759                 1.6919                 1.5430
 Frc consts  --     0.0000                 0.0000                 0.0000
 IR Inten    --    23.3842                87.9016                10.5385
 Raman Activ --     0.0000                 0.0000                 0.0000
 Depolar     --     0.0000                 0.0000                 0.0000
 Atom AN      X      Y      Z        X      Y      Z        X      Y      Z
   1   7     0.00  -0.00  -0.00    -0.00  -0.00  -0.00    -0.00   0.00  -0.00
   2   6    -0.04   0.13   0.16     0.03  -0.09  -0.08     0.05  -0.12   0.17
   3   6    -0.00   0.01   0.00     0.00   0.00  -0.03     0.01  -0.00   0.02
   4   6    -0.03   0.08  -0.12    -0.02   0.05  -0.11     0.00  -0.01   0.02
   5   6    -0.00   0.00  -0.04    -0.01  -0.00  -0.05     0.00  -0.00   0.00
   6   6     0.00   0.00  -0.02     0.01   0.01  -0.05     0.00  -0.00   0.00
   7   6    -0.00   0.01  -0.01    -0.00   0.01  -0.06     0.00  -0.00   0.00
   8   6     0.01   0.01   0.02    -0.02  -0.02  -0.14    -0.00  -0.00   0.01
   9   1     0.00  -0.00   0.01    -0.00  -0.00  -0.00     0.00  -0.00   0.02
  10   1    -0.00   0.01   0.00     0.00  -0.00  -0.00     0.00  -0.02  -0.01
  11   1    -0.00  -0.00  -0.00     0.00  -0.00   0.00     0.00  -0.00   0.00
  12   1     0.17  -0.49  -0.18    -0.12   0.36   0.13    -0.15   0.44   0.20
  13   1    -0.02   0.03  -0.40     0.01  -0.02   0.14    -0.02   0.01  -0.83
  14   1     0.00   0.00  -0.01     0.00  -0.01   0.08    -0.00   0.01  -0.04
  15   1     0.11  -0.22  -0.15     0.06  -0.12  -0.09    -0.02   0.04   0.02
  16   1    -0.00  -0.08   0.57    -0.00  -0.07   0.47     0.00   0.01  -0.09
  17   1     0.00  -0.01   0.13     0.00  -0.02   0.19    -0.00   0.00  -0.02
  18   1    -0.00   0.00  -0.01     0.02   0.02  -0.01    -0.00  -0.00   0.00
  19   1    -0.00   0.00  -0.00    -0.01   0.00  -0.01    -0.01   0.00  -0.00
  20   1    -0.00  -0.01   0.07    -0.01  -0.02   0.18     0.00   0.00  -0.01
  21   1     0.00  -0.01   0.04     0.00  -0.04   0.21    -0.00   0.00  -0.02
  22   1     0.01  -0.03  -0.02     0.01  -0.01  -0.02    -0.00   0.01   0.00
  23   1    -0.04  -0.06   0.02     0.09   0.14  -0.06     0.00   0.00   0.00
  24   1     0.00   0.02  -0.12    -0.00  -0.07   0.58     0.00   0.00  -0.03
                     64                     65                     66
                        a                      a                      a 
 Frequencies --  3203.5043              3209.5127              3229.7245
 Red. masses --     2.0304                 2.0423                 1.2767
 Frc consts  --     0.0000                 0.0000                 0.0000
 IR Inten    --    92.2892                77.9798                21.9108
 Raman Activ --     0.0000                 0.0000                 0.0000
 Depolar     --     0.0000                 0.0000                 0.0000
 Atom AN      X      Y      Z        X      Y      Z        X      Y      Z
   1   7    -0.22   0.16  -0.05     0.02   0.11   0.26     0.07   0.11  -0.06
   2   6    -0.00   0.01  -0.00    -0.00   0.00   0.01     0.00   0.01  -0.01
   3   6     0.00  -0.00   0.00    -0.00   0.00  -0.00    -0.00  -0.00   0.00
   4   6    -0.00   0.00   0.00     0.00   0.00  -0.00    -0.00   0.00  -0.00
   5   6    -0.00  -0.00  -0.00    -0.00  -0.00  -0.00     0.00   0.00   0.00
   6   6    -0.00  -0.00  -0.00     0.00  -0.00   0.00     0.00  -0.00  -0.00
   7   6    -0.00   0.00  -0.00    -0.00  -0.00  -0.00     0.00  -0.00  -0.00
   8   6    -0.00  -0.00   0.00    -0.00  -0.00   0.00    -0.00  -0.00   0.00
   9   1    -0.02   0.01   0.16    -0.02   0.05  -0.72     0.03  -0.02   0.62
  10   1     0.10  -0.45  -0.21     0.15  -0.53  -0.20     0.15  -0.51  -0.23
  11   1     0.75  -0.17   0.23    -0.22   0.06  -0.04    -0.46   0.12  -0.15
  12   1     0.01  -0.02  -0.01     0.00  -0.01  -0.01     0.00  -0.01  -0.01
  13   1     0.00  -0.00   0.01    -0.00  -0.00  -0.02    -0.00  -0.00   0.02
  14   1     0.00   0.00   0.00    -0.00  -0.00   0.00     0.00   0.00  -0.00
  15   1     0.00   0.00   0.00    -0.00   0.00  -0.00     0.00  -0.00  -0.00
  16   1    -0.00  -0.00  -0.00     0.00  -0.00   0.00    -0.00  -0.00   0.00
  17   1     0.00  -0.00   0.00     0.00   0.00  -0.00    -0.00   0.00  -0.00
  18   1     0.00   0.00  -0.00     0.00   0.00  -0.00    -0.00  -0.00   0.00
  19   1     0.00  -0.00   0.00    -0.00   0.00  -0.00    -0.00   0.00  -0.00
  20   1    -0.00  -0.00  -0.00    -0.00  -0.00  -0.00     0.00  -0.00   0.00
  21   1    -0.00  -0.00   0.00     0.00  -0.00   0.00    -0.00   0.00  -0.00
  22   1    -0.00   0.00   0.00    -0.00   0.00   0.00    -0.00   0.00   0.00
  23   1     0.01   0.01  -0.00     0.01   0.01  -0.00     0.01   0.01  -0.00
  24   1    -0.00  -0.00   0.00    -0.00  -0.00   0.00    -0.00  -0.00   0.00
