21
 energy: -25.830885465238 gnorm: 0.000191465857 xtb: 6.5.1 (fef0646)
N            2.92280430327480        1.06703483645476       -0.06899864554940
C            2.51108184393796       -0.05635435315624        0.80738745787380
C            2.97121346010200       -1.38322822845483        0.20450537388477
C            4.47494349161350       -1.48039514804606        0.18205054352646
C            5.17318430475679       -1.75193163889483        1.35342243856151
C            6.55452043679941       -1.82235699466117        1.34893580205189
C            7.25729114797450       -1.62113361325439        0.17140668055447
C            6.57145819209901       -1.35038031051740       -1.00015807124497
C            5.18829260553274       -1.27576898044499       -0.99312609725716
H            2.69307378095250        1.97189030227930        0.35672192600263
H            2.45209644240926        0.99933410091430       -0.97901169679586
H            3.93698606167336        1.01825802501437       -0.22888895368844
H            1.42717605675502       -0.05182443254007        0.91378085865487
H            2.96446682740630        0.07440622378120        1.78972923571511
H            2.57735361158095       -1.49434229647502       -0.80557583230902
H            2.56902442756970       -2.19537264383536        0.80917953075911
H            4.63420932405283       -1.92443617652071        2.27324701090899
H            7.08754092913200       -2.04172469938020        2.26238736253215
H            8.33555470247186       -1.68354209668491        0.16728743133834
H            7.11650923090444       -1.20126151626212       -1.92046591041474
H            4.66713881900114       -1.08518035931561       -1.91974644510423
