 Entering Gaussian System
 *********************************************
 Gaussian 98:
 frequency output generated by the xtb code
 *********************************************
                         Standard orientation:
 --------------------------------------------------------------------
  Center     Atomic     Atomic              Coordinates (Angstroms)
  Number     Number      Type              X           Y           Z
 --------------------------------------------------------------------
    1          7             0       -7.519553    0.258033    1.905486
    2          6             0       -8.088931    1.207384    0.912266
    3          6             0       -7.489357    0.993188   -0.475376
    4          6             0       -6.004557    1.085981   -0.472191
    5          6             0       -5.289511    2.234747   -0.590195
    6          6             0       -3.885342    2.040890   -0.532410
    7          6             0       -3.518918    0.735438   -0.367249
    8          6             0       -2.165000    0.254321   -0.270743
    9          6             0       -1.787416   -1.049771   -0.124392
   10          6             0       -0.383947   -1.251978   -0.047416
   11          6             0        0.196677   -2.613121    0.115794
   12          6             0        0.341739   -0.077872   -0.134391
   13          6             0        1.779050    0.053461   -0.079936
   14          6             0        2.502266    1.228897   -0.168271
   15          6             0        1.924822    2.501880   -0.330721
   16          7             0        1.415057    3.535902   -0.469361
   17          6             0        3.926326    1.044849   -0.072756
   18          6             0        4.835951    2.119955   -0.082051
   19          7             0        5.617086    2.979261   -0.099755
   20          6             0        4.297859   -0.276992    0.071925
   21          6             0        5.637687   -0.824349    0.192862
   22          6             0        6.775916   -0.467576   -0.500273
   23          6             0        6.841628    0.557361   -1.578715
   24          6             0        7.925804   -1.209042   -0.091096
   25          6             0        7.676173   -2.127999    0.868297
   26         16             0        6.014094   -2.116029    1.303143
   27         16             0        2.881994   -1.272165    0.117242
   28         16             0       -0.760525    1.264474   -0.321030
   29         16             0       -4.936843   -0.272115   -0.284162
   30         17             0       -7.359944   -2.568372   -0.014880
   31          1             0       -6.515921    0.454148    2.067472
   32          1             0       -7.575719   -0.704788    1.538238
   33          1             0       -8.003809    0.291667    2.817428
   34          1             0       -7.902995    2.235204    1.245724
   35          1             0       -9.179942    1.096420    0.876940
   36          1             0       -7.898486    1.714989   -1.192436
   37          1             0       -7.775464    0.004689   -0.851593
   38          1             0       -5.750796    3.203369   -0.710786
   39          1             0       -3.167058    2.843046   -0.608084
   40          1             0       -2.500470   -1.857377   -0.069818
   41          1             0        0.860283   -2.853276   -0.715858
   42          1             0       -0.583877   -3.374057    0.150698
   43          1             0        0.770980   -2.680662    1.040562
   44          1             0        7.106415    1.532531   -1.168838
   45          1             0        5.881497    0.653606   -2.087362
   46          1             0        7.589484    0.291366   -2.326757
   47          1             0        8.903304   -1.044908   -0.520169
   48          1             0        8.403201   -2.785162    1.308306
 --------------------------------------------------------------------
     1 basis functions        1 primitive gaussians
     1 alpha electrons        1 beta electrons

 Harmonic frequencies (cm**-1), IR intensities (km*mol⁻¹),
 Raman scattering activities (A**4/amu), Raman depolarization ratios,
 reduced masses (AMU), force constants (mDyne/A) and normal coordinates:
                      1                      2                      3
                        a                      a                      a 
 Frequencies --  -161.9817               -60.0918               -24.1491
 Red. masses --    16.3808                17.4431                18.6149
 Frc consts  --     0.0000                 0.0000                 0.0000
 IR Inten    --   109.5221                 0.7340                 0.2088
 Raman Activ --     0.0000                 0.0000                 0.0000
 Depolar     --     0.0000                 0.0000                 0.0000
 Atom AN      X      Y      Z        X      Y      Z        X      Y      Z
   1   7     0.03   0.54   0.30    -0.05   0.05  -0.04     0.00  -0.04   0.01
   2   6    -0.01   0.19  -0.00    -0.07  -0.02  -0.10     0.00  -0.02   0.03
   3   6    -0.00  -0.11   0.05     0.01  -0.03  -0.06    -0.00   0.00   0.03
   4   6    -0.01  -0.04   0.03     0.01  -0.01   0.04    -0.00   0.01   0.02
   5   6    -0.03  -0.02   0.03    -0.01   0.05   0.47    -0.01   0.00  -0.03
   6   6    -0.02  -0.01   0.02    -0.01   0.05   0.48    -0.01   0.01  -0.03
   7   6    -0.01  -0.01   0.01    -0.00  -0.00   0.07    -0.00   0.01   0.02
   8   6    -0.00   0.00  -0.00     0.00  -0.01   0.01    -0.00   0.01  -0.01
   9   6    -0.00   0.00  -0.02     0.00  -0.00   0.02     0.00  -0.01  -0.24
  10   6    -0.00   0.00  -0.01     0.00  -0.00   0.03     0.00  -0.01  -0.23
  11   6    -0.00  -0.00  -0.02     0.00   0.00   0.08     0.01  -0.04  -0.43
  12   6    -0.00   0.00  -0.00     0.00  -0.00   0.01    -0.00   0.01  -0.00
  13   6    -0.00   0.00   0.00     0.00  -0.00   0.00    -0.00   0.00   0.02
  14   6    -0.00   0.00   0.01     0.00  -0.01  -0.04     0.01  -0.01   0.00
  15   6    -0.00   0.00   0.01     0.00  -0.01  -0.06     0.01  -0.00  -0.02
  16   7     0.00   0.00  -0.00     0.00  -0.01  -0.07     0.02  -0.00  -0.02
  17   6    -0.00   0.00   0.01     0.00  -0.01  -0.05     0.00  -0.02   0.00
  18   6    -0.00   0.00   0.01     0.01  -0.01  -0.08     0.03  -0.04  -0.04
  19   7     0.00  -0.00  -0.01     0.01  -0.02  -0.10     0.06  -0.07  -0.07
  20   6    -0.00   0.00   0.00     0.00  -0.00  -0.00    -0.01  -0.02   0.04
  21   6    -0.00   0.00   0.00     0.00  -0.00   0.00    -0.00  -0.01   0.04
  22   6     0.00   0.01   0.01    -0.01  -0.03  -0.03    -0.06  -0.10  -0.10
  23   6     0.00   0.01   0.01    -0.03  -0.08  -0.08    -0.15  -0.21  -0.20
  24   6     0.00   0.01   0.00    -0.00  -0.02  -0.01    -0.03  -0.05  -0.09
  25   6    -0.00  -0.00  -0.00     0.01   0.03   0.04     0.05   0.10   0.07
  26  16    -0.00  -0.01  -0.01     0.03   0.09   0.10     0.14   0.27   0.35
  27  16    -0.00   0.00  -0.01     0.00   0.01   0.07    -0.03  -0.00   0.12
  28  16    -0.00   0.00   0.02     0.00  -0.01  -0.00    -0.01   0.05   0.38
  29  16     0.02  -0.04   0.02     0.02  -0.09  -0.55    -0.00   0.03   0.09
  30  17     0.01  -0.41  -0.33     0.03   0.04   0.01    -0.03   0.00  -0.07
  31   1     0.04   0.08  -0.05    -0.02   0.04   0.01     0.00  -0.01   0.00
  32   1    -0.12   0.11   0.26     0.02   0.01  -0.01    -0.00  -0.01  -0.00
  33   1     0.10   0.32   0.12    -0.03   0.01  -0.02     0.00  -0.01   0.00
  34   1    -0.01   0.08  -0.07    -0.04   0.00  -0.03     0.00  -0.01   0.01
  35   1    -0.00   0.04   0.01    -0.02  -0.02  -0.04     0.00  -0.00   0.01
  36   1    -0.01  -0.08  -0.03     0.01  -0.01  -0.03    -0.00   0.00   0.01
  37   1     0.02  -0.06   0.08     0.01  -0.01  -0.02    -0.00   0.00   0.00
  38   1    -0.01  -0.01   0.01    -0.01   0.02   0.22    -0.00  -0.00  -0.02
  39   1    -0.01   0.00   0.00    -0.01   0.02   0.22    -0.00   0.00  -0.02
  40   1     0.00  -0.00  -0.01     0.00  -0.00   0.01     0.00  -0.01  -0.12
  41   1    -0.00  -0.00  -0.01     0.00  -0.01   0.03     0.02   0.03  -0.12
  42   1    -0.00   0.00  -0.00     0.00   0.00   0.03     0.00  -0.01  -0.17
  43   1     0.00  -0.00  -0.01    -0.00   0.01   0.03    -0.02  -0.05  -0.12
  44   1     0.00   0.00   0.00    -0.01  -0.02  -0.03    -0.04  -0.05  -0.09
  45   1    -0.00   0.00   0.00    -0.01  -0.03  -0.02    -0.05  -0.08  -0.04
  46   1    -0.00   0.00   0.00    -0.01  -0.03  -0.02    -0.05  -0.07  -0.06
  47   1     0.00   0.00   0.00    -0.00  -0.01  -0.01    -0.02  -0.03  -0.05
  48   1    -0.00  -0.00  -0.00     0.01   0.02   0.02     0.03   0.05   0.04
                      4                      5                      6
                        a                      a                      a 
 Frequencies --    20.2007                23.3285                29.2709
 Red. masses --    25.8574                14.3066                27.2002
 Frc consts  --     0.0000                 0.0000                 0.0000
 IR Inten    --    20.5763                 2.8496                13.3039
 Raman Activ --     0.0000                 0.0000                 0.0000
 Depolar     --     0.0000                 0.0000                 0.0000
 Atom AN      X      Y      Z        X      Y      Z        X      Y      Z
   1   7    -0.09  -0.24  -0.08     0.00   0.10  -0.08    -0.11   0.13  -0.00
   2   6    -0.01  -0.10   0.00    -0.01   0.05  -0.10     0.03   0.14  -0.06
   3   6     0.02   0.02  -0.00    -0.00   0.03  -0.09     0.03  -0.01  -0.03
   4   6     0.02   0.06   0.02    -0.00   0.01  -0.08     0.03  -0.05  -0.03
   5   6    -0.00   0.07   0.00     0.02  -0.00  -0.10     0.05  -0.06   0.00
   6   6     0.01   0.10   0.01     0.01  -0.02  -0.08     0.05  -0.08   0.01
   7   6     0.03   0.11   0.03    -0.01  -0.02  -0.03     0.03  -0.09  -0.03
   8   6     0.03   0.11   0.05    -0.01  -0.03   0.02     0.03  -0.09  -0.04
   9   6     0.01   0.11   0.12    -0.03  -0.02   0.14     0.05  -0.09  -0.09
  10   6     0.01   0.10   0.12    -0.03  -0.02   0.17     0.05  -0.08  -0.08
  11   6    -0.01   0.09   0.17    -0.04  -0.01   0.27     0.07  -0.07  -0.11
  12   6     0.03   0.08   0.04    -0.02  -0.03   0.07     0.04  -0.06  -0.03
  13   6     0.03   0.05   0.02    -0.02  -0.04   0.08     0.04  -0.04  -0.02
  14   6     0.06   0.03  -0.01    -0.02  -0.03   0.15     0.01  -0.02   0.03
  15   6     0.08   0.04  -0.02    -0.02  -0.02   0.22    -0.01  -0.03   0.06
  16   7     0.09   0.05  -0.02    -0.02  -0.02   0.26    -0.02  -0.03   0.08
  17   6     0.06   0.00  -0.02    -0.02  -0.04   0.13     0.01   0.01   0.04
  18   6     0.08  -0.02  -0.05     0.00  -0.06   0.15    -0.01   0.03   0.08
  19   7     0.10  -0.03  -0.07     0.03  -0.09   0.14    -0.02   0.04   0.10
  20   6     0.03  -0.00   0.00    -0.02  -0.05   0.03     0.04   0.01  -0.00
  21   6     0.02  -0.03  -0.01     0.00  -0.01  -0.05     0.05   0.04  -0.00
  22   6     0.01  -0.07  -0.06    -0.09  -0.02  -0.19     0.05   0.09   0.02
  23   6    -0.01  -0.10  -0.08    -0.25  -0.07  -0.26     0.04   0.11   0.04
  24   6     0.00  -0.08  -0.07    -0.01   0.06  -0.26     0.07   0.12   0.02
  25   6     0.01  -0.04  -0.03     0.13   0.14  -0.15     0.08   0.09  -0.01
  26  16     0.04   0.01   0.04     0.29   0.17   0.05     0.13   0.05  -0.05
  27  16     0.01   0.05   0.08    -0.03  -0.08  -0.04     0.11  -0.04  -0.10
  28  16     0.08   0.14  -0.05    -0.01  -0.07  -0.10     0.03  -0.12   0.01
  29  16     0.08   0.14   0.07    -0.04   0.00  -0.04     0.02  -0.11  -0.11
  30  17    -0.54  -0.47  -0.16     0.10   0.08  -0.05    -0.70   0.18   0.27
  31   1    -0.01  -0.11  -0.04    -0.00   0.04  -0.02    -0.01  -0.03  -0.03
  32   1    -0.08  -0.06  -0.03     0.02   0.02  -0.02    -0.11   0.02   0.03
  33   1    -0.00  -0.05  -0.01    -0.00   0.02  -0.03    -0.00   0.10   0.01
  34   1     0.01  -0.04   0.03    -0.01   0.02  -0.04     0.04   0.04  -0.03
  35   1    -0.00  -0.01  -0.01    -0.00   0.01  -0.03     0.01   0.08  -0.02
  36   1     0.00   0.02   0.01     0.00   0.01  -0.03     0.02  -0.02  -0.03
  37   1     0.01   0.01  -0.02    -0.00   0.01  -0.02    -0.00  -0.01   0.02
  38   1    -0.00   0.02  -0.00     0.01   0.00  -0.04     0.02  -0.01   0.01
  39   1    -0.00   0.03   0.00     0.01  -0.01  -0.03     0.02  -0.03   0.01
  40   1     0.00   0.04   0.05    -0.01  -0.00   0.06     0.02  -0.03  -0.03
  41   1    -0.01   0.01   0.05    -0.02  -0.03   0.08     0.02  -0.01  -0.03
  42   1    -0.01   0.03   0.06    -0.01   0.00   0.11     0.03  -0.02  -0.03
  43   1    -0.00   0.03   0.05     0.00   0.02   0.07     0.02  -0.02  -0.03
  44   1     0.01  -0.03  -0.03    -0.07  -0.01  -0.10     0.00   0.03   0.02
  45   1    -0.00  -0.03  -0.02    -0.09  -0.04  -0.04     0.01   0.03   0.01
  46   1    -0.01  -0.04  -0.03    -0.10  -0.02  -0.10     0.01   0.04   0.01
  47   1    -0.00  -0.03  -0.03    -0.02   0.02  -0.11     0.02   0.04   0.01
  48   1     0.00  -0.01  -0.01     0.06   0.06  -0.05     0.03   0.03  -0.00
                      7                      8                      9
                        a                      a                      a 
 Frequencies --    39.4642                48.2408                63.8983
 Red. masses --    23.1219                19.0428                22.5102
 Frc consts  --     0.0000                 0.0000                 0.0000
 IR Inten    --     1.3208                 5.9143                18.7749
 Raman Activ --     0.0000                 0.0000                 0.0000
 Depolar     --     0.0000                 0.0000                 0.0000
 Atom AN      X      Y      Z        X      Y      Z        X      Y      Z
   1   7     0.10  -0.04   0.12    -0.09   0.12  -0.09    -0.22   0.02   0.04
   2   6     0.05  -0.06   0.11    -0.11  -0.09  -0.26    -0.17  -0.08  -0.07
   3   6    -0.02  -0.08   0.09    -0.02  -0.26  -0.19    -0.03  -0.18   0.01
   4   6    -0.02  -0.02  -0.00    -0.03  -0.15  -0.13    -0.03  -0.12   0.11
   5   6    -0.07   0.02   0.02    -0.10  -0.10  -0.11    -0.07  -0.11   0.07
   6   6    -0.06   0.06  -0.05    -0.09  -0.01  -0.04    -0.07  -0.05   0.08
   7   6    -0.01   0.07  -0.14    -0.01   0.02   0.00    -0.02  -0.03   0.13
   8   6    -0.00   0.08  -0.18     0.01   0.08   0.06     0.00   0.01   0.09
   9   6    -0.01   0.09  -0.14     0.03   0.08  -0.02     0.03   0.02   0.12
  10   6    -0.02   0.07  -0.13     0.03   0.09   0.02     0.04   0.04   0.03
  11   6    -0.04   0.07  -0.08     0.03   0.09  -0.04     0.05   0.04   0.03
  12   6    -0.00   0.06  -0.16     0.01   0.11   0.11     0.03   0.04  -0.08
  13   6    -0.00   0.04  -0.10     0.01   0.10   0.10     0.03   0.04  -0.13
  14   6     0.02   0.03   0.04     0.05   0.08   0.09     0.05   0.03  -0.04
  15   6     0.05   0.05   0.11     0.06   0.09   0.10     0.06   0.05   0.04
  16   7     0.06   0.07   0.16     0.07   0.09   0.11     0.06   0.05   0.07
  17   6     0.02  -0.00   0.09     0.05   0.03   0.02     0.05   0.01  -0.03
  18   6     0.06  -0.04   0.17     0.07   0.01  -0.01     0.08  -0.02  -0.00
  19   7     0.09  -0.07   0.22     0.09   0.00  -0.03     0.12  -0.05  -0.01
  20   6    -0.02  -0.02   0.01     0.01   0.02  -0.01     0.02  -0.00  -0.11
  21   6    -0.03  -0.04   0.04    -0.01  -0.04  -0.05     0.02  -0.02  -0.03
  22   6    -0.03  -0.07   0.03     0.00  -0.06  -0.05     0.05  -0.07  -0.00
  23   6    -0.05  -0.09   0.00     0.03  -0.03  -0.03     0.09  -0.11  -0.05
  24   6    -0.03  -0.06   0.05    -0.02  -0.11  -0.08     0.03  -0.05   0.09
  25   6    -0.03  -0.01   0.09    -0.06  -0.14  -0.12    -0.02   0.03   0.16
  26  16    -0.05   0.03   0.17    -0.09  -0.18  -0.20    -0.06   0.13   0.15
  27  16    -0.07   0.00  -0.27    -0.02   0.11   0.08     0.03   0.01  -0.43
  28  16     0.02   0.11  -0.38    -0.01   0.18   0.35    -0.00   0.03  -0.14
  29  16     0.05   0.02  -0.22     0.09  -0.11  -0.07     0.02  -0.12   0.33
  30  17     0.07  -0.21   0.40     0.04   0.01   0.31    -0.05   0.31  -0.24
  31   1     0.03  -0.01   0.02    -0.03   0.06  -0.02    -0.07   0.05   0.06
  32   1     0.01  -0.02   0.05     0.00   0.01   0.02     0.00   0.01   0.00
  33   1     0.04   0.01   0.04    -0.04   0.06  -0.03    -0.10  -0.02  -0.01
  34   1     0.02  -0.01   0.02    -0.06  -0.01  -0.12    -0.08  -0.01  -0.04
  35   1     0.01  -0.02   0.05    -0.03  -0.05  -0.08    -0.05  -0.04  -0.05
  36   1    -0.03  -0.03   0.03    -0.01  -0.11  -0.09    -0.00  -0.08  -0.03
  37   1    -0.00  -0.03   0.04     0.02  -0.10  -0.01     0.01  -0.07   0.02
  38   1    -0.03   0.00   0.03    -0.05  -0.04  -0.05    -0.03  -0.04   0.00
  39   1    -0.03   0.03  -0.01    -0.04   0.01  -0.01    -0.03  -0.01   0.01
  40   1    -0.01   0.03  -0.03     0.01   0.02  -0.03     0.01   0.01   0.06
  41   1    -0.02   0.01  -0.02     0.01   0.03  -0.01    -0.01   0.00  -0.01
  42   1    -0.02   0.02  -0.01     0.01   0.03  -0.02     0.01   0.01   0.04
  43   1    -0.01   0.03  -0.02     0.01   0.02  -0.01     0.04   0.02  -0.01
  44   1    -0.01  -0.03  -0.01     0.02  -0.01  -0.00     0.02  -0.03  -0.02
  45   1    -0.02  -0.03   0.00     0.01   0.00  -0.01     0.03  -0.04  -0.02
  46   1    -0.02  -0.03  -0.00     0.01  -0.01  -0.01     0.03  -0.04  -0.00
  47   1    -0.01  -0.02   0.01    -0.01  -0.04  -0.02     0.01  -0.03   0.03
  48   1    -0.01   0.00   0.04    -0.02  -0.05  -0.04    -0.01   0.02   0.07
                     10                     11                     12
                        a                      a                      a 
 Frequencies --    70.3874                75.1619                94.0552
 Red. masses --    21.1470                15.9622                15.0650
 Frc consts  --     0.0000                 0.0000                 0.0000
 IR Inten    --    15.8439                 3.7989                 5.0052
 Raman Activ --     0.0000                 0.0000                 0.0000
 Depolar     --     0.0000                 0.0000                 0.0000
 Atom AN      X      Y      Z        X      Y      Z        X      Y      Z
   1   7    -0.14   0.07  -0.18     0.14  -0.01  -0.05    -0.15   0.07  -0.12
   2   6    -0.14   0.02  -0.20     0.14   0.08   0.04    -0.07   0.10  -0.12
   3   6     0.01   0.13  -0.16     0.04   0.13  -0.01     0.05   0.19  -0.08
   4   6     0.01   0.14  -0.01     0.04   0.04  -0.06     0.06   0.07   0.05
   5   6     0.04   0.13   0.01     0.09   0.01  -0.05     0.15   0.01   0.06
   6   6     0.04   0.10   0.08     0.08  -0.05  -0.03     0.13  -0.09   0.08
   7   6     0.00   0.09   0.12     0.02  -0.07  -0.02     0.03  -0.12   0.08
   8   6    -0.01   0.04   0.12     0.01  -0.09   0.02     0.03  -0.14   0.04
   9   6    -0.06   0.02   0.05     0.03  -0.08   0.02     0.09  -0.12   0.03
  10   6    -0.06  -0.03  -0.02     0.03  -0.04   0.05     0.11  -0.05  -0.04
  11   6    -0.09  -0.05  -0.09     0.07  -0.03   0.05     0.18  -0.02  -0.07
  12   6    -0.02  -0.06  -0.01     0.00  -0.02   0.07     0.04  -0.01  -0.08
  13   6    -0.01  -0.09  -0.07    -0.01   0.02   0.04     0.03   0.07  -0.06
  14   6    -0.02  -0.08  -0.03    -0.04   0.04   0.07    -0.01   0.09  -0.02
  15   6    -0.02  -0.08  -0.01    -0.08   0.05   0.28    -0.04   0.07  -0.08
  16   7    -0.01  -0.08  -0.01    -0.12   0.06   0.45    -0.07   0.06  -0.14
  17   6    -0.02  -0.08  -0.04    -0.03   0.06  -0.07    -0.00   0.13   0.07
  18   6    -0.03  -0.07   0.02    -0.03   0.06  -0.21     0.01   0.12   0.16
  19   7    -0.04  -0.07   0.05    -0.03   0.06  -0.34     0.04   0.10   0.25
  20   6    -0.01  -0.08  -0.11    -0.00   0.06  -0.13     0.00   0.13   0.07
  21   6     0.01  -0.02  -0.06    -0.02   0.03  -0.07    -0.03   0.06   0.05
  22   6     0.04   0.07   0.04     0.04  -0.07  -0.02    -0.05  -0.09  -0.06
  23   6     0.05   0.06   0.03     0.14  -0.10  -0.05    -0.07  -0.04  -0.01
  24   6     0.07   0.17   0.13    -0.03  -0.11   0.08    -0.11  -0.24  -0.17
  25   6     0.07   0.15   0.11    -0.13  -0.04   0.12    -0.14  -0.19  -0.14
  26  16     0.05   0.01  -0.04    -0.26   0.15   0.06    -0.15   0.07   0.07
  27  16     0.00  -0.16  -0.34     0.05   0.05  -0.21     0.06   0.16  -0.01
  28  16     0.04  -0.01   0.20    -0.04  -0.08   0.13    -0.04  -0.12  -0.13
  29  16    -0.03   0.21   0.13    -0.04  -0.01  -0.12    -0.07  -0.02   0.17
  30  17     0.14  -0.35   0.25    -0.00  -0.11   0.01     0.08  -0.18   0.11
  31   1    -0.04   0.04  -0.03     0.05  -0.04  -0.04    -0.05   0.03  -0.00
  32   1    -0.01   0.01  -0.03    -0.00   0.00  -0.02    -0.02   0.02  -0.04
  33   1    -0.05   0.02  -0.05     0.06   0.00  -0.00    -0.06   0.01  -0.04
  34   1    -0.08   0.01  -0.05     0.07   0.01   0.02    -0.04   0.02  -0.01
  35   1    -0.03  -0.03  -0.09     0.04   0.05   0.03    -0.02   0.02  -0.06
  36   1     0.02   0.05  -0.04     0.01   0.06   0.02     0.05   0.08  -0.01
  37   1     0.02   0.05  -0.08    -0.01   0.05  -0.02     0.00   0.07  -0.06
  38   1     0.02   0.04  -0.01     0.04   0.01  -0.01     0.06   0.01   0.01
  39   1     0.02   0.02   0.03     0.03  -0.02  -0.00     0.05  -0.04   0.02
  40   1    -0.02   0.01   0.01     0.01  -0.03   0.00     0.04  -0.04   0.02
  41   1    -0.05  -0.02  -0.04     0.01  -0.01   0.01     0.06   0.01  -0.02
  42   1    -0.03  -0.01  -0.01     0.02  -0.01   0.03     0.06  -0.02  -0.03
  43   1    -0.01  -0.02  -0.04     0.04   0.00   0.01     0.05  -0.01  -0.02
  44   1     0.01   0.02   0.01     0.03  -0.03  -0.01    -0.03  -0.02   0.01
  45   1     0.02   0.01  -0.00     0.05  -0.03  -0.04    -0.02  -0.01  -0.00
  46   1     0.02   0.02   0.02     0.06  -0.03   0.00    -0.02   0.01  -0.01
  47   1     0.03   0.07   0.06     0.00  -0.06   0.03    -0.04  -0.11  -0.08
  48   1     0.02   0.06   0.05    -0.06  -0.01   0.06    -0.05  -0.08  -0.05
                     13                     14                     15
                        a                      a                      a 
 Frequencies --   100.6788               117.3311               137.6226
 Red. masses --    17.6276                16.3510                16.4132
 Frc consts  --     0.0000                 0.0000                 0.0000
 IR Inten    --     8.3247                 5.4163                10.9371
 Raman Activ --     0.0000                 0.0000                 0.0000
 Depolar     --     0.0000                 0.0000                 0.0000
 Atom AN      X      Y      Z        X      Y      Z        X      Y      Z
   1   7    -0.35   0.05   0.04    -0.19  -0.01   0.03    -0.30  -0.04   0.18
   2   6    -0.24  -0.01  -0.07    -0.08   0.15   0.12    -0.09   0.03   0.11
   3   6    -0.02   0.03   0.02    -0.13   0.22   0.08    -0.03  -0.01   0.13
   4   6    -0.02   0.05   0.13    -0.11   0.03   0.01    -0.03   0.02   0.04
   5   6    -0.01   0.04   0.07    -0.03  -0.03  -0.02    -0.04   0.03  -0.05
   6   6    -0.00   0.03  -0.03    -0.04  -0.13  -0.07    -0.03   0.04  -0.17
   7   6     0.00   0.02  -0.07    -0.11  -0.15  -0.09     0.01   0.05  -0.18
   8   6     0.01   0.00  -0.16    -0.08  -0.11  -0.06     0.01   0.04  -0.11
   9   6    -0.00   0.00  -0.15     0.03  -0.08  -0.06    -0.02   0.03  -0.12
  10   6    -0.01  -0.02  -0.11     0.05   0.03   0.01    -0.03  -0.00   0.04
  11   6    -0.02  -0.02  -0.09     0.11   0.06   0.07    -0.07   0.00   0.20
  12   6     0.02  -0.03  -0.07    -0.01   0.07   0.06     0.02  -0.03   0.10
  13   6     0.02  -0.04   0.04     0.00   0.10   0.05     0.03  -0.06   0.05
  14   6     0.01  -0.03   0.04     0.07   0.06   0.01    -0.00  -0.04   0.05
  15   6     0.01  -0.02   0.18     0.12   0.08  -0.02    -0.06  -0.08  -0.04
  16   7     0.01  -0.00   0.35     0.16   0.10  -0.05    -0.12  -0.13  -0.16
  17   6     0.02  -0.02  -0.01     0.07  -0.01  -0.03     0.01   0.02   0.03
  18   6    -0.03   0.02  -0.17     0.19  -0.11   0.01    -0.07   0.08   0.06
  19   7    -0.08   0.07  -0.29     0.33  -0.23   0.06    -0.13   0.15   0.08
  20   6     0.04  -0.00   0.07     0.02  -0.02  -0.05     0.07   0.03  -0.03
  21   6     0.05   0.00   0.04     0.03  -0.02  -0.07     0.08   0.03  -0.01
  22   6     0.04   0.01   0.03     0.06   0.04   0.00     0.09  -0.08  -0.06
  23   6     0.05   0.02   0.04     0.11  -0.02  -0.05     0.15   0.02   0.04
  24   6     0.05  -0.00  -0.02     0.08   0.11   0.09     0.04  -0.20  -0.12
  25   6     0.07  -0.03  -0.04     0.07   0.09   0.07     0.00  -0.13  -0.06
  26  16     0.13  -0.07  -0.02     0.05  -0.04  -0.11     0.07   0.15   0.12
  27  16     0.06  -0.01   0.33    -0.04   0.09   0.05     0.17  -0.06  -0.23
  28  16     0.06  -0.04  -0.34    -0.21  -0.01   0.10     0.08   0.02   0.28
  29  16    -0.01   0.08   0.13    -0.33  -0.09  -0.13     0.03   0.06  -0.22
  30  17     0.07  -0.06   0.05     0.07  -0.11  -0.01     0.05  -0.01  -0.02
  31   1    -0.12   0.07   0.09    -0.06  -0.00   0.05    -0.10   0.02   0.15
  32   1    -0.01   0.01  -0.00    -0.03   0.01  -0.04    -0.01   0.00  -0.00
  33   1    -0.16  -0.03  -0.02    -0.08  -0.05  -0.01    -0.16  -0.06   0.01
  34   1    -0.11   0.00  -0.01     0.01   0.03   0.06    -0.01   0.00   0.04
  35   1    -0.07  -0.03  -0.07    -0.03   0.08   0.03    -0.03   0.04   0.00
  36   1     0.01   0.01  -0.00    -0.02   0.10   0.05    -0.02  -0.01   0.03
  37   1     0.01   0.01  -0.01    -0.08   0.09  -0.01    -0.00  -0.01   0.05
  38   1    -0.00   0.01   0.03     0.01   0.00   0.00    -0.02   0.01  -0.00
  39   1    -0.00   0.01  -0.02     0.00  -0.05  -0.02    -0.01   0.02  -0.06
  40   1    -0.00   0.00  -0.04     0.03  -0.04  -0.03    -0.01   0.01  -0.07
  41   1     0.02   0.01  -0.01     0.04   0.02   0.03    -0.03  -0.04   0.06
  42   1    -0.00  -0.01  -0.06     0.04   0.01   0.02    -0.02   0.01   0.10
  43   1    -0.04  -0.02  -0.01     0.03   0.03   0.02    -0.01   0.04   0.06
  44   1     0.02   0.01   0.01     0.06  -0.01  -0.03     0.01  -0.00   0.05
  45   1     0.02   0.01   0.01     0.03   0.01  -0.01     0.06   0.01  -0.01
  46   1     0.02   0.01   0.01     0.03  -0.03  -0.01     0.07   0.04   0.03
  47   1     0.01   0.00  -0.01     0.03   0.05   0.05     0.01  -0.09  -0.05
  48   1     0.02  -0.01  -0.02     0.02   0.03   0.03    -0.01  -0.05  -0.02
                     16                     17                     18
                        a                      a                      a 
 Frequencies --   142.9512               147.8768               165.6093
 Red. masses --    16.9977                14.3841                15.3340
 Frc consts  --     0.0000                 0.0000                 0.0000
 IR Inten    --     1.3614                 9.4606                 0.3581
 Raman Activ --     0.0000                 0.0000                 0.0000
 Depolar     --     0.0000                 0.0000                 0.0000
 Atom AN      X      Y      Z        X      Y      Z        X      Y      Z
   1   7     0.11   0.01  -0.07    -0.22  -0.04   0.06     0.16   0.05   0.01
   2   6     0.01   0.04   0.03     0.05   0.08   0.02    -0.11  -0.17  -0.04
   3   6    -0.13   0.08  -0.04     0.12   0.00   0.06    -0.00  -0.03  -0.02
   4   6    -0.12  -0.01  -0.09     0.12  -0.02   0.06    -0.01   0.05   0.05
   5   6    -0.09  -0.02  -0.04     0.12  -0.02   0.02     0.01   0.04   0.03
   6   6    -0.10  -0.05   0.05     0.12  -0.03  -0.05     0.01   0.01  -0.02
   7   6    -0.11  -0.05   0.08     0.10  -0.03  -0.07     0.00   0.01  -0.05
   8   6    -0.08  -0.01   0.11     0.08  -0.04  -0.07    -0.01  -0.04  -0.08
   9   6    -0.03   0.01   0.13     0.06  -0.05  -0.10    -0.06  -0.06  -0.09
  10   6    -0.02   0.03   0.02     0.05  -0.04  -0.01    -0.07  -0.11  -0.01
  11   6     0.01   0.03  -0.08     0.05  -0.02   0.12    -0.14  -0.14   0.08
  12   6    -0.02   0.03  -0.04     0.01  -0.01   0.03    -0.03  -0.13   0.04
  13   6     0.01   0.00  -0.08    -0.02   0.03   0.02    -0.03  -0.06   0.05
  14   6     0.05  -0.02  -0.02    -0.01   0.02   0.04    -0.06  -0.04  -0.01
  15   6     0.19   0.04   0.00     0.15   0.09  -0.00     0.15   0.06  -0.00
  16   7     0.36   0.13   0.03     0.38   0.20  -0.06     0.51   0.23   0.01
  17   6     0.05  -0.04   0.04    -0.02  -0.02   0.04    -0.06  -0.02  -0.08
  18   6    -0.10   0.10  -0.04    -0.10   0.04  -0.01    -0.04  -0.03   0.02
  19   7    -0.30   0.27  -0.15    -0.24   0.16  -0.09    -0.01  -0.07   0.17
  20   6     0.06  -0.03   0.08    -0.08  -0.04   0.00    -0.02   0.00  -0.11
  21   6     0.07  -0.06   0.12    -0.11  -0.07   0.02    -0.00   0.08  -0.13
  22   6     0.04  -0.07   0.05    -0.14   0.03   0.04     0.03   0.02  -0.11
  23   6    -0.01   0.02   0.14    -0.32  -0.07  -0.06     0.19   0.13   0.00
  24   6     0.06  -0.12  -0.09    -0.08   0.15   0.10    -0.03  -0.07  -0.08
  25   6     0.13  -0.12  -0.08    -0.05   0.11   0.07    -0.11   0.01  -0.02
  26  16     0.29  -0.09   0.18    -0.13  -0.17  -0.06    -0.16   0.31   0.00
  27  16     0.04  -0.02  -0.18    -0.13  -0.02  -0.13     0.01  -0.05   0.14
  28  16    -0.12   0.02   0.01     0.08  -0.01   0.12     0.05  -0.16   0.01
  29  16    -0.25  -0.05  -0.04     0.19  -0.05  -0.02    -0.02   0.06   0.05
  30  17     0.00  -0.02   0.02     0.04  -0.03  -0.03    -0.07   0.03   0.01
  31   1     0.04  -0.02  -0.07    -0.07  -0.01   0.10     0.04   0.07  -0.03
  32   1    -0.01   0.00  -0.01    -0.02   0.00  -0.02     0.07  -0.00   0.04
  33   1     0.08   0.02   0.00    -0.12  -0.04  -0.02     0.06   0.02   0.01
  34   1     0.02   0.01   0.01     0.05   0.01   0.02    -0.12  -0.03  -0.02
  35   1     0.00   0.02   0.04     0.01   0.07  -0.02    -0.02  -0.14  -0.02
  36   1    -0.03   0.04   0.01     0.04  -0.01   0.00    -0.01  -0.00   0.00
  37   1    -0.06   0.04  -0.02     0.03  -0.00   0.03     0.03  -0.01  -0.03
  38   1    -0.02  -0.00  -0.02     0.03  -0.01   0.01     0.01   0.01   0.01
  39   1    -0.03  -0.02   0.03     0.04  -0.01  -0.02     0.00   0.00  -0.01
  40   1    -0.00  -0.00   0.06     0.02  -0.01  -0.05    -0.03  -0.01  -0.04
  41   1    -0.02   0.02  -0.04     0.01  -0.03   0.04    -0.02  -0.05   0.04
  42   1     0.00   0.01  -0.01     0.01  -0.00   0.06    -0.05  -0.03   0.01
  43   1     0.03  -0.00  -0.04     0.01   0.02   0.04    -0.07  -0.04   0.04
  44   1    -0.02  -0.00   0.07    -0.10  -0.00  -0.06     0.04   0.02   0.05
  45   1    -0.00   0.01   0.04    -0.11  -0.06   0.01     0.08   0.06  -0.03
  46   1     0.00   0.04   0.03    -0.11  -0.03  -0.03     0.08   0.06   0.02
  47   1     0.00  -0.04  -0.06    -0.02   0.07   0.05    -0.01  -0.05  -0.02
  48   1     0.04  -0.04  -0.04    -0.00   0.05   0.03    -0.05  -0.00   0.01
                     19                     20                     21
                        a                      a                      a 
 Frequencies --   167.6259               189.6809               192.0779
 Red. masses --    12.0472                11.8515                12.2924
 Frc consts  --     0.0000                 0.0000                 0.0000
 IR Inten    --    13.2450                 1.7236                 3.9853
 Raman Activ --     0.0000                 0.0000                 0.0000
 Depolar     --     0.0000                 0.0000                 0.0000
 Atom AN      X      Y      Z        X      Y      Z        X      Y      Z
   1   7    -0.32  -0.09   0.02     0.05   0.07   0.17    -0.01  -0.03  -0.15
   2   6     0.21   0.27   0.05    -0.14  -0.15   0.05     0.08   0.14  -0.02
   3   6     0.02  -0.05   0.03    -0.02   0.02   0.06    -0.05   0.01  -0.05
   4   6     0.02  -0.10  -0.12    -0.02   0.08  -0.01    -0.05  -0.07  -0.01
   5   6    -0.04  -0.06  -0.09     0.02   0.04  -0.10    -0.08  -0.04   0.07
   6   6    -0.03   0.02   0.02     0.02  -0.01  -0.12    -0.08  -0.00   0.10
   7   6     0.02   0.05   0.08     0.00  -0.01  -0.05    -0.04   0.00   0.05
   8   6     0.01   0.07   0.18     0.00  -0.01   0.12    -0.01   0.04  -0.08
   9   6    -0.05   0.06   0.28     0.02   0.01   0.32     0.00   0.03  -0.19
  10   6    -0.05  -0.01   0.10     0.03   0.00   0.18    -0.00   0.04  -0.09
  11   6    -0.11  -0.07  -0.23     0.08  -0.03  -0.28    -0.00   0.07   0.11
  12   6    -0.01  -0.04   0.01     0.03  -0.00   0.11     0.01   0.04  -0.02
  13   6    -0.02  -0.05  -0.04     0.03  -0.00   0.07     0.02  -0.01   0.05
  14   6    -0.03  -0.04  -0.09     0.03  -0.00   0.04     0.03  -0.03  -0.00
  15   6     0.02  -0.00  -0.01     0.01  -0.01   0.00     0.02  -0.04   0.01
  16   7     0.13   0.06   0.09    -0.00  -0.03  -0.04    -0.03  -0.07   0.02
  17   6    -0.04  -0.03  -0.10     0.04   0.02  -0.01     0.04  -0.03  -0.08
  18   6    -0.02  -0.05  -0.02    -0.04   0.08   0.06    -0.09   0.07   0.08
  19   7     0.02  -0.09   0.09    -0.13   0.18   0.15    -0.26   0.24   0.28
  20   6    -0.03  -0.01  -0.05     0.05   0.02  -0.07     0.06  -0.04  -0.15
  21   6    -0.01   0.04  -0.05     0.03  -0.03  -0.09     0.05  -0.08  -0.18
  22   6    -0.01   0.02  -0.06     0.05  -0.05  -0.04     0.10  -0.12  -0.12
  23   6     0.08   0.10   0.02    -0.02  -0.18  -0.17     0.11  -0.19  -0.19
  24   6    -0.04  -0.04  -0.06     0.06   0.04   0.11     0.10  -0.02   0.08
  25   6    -0.06   0.00  -0.03     0.00   0.07   0.13     0.03   0.07   0.16
  26  16    -0.07   0.17   0.02    -0.09  -0.07  -0.13    -0.05  -0.01  -0.13
  27  16    -0.03  -0.04   0.15     0.10   0.02   0.10     0.05  -0.01   0.19
  28  16     0.08  -0.01  -0.10     0.03  -0.05  -0.10    -0.01   0.08  -0.07
  29  16     0.12  -0.07  -0.12    -0.07   0.07  -0.23    -0.04  -0.06   0.19
  30  17     0.13  -0.03   0.02    -0.08  -0.00  -0.01     0.06   0.01   0.01
  31   1    -0.07  -0.13   0.06    -0.03   0.14   0.13     0.03  -0.12  -0.13
  32   1    -0.15  -0.00  -0.04     0.16   0.02   0.02    -0.13  -0.01  -0.02
  33   1    -0.12  -0.01  -0.01    -0.06  -0.06   0.01     0.08   0.05  -0.00
  34   1     0.23   0.04   0.02    -0.14  -0.02   0.01     0.11   0.03  -0.00
  35   1     0.04   0.25   0.03    -0.03  -0.14  -0.01     0.01   0.12   0.03
  36   1     0.00  -0.04  -0.02    -0.02   0.01   0.04     0.00   0.01  -0.02
  37   1    -0.03  -0.03   0.07     0.01   0.01  -0.01    -0.04   0.01   0.00
  38   1    -0.03  -0.03  -0.03     0.02   0.02  -0.02    -0.03  -0.02   0.02
  39   1    -0.02   0.02   0.02     0.01  -0.01  -0.04    -0.03   0.00   0.03
  40   1    -0.03   0.03   0.12     0.01   0.00   0.13     0.00   0.01  -0.07
  41   1    -0.06   0.03  -0.10    -0.05   0.06  -0.16     0.06   0.01   0.09
  42   1    -0.04  -0.01  -0.10     0.03  -0.01  -0.07     0.00   0.01  -0.01
  43   1    -0.01  -0.09  -0.09     0.11  -0.08  -0.14    -0.07   0.04   0.08
  44   1     0.03   0.01   0.04    -0.10  -0.01  -0.08    -0.12  -0.02  -0.05
  45   1     0.03   0.05  -0.00     0.01  -0.15  -0.10     0.07  -0.17  -0.15
  46   1     0.03   0.04   0.01     0.05  -0.02  -0.00     0.13   0.01   0.02
  47   1    -0.01  -0.03  -0.02     0.03   0.02   0.06     0.04  -0.00   0.05
  48   1    -0.02  -0.00  -0.01    -0.00   0.03   0.06     0.00   0.04   0.09
                     22                     23                     24
                        a                      a                      a 
 Frequencies --   205.9948               220.8579               228.0758
 Red. masses --    13.5114                13.1032                 7.3247
 Frc consts  --     0.0000                 0.0000                 0.0000
 IR Inten    --     2.3425                 0.4624                 2.6478
 Raman Activ --     0.0000                 0.0000                 0.0000
 Depolar     --     0.0000                 0.0000                 0.0000
 Atom AN      X      Y      Z        X      Y      Z        X      Y      Z
   1   7     0.04   0.07   0.08     0.02   0.02   0.04     0.20   0.15  -0.02
   2   6    -0.03  -0.04  -0.00     0.01   0.02   0.04     0.16   0.17  -0.00
   3   6     0.05   0.03   0.02    -0.08  -0.03   0.00     0.02   0.04  -0.04
   4   6     0.05   0.01   0.01    -0.08  -0.00  -0.09     0.02  -0.11  -0.07
   5   6     0.08  -0.01  -0.05    -0.08   0.00  -0.09    -0.02  -0.08   0.00
   6   6     0.07  -0.04  -0.06    -0.08   0.03   0.01    -0.03  -0.01   0.10
   7   6     0.03  -0.05  -0.03    -0.03   0.05   0.08    -0.01  -0.01   0.10
   8   6     0.02  -0.02   0.03    -0.02   0.03   0.09    -0.01   0.04   0.02
   9   6     0.06  -0.00   0.03    -0.04   0.00   0.00    -0.02   0.03  -0.08
  10   6     0.07   0.07   0.00    -0.04  -0.09  -0.09    -0.03   0.02  -0.08
  11   6     0.17   0.13   0.09    -0.18  -0.13   0.14    -0.09   0.01  -0.00
  12   6     0.00   0.10  -0.07     0.05  -0.14  -0.18    -0.03   0.03  -0.03
  13   6    -0.01   0.02  -0.21     0.06  -0.06  -0.25    -0.03   0.01   0.06
  14   6     0.05  -0.04  -0.39     0.00  -0.00  -0.25    -0.03   0.01   0.14
  15   6     0.02  -0.02  -0.09    -0.02   0.01  -0.07    -0.01   0.01   0.05
  16   7    -0.10  -0.03   0.31     0.03   0.08   0.19     0.00  -0.00  -0.09
  17   6     0.03  -0.12  -0.35     0.02   0.12  -0.09    -0.03  -0.01   0.12
  18   6    -0.02  -0.08  -0.08     0.05   0.11   0.00    -0.03  -0.01   0.04
  19   7    -0.14   0.02   0.25     0.16   0.02   0.07    -0.03  -0.01  -0.06
  20   6    -0.04  -0.12  -0.13     0.08   0.15   0.09    -0.02  -0.01   0.02
  21   6    -0.05  -0.11  -0.04     0.05   0.13   0.17     0.01  -0.00  -0.04
  22   6    -0.06  -0.06  -0.03     0.03   0.09   0.12     0.02  -0.01  -0.03
  23   6    -0.04   0.10   0.12    -0.16  -0.15  -0.11     0.12   0.01  -0.00
  24   6    -0.03  -0.03  -0.06     0.02   0.05   0.08     0.02  -0.01  -0.01
  25   6     0.03   0.02   0.01    -0.02  -0.06  -0.04     0.02   0.00  -0.00
  26  16     0.07   0.02   0.13    -0.05  -0.11  -0.06     0.03   0.03  -0.03
  27  16    -0.18  -0.03   0.12     0.26   0.09   0.02    -0.07  -0.01  -0.01
  28  16    -0.08   0.12   0.12     0.12  -0.13   0.15    -0.03   0.07  -0.07
  29  16     0.04  -0.04  -0.06    -0.08   0.05  -0.05     0.06  -0.12   0.10
  30  17    -0.06  -0.02   0.00    -0.02  -0.02  -0.01    -0.14  -0.17  -0.05
  31   1    -0.02   0.11   0.10    -0.02   0.05   0.07    -0.06   0.30   0.34
  32   1     0.12   0.02  -0.01     0.07   0.01  -0.03     0.43   0.08  -0.21
  33   1    -0.06  -0.05  -0.02    -0.04  -0.05  -0.01    -0.22  -0.28  -0.14
  34   1    -0.06  -0.00  -0.00     0.02   0.01   0.00     0.06   0.05  -0.02
  35   1    -0.00  -0.06  -0.02     0.00   0.02   0.02     0.04   0.06   0.02
  36   1     0.02   0.02   0.01    -0.04  -0.02   0.00     0.03   0.02  -0.01
  37   1     0.02   0.01  -0.01    -0.03  -0.01   0.02    -0.04   0.02   0.00
  38   1     0.03  -0.00  -0.01    -0.03  -0.00  -0.04    -0.02  -0.03  -0.01
  39   1     0.03  -0.02  -0.02    -0.03   0.02   0.01    -0.01  -0.00   0.04
  40   1     0.03  -0.01   0.01    -0.02   0.01   0.00    -0.01   0.01  -0.02
  41   1     0.11   0.06   0.07     0.09  -0.04   0.16     0.02   0.00   0.04
  42   1     0.07   0.01  -0.03    -0.07  -0.03  -0.10    -0.03   0.01  -0.05
  43   1    -0.02   0.05   0.07    -0.21  -0.05   0.14    -0.08  -0.00   0.03
  44   1     0.01   0.00   0.09    -0.11   0.01  -0.11     0.01   0.00   0.01
  45   1    -0.01   0.08   0.05    -0.06  -0.14  -0.04     0.05   0.00  -0.03
  46   1    -0.02   0.05   0.02    -0.03  -0.05  -0.01     0.06   0.01   0.02
  47   1    -0.01  -0.00  -0.03     0.01   0.02   0.03     0.01  -0.01  -0.00
  48   1     0.02   0.02   0.00    -0.01  -0.04  -0.04     0.00   0.00   0.01
                     25                     26                     27
                        a                      a                      a 
 Frequencies --   235.8880               244.2775               256.7440
 Red. masses --     3.5851                16.0811                12.8061
 Frc consts  --     0.0000                 0.0000                 0.0000
 IR Inten    --     3.8555                 5.5293                 5.4136
 Raman Activ --     0.0000                 0.0000                 0.0000
 Depolar     --     0.0000                 0.0000                 0.0000
 Atom AN      X      Y      Z        X      Y      Z        X      Y      Z
   1   7     0.06   0.04  -0.06    -0.07  -0.05   0.09    -0.04  -0.05   0.11
   2   6     0.02   0.07  -0.00     0.11  -0.07  -0.05     0.11  -0.04   0.00
   3   6    -0.03   0.03  -0.01     0.16  -0.16  -0.01    -0.01  -0.20  -0.03
   4   6    -0.02  -0.05   0.02     0.12   0.09  -0.04    -0.04   0.12  -0.19
   5   6    -0.05  -0.04   0.04     0.12   0.10  -0.03    -0.02   0.12  -0.11
   6   6    -0.04  -0.01   0.02     0.12   0.05   0.01    -0.01   0.08   0.10
   7   6    -0.01  -0.00  -0.02     0.01   0.02   0.02    -0.03   0.06   0.15
   8   6     0.01   0.03  -0.08    -0.07  -0.11   0.02    -0.05  -0.05   0.09
   9   6    -0.01   0.02  -0.11    -0.08  -0.11  -0.00     0.02  -0.07  -0.07
  10   6    -0.02  -0.01  -0.01    -0.07  -0.06  -0.02     0.04   0.01  -0.13
  11   6    -0.09  -0.03   0.01    -0.11  -0.08   0.03     0.42   0.20   0.07
  12   6     0.01  -0.02  -0.02    -0.11  -0.02  -0.04    -0.00   0.02  -0.15
  13   6     0.02  -0.01  -0.05    -0.12   0.13  -0.06     0.00  -0.12  -0.05
  14   6     0.01  -0.01  -0.15    -0.09   0.12  -0.05    -0.02  -0.11   0.05
  15   6    -0.00  -0.00  -0.05    -0.06   0.16  -0.03     0.02  -0.11   0.03
  16   7    -0.00   0.02   0.11    -0.07   0.18   0.00     0.13  -0.07   0.00
  17   6     0.01   0.02  -0.11    -0.07   0.03  -0.00    -0.04  -0.05   0.11
  18   6     0.01   0.02  -0.03    -0.05   0.00   0.02    -0.05  -0.06   0.04
  19   7     0.03   0.01   0.09    -0.00  -0.04   0.03    -0.03  -0.09  -0.07
  20   6     0.02   0.03   0.00    -0.03   0.02   0.03    -0.01  -0.03   0.07
  21   6     0.01   0.04   0.06     0.02  -0.02   0.03     0.01   0.08   0.02
  22   6     0.00   0.03   0.04     0.05  -0.06   0.03     0.00   0.08   0.00
  23   6    -0.06  -0.02  -0.01     0.21  -0.13  -0.02     0.01   0.03  -0.05
  24   6     0.00   0.01   0.01     0.09  -0.03   0.00    -0.03   0.02  -0.01
  25   6    -0.01  -0.03  -0.02     0.16  -0.05  -0.01    -0.08  -0.01  -0.05
  26  16    -0.01  -0.02   0.00     0.28  -0.12   0.01    -0.12   0.10  -0.04
  27  16     0.06   0.03   0.11    -0.25   0.22  -0.01     0.10  -0.16   0.08
  28  16     0.05   0.01   0.05    -0.27  -0.12   0.02    -0.11  -0.02  -0.00
  29  16     0.01  -0.06   0.07     0.07   0.13  -0.01    -0.14   0.24  -0.02
  30  17    -0.02  -0.03  -0.01     0.01   0.03   0.00     0.01   0.01  -0.00
  31   1     0.00   0.05   0.02    -0.02  -0.04   0.05    -0.02  -0.01   0.10
  32   1     0.07   0.02  -0.06    -0.04  -0.02   0.05     0.02  -0.01   0.02
  33   1    -0.01  -0.05  -0.03    -0.04   0.02   0.01    -0.07  -0.02   0.00
  34   1     0.02   0.02  -0.00     0.05  -0.02  -0.03     0.07  -0.01  -0.02
  35   1     0.00   0.03   0.01     0.03   0.00  -0.03     0.03   0.03   0.01
  36   1     0.01   0.02  -0.00    -0.00  -0.10  -0.03    -0.08  -0.13  -0.04
  37   1    -0.03   0.02  -0.01     0.10  -0.08   0.05     0.06  -0.10   0.07
  38   1    -0.02  -0.01   0.02     0.04   0.03  -0.01     0.01   0.04  -0.06
  39   1    -0.02   0.00   0.00     0.05   0.00   0.01    -0.00   0.02   0.05
  40   1    -0.01   0.01  -0.04    -0.02  -0.04  -0.00     0.02  -0.03  -0.02
  41   1    -0.43  -0.21  -0.26    -0.07  -0.06  -0.01     0.09   0.05  -0.01
  42   1    -0.06   0.05   0.51    -0.05  -0.01   0.06     0.19  -0.01   0.13
  43   1     0.40   0.12  -0.26     0.00  -0.01  -0.01     0.19   0.18  -0.01
  44   1    -0.04   0.01  -0.02    -0.12   0.01   0.01    -0.08   0.04  -0.02
  45   1    -0.02  -0.04  -0.00     0.12  -0.16  -0.15     0.02  -0.06  -0.07
  46   1    -0.01  -0.01   0.00     0.21   0.03   0.12     0.06   0.04   0.03
  47   1    -0.00   0.00   0.00     0.02   0.01  -0.01    -0.01  -0.01   0.00
  48   1    -0.00  -0.02  -0.02     0.05  -0.01  -0.01    -0.03  -0.02  -0.02
                     28                     29                     30
                        a                      a                      a 
 Frequencies --   261.7776               286.8539               299.1784
 Red. masses --     8.0443                12.7634                10.4551
 Frc consts  --     0.0000                 0.0000                 0.0000
 IR Inten    --     1.5086                 6.1180                 3.1492
 Raman Activ --     0.0000                 0.0000                 0.0000
 Depolar     --     0.0000                 0.0000                 0.0000
 Atom AN      X      Y      Z        X      Y      Z        X      Y      Z
   1   7    -0.02  -0.03   0.07    -0.07  -0.02   0.13     0.01   0.01  -0.06
   2   6     0.10  -0.02  -0.01    -0.10  -0.10   0.05    -0.02   0.02  -0.02
   3   6     0.00  -0.16  -0.03     0.00   0.17   0.02     0.07   0.05   0.03
   4   6    -0.02   0.09  -0.13     0.02  -0.02  -0.06     0.07  -0.05   0.14
   5   6    -0.01   0.09  -0.06     0.08  -0.07  -0.17     0.02  -0.03   0.07
   6   6    -0.01   0.05   0.09     0.06  -0.07   0.00     0.02   0.02  -0.10
   7   6    -0.03   0.04   0.09     0.03  -0.05   0.19     0.01   0.02  -0.10
   8   6    -0.05  -0.07   0.02     0.06   0.06   0.22    -0.05   0.00  -0.01
   9   6    -0.02  -0.07  -0.07     0.05   0.05   0.04    -0.10   0.00   0.09
  10   6    -0.00  -0.07  -0.05     0.05  -0.00  -0.23    -0.10   0.04   0.01
  11   6    -0.06  -0.09   0.03    -0.13  -0.04   0.09     0.09   0.13  -0.01
  12   6     0.01  -0.06  -0.00     0.05  -0.01  -0.38    -0.11   0.02  -0.09
  13   6     0.02   0.06   0.04     0.02   0.01  -0.22    -0.09  -0.10  -0.11
  14   6     0.06   0.05   0.04     0.03   0.03   0.08    -0.14  -0.07  -0.05
  15   6     0.03   0.04   0.02     0.02   0.02   0.03    -0.09  -0.04  -0.03
  16   7    -0.05  -0.00  -0.03    -0.05  -0.02  -0.02     0.11   0.06   0.04
  17   6     0.08   0.04  -0.04     0.01  -0.01   0.26    -0.14   0.00   0.08
  18   6     0.08   0.08  -0.01     0.01  -0.02   0.13    -0.15  -0.00   0.06
  19   7    -0.01   0.18   0.08    -0.06   0.05  -0.13    -0.13  -0.04   0.07
  20   6     0.05   0.02  -0.11    -0.05  -0.04   0.10    -0.00   0.05   0.10
  21   6    -0.00  -0.14  -0.13    -0.03  -0.05  -0.10     0.08   0.17   0.09
  22   6     0.00  -0.16  -0.11    -0.03  -0.06  -0.12     0.12   0.07   0.08
  23   6    -0.03  -0.00   0.04     0.16   0.01  -0.04     0.20  -0.21  -0.19
  24   6     0.04  -0.05   0.01    -0.02  -0.01  -0.03     0.09   0.01   0.08
  25   6     0.05   0.09   0.15     0.00   0.10   0.07     0.02  -0.10  -0.05
  26  16     0.01  -0.07  -0.02    -0.04   0.03  -0.07     0.04   0.04  -0.10
  27  16     0.04   0.12   0.05    -0.15  -0.01   0.15     0.04  -0.06   0.03
  28  16    -0.06  -0.16  -0.04     0.12   0.10   0.08    -0.20   0.09   0.06
  29  16    -0.11   0.18   0.02     0.01  -0.13  -0.15     0.19  -0.08  -0.01
  30  17     0.00  -0.00  -0.00     0.01   0.04  -0.00    -0.00  -0.00  -0.00
  31   1    -0.02   0.00   0.08    -0.00  -0.03  -0.02     0.01  -0.00  -0.04
  32   1     0.03  -0.00   0.00    -0.07  -0.02   0.09    -0.01   0.00  -0.02
  33   1    -0.05  -0.02  -0.01     0.02   0.06   0.05     0.02   0.01  -0.01
  34   1     0.07  -0.00  -0.03    -0.09  -0.03   0.04    -0.02   0.01   0.01
  35   1     0.02   0.03   0.01    -0.02  -0.09  -0.02    -0.00  -0.01  -0.02
  36   1    -0.06  -0.11  -0.04     0.02   0.12   0.07     0.06   0.04   0.01
  37   1     0.05  -0.09   0.06    -0.04   0.09  -0.07     0.00   0.03  -0.02
  38   1     0.01   0.03  -0.03     0.03  -0.02  -0.08    -0.01  -0.01   0.04
  39   1     0.00   0.01   0.04     0.02  -0.02   0.01     0.00   0.01  -0.05
  40   1     0.00  -0.03  -0.03     0.01   0.02   0.04    -0.03   0.00   0.04
  41   1    -0.04  -0.06   0.00    -0.08  -0.13   0.03     0.04   0.08  -0.01
  42   1    -0.03  -0.01   0.05    -0.08   0.03   0.13     0.07  -0.00  -0.01
  43   1     0.00  -0.01  -0.00    -0.01   0.05   0.02     0.03   0.06  -0.00
  44   1     0.37  -0.11   0.02     0.09  -0.02   0.02     0.34  -0.09  -0.17
  45   1    -0.11   0.30   0.27     0.06   0.06  -0.02    -0.02   0.12   0.12
  46   1    -0.28  -0.16  -0.21     0.04  -0.01  -0.01    -0.15  -0.28  -0.18
  47   1     0.01  -0.01   0.01    -0.00   0.00  -0.00     0.03  -0.00   0.03
  48   1     0.02   0.06   0.08     0.01   0.05   0.05    -0.01  -0.06  -0.03
                     31                     32                     33
                        a                      a                      a 
 Frequencies --   314.5576               327.2527               337.8599
 Red. masses --    15.2229                12.7037                16.1447
 Frc consts  --     0.0000                 0.0000                 0.0000
 IR Inten    --     6.4256                 4.1754                 8.8543
 Raman Activ --     0.0000                 0.0000                 0.0000
 Depolar     --     0.0000                 0.0000                 0.0000
 Atom AN      X      Y      Z        X      Y      Z        X      Y      Z
   1   7    -0.05  -0.04   0.13    -0.06  -0.02   0.20    -0.03   0.00   0.09
   2   6     0.12  -0.11  -0.06    -0.01  -0.12   0.04     0.01  -0.06  -0.00
   3   6     0.18  -0.03  -0.05    -0.04   0.15  -0.06     0.09   0.14  -0.02
   4   6     0.14   0.08  -0.06    -0.02  -0.05  -0.24     0.09  -0.09  -0.01
   5   6     0.21   0.04  -0.02     0.01  -0.06  -0.21     0.02  -0.05  -0.08
   6   6     0.17  -0.11   0.05     0.00  -0.01   0.18     0.01   0.07   0.01
   7   6    -0.05  -0.16   0.04     0.03   0.01   0.26    -0.01   0.07   0.08
   8   6    -0.05  -0.02  -0.01     0.07   0.07   0.07    -0.10  -0.00   0.07
   9   6    -0.00   0.03  -0.04     0.04   0.02  -0.20    -0.16  -0.02  -0.03
  10   6    -0.02   0.14  -0.00     0.02  -0.02  -0.04    -0.15   0.03  -0.07
  11   6    -0.33   0.02  -0.02     0.07   0.00   0.02    -0.01   0.12   0.01
  12   6    -0.02   0.15   0.05     0.00  -0.01   0.20    -0.11   0.01  -0.03
  13   6     0.03  -0.01   0.06    -0.04   0.03   0.24    -0.06  -0.10   0.04
  14   6     0.14  -0.08   0.01    -0.12   0.05   0.04    -0.10  -0.07   0.05
  15   6     0.14  -0.12   0.02    -0.11   0.08   0.03    -0.09  -0.08   0.03
  16   7     0.04  -0.19   0.02    -0.02   0.13  -0.06     0.12   0.01  -0.03
  17   6     0.13  -0.04  -0.04    -0.11  -0.02  -0.21    -0.05   0.09  -0.05
  18   6     0.10  -0.00  -0.02    -0.11  -0.05  -0.13    -0.07   0.12  -0.05
  19   7    -0.01   0.10   0.02    -0.08  -0.09   0.15     0.18  -0.10  -0.02
  20   6     0.06  -0.04  -0.02    -0.03  -0.00  -0.13     0.10   0.12  -0.09
  21   6     0.07   0.09   0.05     0.01   0.06   0.07     0.04  -0.07  -0.07
  22   6     0.07   0.14   0.09     0.05   0.07   0.14     0.04  -0.17  -0.10
  23   6    -0.08   0.01  -0.06     0.01  -0.10  -0.02    -0.23   0.09   0.15
  24   6     0.02   0.04   0.05     0.05   0.03   0.06     0.05  -0.12  -0.04
  25   6    -0.10  -0.10  -0.11     0.03  -0.14  -0.11     0.06   0.10   0.18
  26  16    -0.11   0.13   0.00     0.11  -0.00   0.06     0.00  -0.09  -0.04
  27  16     0.08  -0.10  -0.01    -0.06   0.01  -0.08     0.32   0.05   0.02
  28  16    -0.29   0.22  -0.07     0.22   0.03  -0.16    -0.31   0.02  -0.04
  29  16    -0.18  -0.10   0.03    -0.01  -0.05  -0.02     0.25  -0.11  -0.03
  30  17    -0.00   0.02   0.01     0.00   0.03   0.00    -0.00   0.02  -0.00
  31   1    -0.01  -0.03   0.06    -0.01  -0.02   0.05    -0.00  -0.01   0.02
  32   1    -0.03  -0.02   0.08    -0.04  -0.02   0.11    -0.02  -0.01   0.06
  33   1    -0.05   0.04   0.02    -0.02   0.06   0.05    -0.01   0.04   0.02
  34   1     0.02  -0.03  -0.02    -0.05  -0.03   0.03    -0.04  -0.02   0.02
  35   1     0.04  -0.03  -0.05     0.00  -0.07  -0.01     0.01  -0.05  -0.03
  36   1     0.02  -0.02  -0.01    -0.00   0.13   0.07     0.07   0.13   0.05
  37   1     0.08  -0.02  -0.02    -0.07   0.10  -0.10    -0.03   0.09  -0.09
  38   1     0.08   0.02  -0.01     0.01  -0.02  -0.11    -0.02  -0.03  -0.04
  39   1     0.09  -0.07   0.03    -0.00   0.01   0.10    -0.00   0.02   0.01
  40   1     0.01  -0.00  -0.02     0.00   0.01  -0.09    -0.05  -0.01  -0.01
  41   1    -0.11  -0.04  -0.00     0.02  -0.00   0.01     0.01   0.04   0.00
  42   1    -0.16   0.07  -0.02     0.03  -0.01   0.01     0.03   0.00   0.02
  43   1    -0.11  -0.05  -0.00     0.02   0.02   0.01     0.01   0.08  -0.00
  44   1    -0.03   0.03  -0.07     0.06  -0.02  -0.07    -0.15   0.02   0.12
  45   1    -0.04  -0.04   0.01    -0.02  -0.02   0.04    -0.08  -0.02   0.06
  46   1    -0.05  -0.02  -0.03    -0.05  -0.10  -0.03    -0.04   0.16   0.02
  47   1     0.01  -0.01   0.02     0.01   0.01   0.01     0.02  -0.04  -0.00
  48   1    -0.05  -0.07  -0.06    -0.00  -0.07  -0.06     0.02   0.06   0.10
                     34                     35                     36
                        a                      a                      a 
 Frequencies --   356.6907               372.6643               395.3527
 Red. masses --    18.3479                11.7041                12.7169
 Frc consts  --     0.0000                 0.0000                 0.0000
 IR Inten    --     4.9580                 1.4885                12.7815
 Raman Activ --     0.0000                 0.0000                 0.0000
 Depolar     --     0.0000                 0.0000                 0.0000
 Atom AN      X      Y      Z        X      Y      Z        X      Y      Z
   1   7     0.00   0.03  -0.04     0.03   0.01  -0.16     0.03   0.02  -0.18
   2   6    -0.09   0.04   0.05    -0.08   0.09   0.02    -0.15   0.11   0.06
   3   6    -0.06   0.10   0.05     0.00  -0.11   0.12     0.02  -0.09   0.19
   4   6    -0.02  -0.11   0.03    -0.00   0.07   0.19     0.03   0.06   0.22
   5   6    -0.13  -0.05  -0.08     0.05   0.03   0.03     0.07  -0.00  -0.12
   6   6    -0.10   0.16  -0.01     0.05  -0.07  -0.12     0.06  -0.04  -0.07
   7   6     0.03   0.19   0.08     0.00  -0.06   0.03     0.00  -0.02   0.22
   8   6    -0.08  -0.11   0.10     0.03   0.03   0.15    -0.01   0.01   0.23
   9   6    -0.04  -0.13  -0.01     0.04   0.03   0.09    -0.00  -0.01  -0.08
  10   6    -0.00  -0.07  -0.07     0.03  -0.01  -0.17    -0.00   0.02  -0.14
  11   6     0.04  -0.05   0.02    -0.02  -0.01   0.01    -0.04   0.03   0.01
  12   6    -0.02  -0.02  -0.04     0.02  -0.01  -0.24    -0.01   0.03   0.03
  13   6     0.00   0.10   0.04    -0.02   0.02   0.01     0.00  -0.05   0.17
  14   6     0.19   0.01   0.08    -0.08   0.07   0.21    -0.02  -0.05   0.07
  15   6     0.22  -0.00   0.07    -0.07   0.10   0.17    -0.05  -0.08   0.09
  16   7    -0.05  -0.17  -0.03    -0.04   0.09  -0.14     0.08  -0.04  -0.04
  17   6     0.19  -0.07  -0.04    -0.08  -0.05  -0.08     0.02   0.07  -0.18
  18   6     0.20  -0.04  -0.02    -0.10  -0.07  -0.07     0.03   0.09  -0.18
  19   7    -0.02   0.17   0.01    -0.04  -0.14   0.03     0.07   0.08   0.15
  20   6     0.02  -0.11  -0.09     0.04  -0.05  -0.29    -0.04   0.07   0.03
  21   6     0.02  -0.01  -0.02     0.09  -0.02  -0.11    -0.12  -0.00   0.12
  22   6     0.05   0.14   0.09     0.21   0.00   0.09    -0.23   0.03  -0.01
  23   6    -0.04   0.01  -0.04    -0.24   0.02   0.10     0.18  -0.04  -0.06
  24   6     0.02   0.08   0.07     0.19  -0.05   0.12    -0.19   0.09  -0.09
  25   6    -0.08  -0.14  -0.16     0.02  -0.20  -0.05    -0.01   0.12  -0.03
  26  16    -0.05   0.13   0.07     0.05   0.14   0.00     0.02  -0.19   0.12
  27  16    -0.17   0.05   0.01    -0.02   0.04   0.10     0.13  -0.05  -0.06
  28  16    -0.27  -0.24  -0.01     0.08   0.07   0.02    -0.07   0.06  -0.10
  29  16     0.39   0.07  -0.07    -0.10  -0.01  -0.10     0.01  -0.03  -0.16
  30  17     0.00   0.00  -0.00     0.00  -0.02   0.00     0.00  -0.02   0.00
  31   1     0.01   0.01  -0.04     0.01   0.01  -0.07     0.01   0.02  -0.10
  32   1    -0.00   0.01  -0.02     0.02   0.02  -0.09     0.01   0.02  -0.10
  33   1     0.03  -0.01   0.01     0.04  -0.05  -0.02     0.06  -0.06  -0.02
  34   1    -0.05   0.01   0.03    -0.01   0.03   0.00    -0.06   0.03   0.02
  35   1    -0.02  -0.01   0.01    -0.02   0.03   0.01    -0.04   0.01   0.01
  36   1     0.03   0.08   0.04    -0.02  -0.12  -0.05    -0.01  -0.12  -0.03
  37   1    -0.07   0.06  -0.03     0.06  -0.08   0.12     0.07  -0.08   0.15
  38   1    -0.07  -0.03  -0.04     0.03   0.02   0.01     0.03   0.00  -0.06
  39   1    -0.06   0.08  -0.00     0.03  -0.03  -0.07     0.03  -0.02  -0.04
  40   1     0.00  -0.05  -0.00     0.01   0.02   0.06     0.00  -0.00  -0.03
  41   1     0.01  -0.03   0.01    -0.00  -0.05   0.02    -0.01  -0.03   0.02
  42   1     0.02  -0.02   0.02    -0.02   0.01   0.04    -0.02   0.02   0.03
  43   1     0.01   0.01   0.01    -0.02   0.04   0.01    -0.02   0.04   0.01
  44   1    -0.02   0.03  -0.06    -0.11   0.03   0.00     0.09  -0.02  -0.01
  45   1    -0.02  -0.04  -0.01    -0.12  -0.07   0.11     0.10   0.05  -0.10
  46   1    -0.01  -0.01  -0.01    -0.11   0.07  -0.04     0.10  -0.08   0.05
  47   1     0.01   0.02   0.03     0.06  -0.03   0.05    -0.07   0.05  -0.05
  48   1    -0.04  -0.08  -0.08    -0.03  -0.09  -0.02     0.03   0.06  -0.03
                     37                     38                     39
                        a                      a                      a 
 Frequencies --   411.5080               440.9698               449.2067
 Red. masses --    12.8204                14.6467                15.8063
 Frc consts  --     0.0000                 0.0000                 0.0000
 IR Inten    --     8.6476                 1.5165                 0.3123
 Raman Activ --     0.0000                 0.0000                 0.0000
 Depolar     --     0.0000                 0.0000                 0.0000
 Atom AN      X      Y      Z        X      Y      Z        X      Y      Z
   1   7    -0.01  -0.02   0.13    -0.00   0.00   0.03     0.00  -0.01   0.03
   2   6     0.16  -0.10  -0.08    -0.01  -0.01   0.02     0.09  -0.03  -0.06
   3   6     0.05   0.05  -0.16    -0.10   0.01  -0.04     0.10   0.01  -0.04
   4   6     0.02  -0.03  -0.08    -0.07  -0.03  -0.12     0.06   0.01   0.11
   5   6    -0.04   0.03   0.18    -0.06  -0.02   0.05     0.01   0.03   0.07
   6   6    -0.04   0.01  -0.06    -0.04   0.03   0.03    -0.01  -0.01  -0.12
   7   6    -0.04  -0.01  -0.23     0.05   0.02  -0.11    -0.06   0.00   0.03
   8   6    -0.03   0.04  -0.09     0.02  -0.12  -0.05    -0.04   0.11   0.11
   9   6    -0.08   0.05   0.18     0.22  -0.05   0.10    -0.19   0.05  -0.01
  10   6    -0.07  -0.02  -0.07     0.24   0.04  -0.02    -0.20  -0.06  -0.09
  11   6     0.04   0.05  -0.00    -0.08  -0.12   0.01     0.07   0.08   0.00
  12   6    -0.00  -0.08  -0.28     0.11   0.10  -0.13    -0.08  -0.11  -0.01
  13   6     0.00  -0.05  -0.06     0.09   0.03  -0.00    -0.08   0.06   0.09
  14   6    -0.01  -0.00   0.23    -0.01   0.09   0.11     0.07  -0.02   0.04
  15   6    -0.05  -0.03   0.28    -0.01   0.15   0.20     0.23   0.01   0.09
  16   7     0.05  -0.04  -0.17    -0.07   0.09  -0.13    -0.04  -0.16  -0.03
  17   6     0.04   0.06  -0.15    -0.05  -0.10  -0.15     0.06  -0.07  -0.12
  18   6     0.06   0.09  -0.19    -0.05  -0.19  -0.22     0.08  -0.08  -0.19
  19   7     0.08   0.10   0.12    -0.17  -0.12   0.13    -0.04   0.03   0.11
  20   6    -0.03   0.02  -0.19     0.02  -0.03   0.13     0.02  -0.01   0.21
  21   6    -0.12  -0.12  -0.03     0.08   0.20   0.22     0.12   0.24   0.22
  22   6    -0.16   0.05   0.05     0.01   0.02  -0.01     0.09   0.02   0.01
  23   6     0.09  -0.03  -0.02     0.00   0.02  -0.02    -0.04   0.02   0.00
  24   6    -0.11   0.15   0.02    -0.04  -0.13  -0.14     0.02  -0.19  -0.13
  25   6    -0.03  -0.04  -0.15     0.02   0.16   0.15     0.04   0.14   0.19
  26  16     0.06  -0.10   0.19    -0.06  -0.07  -0.11    -0.06   0.02  -0.20
  27  16     0.06   0.03   0.06     0.14  -0.16  -0.00    -0.23   0.16  -0.09
  28  16     0.07  -0.03   0.11    -0.23   0.07   0.03     0.23  -0.12  -0.00
  29  16    -0.08  -0.04   0.11     0.13   0.14   0.05    -0.13  -0.12  -0.02
  30  17    -0.00   0.01  -0.00     0.00   0.00  -0.00    -0.00   0.00   0.00
  31   1    -0.01  -0.02   0.09    -0.00   0.00   0.01    -0.00  -0.01   0.03
  32   1    -0.01  -0.02   0.08    -0.00  -0.00   0.01    -0.00  -0.01   0.02
  33   1    -0.06   0.05   0.00    -0.00   0.00   0.01    -0.02   0.02  -0.01
  34   1     0.07  -0.03  -0.03     0.01  -0.00   0.00     0.03  -0.01  -0.02
  35   1     0.04  -0.00  -0.02    -0.00   0.01   0.02     0.02   0.00  -0.02
  36   1     0.03   0.09   0.02    -0.03   0.03   0.01     0.04   0.02  -0.00
  37   1    -0.02   0.06  -0.12    -0.05   0.02  -0.03     0.03   0.01  -0.03
  38   1    -0.02   0.01   0.10    -0.02  -0.00   0.03    -0.01   0.01   0.03
  39   1    -0.01  -0.00  -0.03    -0.03   0.03   0.02     0.01  -0.02  -0.06
  40   1    -0.03   0.03   0.10     0.09  -0.04   0.06    -0.08   0.04  -0.00
  41   1     0.02   0.02   0.01    -0.04  -0.10   0.01     0.04   0.06   0.01
  42   1     0.04  -0.01   0.01    -0.10   0.04  -0.00     0.09  -0.04   0.02
  43   1     0.01   0.05   0.00    -0.04  -0.09   0.01     0.03   0.10   0.00
  44   1     0.05  -0.01  -0.02     0.00   0.01  -0.01    -0.03   0.02  -0.01
  45   1     0.06   0.02  -0.06     0.00   0.01  -0.01    -0.02  -0.02   0.02
  46   1     0.06  -0.06   0.04    -0.00   0.00  -0.00    -0.02   0.02  -0.01
  47   1    -0.04   0.07   0.00    -0.02  -0.08  -0.07     0.00  -0.11  -0.07
  48   1     0.01  -0.01  -0.08     0.01   0.06   0.06    -0.00   0.04   0.08
                     40                     41                     42
                        a                      a                      a 
 Frequencies --   465.2982               478.6528               490.3845
 Red. masses --    15.7365                13.3915                18.5640
 Frc consts  --     0.0000                 0.0000                 0.0000
 IR Inten    --     1.3922                 7.2218                 3.9820
 Raman Activ --     0.0000                 0.0000                 0.0000
 Depolar     --     0.0000                 0.0000                 0.0000
 Atom AN      X      Y      Z        X      Y      Z        X      Y      Z
   1   7    -0.01   0.01  -0.05     0.01  -0.01   0.07    -0.00   0.00  -0.02
   2   6    -0.13   0.05   0.09     0.12  -0.06  -0.08    -0.01   0.01   0.01
   3   6    -0.11  -0.02   0.08    -0.04   0.01  -0.15     0.06   0.00   0.04
   4   6    -0.06   0.01  -0.18    -0.05  -0.02   0.06     0.05   0.01   0.05
   5   6     0.06  -0.05  -0.12    -0.11   0.02   0.25     0.02   0.01  -0.10
   6   6     0.07  -0.04   0.21    -0.08  -0.01  -0.28     0.00   0.03   0.07
   7   6     0.09  -0.06  -0.07     0.01   0.03   0.01    -0.05   0.02   0.03
   8   6     0.10  -0.05  -0.21     0.02  -0.02   0.30    -0.06   0.01  -0.09
   9   6     0.06  -0.03   0.05     0.17  -0.02   0.01    -0.08   0.02  -0.03
  10   6     0.04  -0.04   0.12     0.19  -0.04  -0.19    -0.08   0.08   0.08
  11   6     0.03  -0.09   0.00     0.03  -0.13   0.02    -0.01   0.14  -0.02
  12   6    -0.08   0.01  -0.07     0.04   0.06   0.02     0.05  -0.01   0.01
  13   6    -0.11  -0.06  -0.13    -0.00  -0.01   0.25     0.10  -0.05  -0.11
  14   6    -0.00  -0.15   0.06    -0.02  -0.05  -0.03    -0.03   0.09  -0.00
  15   6    -0.05  -0.28   0.18    -0.19  -0.19  -0.19    -0.33   0.09   0.08
  16   7     0.20  -0.23  -0.05     0.13  -0.00   0.12     0.00   0.27  -0.08
  17   6     0.02   0.10  -0.05     0.01   0.09   0.00     0.08   0.07  -0.02
  18   6    -0.07   0.27  -0.13     0.00   0.19   0.00     0.39  -0.02  -0.00
  19   7     0.20   0.06   0.07     0.15   0.09  -0.00     0.09   0.30  -0.01
  20   6    -0.05   0.08   0.02    -0.08   0.04   0.01    -0.12  -0.03  -0.02
  21   6    -0.01   0.08   0.04    -0.04   0.04  -0.01    -0.04   0.08   0.04
  22   6     0.05  -0.04   0.05     0.02  -0.05   0.04     0.03  -0.03   0.08
  23   6    -0.03  -0.05   0.06    -0.02  -0.06   0.07    -0.04  -0.05   0.09
  24   6     0.05  -0.08  -0.01     0.05  -0.04   0.02     0.03  -0.09  -0.02
  25   6     0.06  -0.01   0.06     0.05  -0.03   0.03     0.06  -0.00   0.06
  26  16     0.05   0.08  -0.13     0.06   0.09  -0.11     0.06   0.10  -0.15
  27  16    -0.35   0.12  -0.01    -0.23  -0.15  -0.04    -0.13  -0.49   0.07
  28  16     0.02   0.16   0.04    -0.07   0.08  -0.07     0.02  -0.14   0.03
  29  16     0.08   0.07   0.05    -0.01   0.10  -0.03    -0.02  -0.07  -0.01
  30  17     0.00  -0.01  -0.00    -0.00   0.01  -0.00    -0.00  -0.00   0.00
  31   1     0.00   0.01  -0.05    -0.00  -0.01   0.06     0.00   0.00  -0.01
  32   1     0.00   0.01  -0.04     0.00  -0.01   0.05    -0.00   0.00  -0.01
  33   1     0.04  -0.04   0.01    -0.04   0.04  -0.01     0.01  -0.01  -0.00
  34   1    -0.06   0.01   0.03     0.09  -0.02  -0.04    -0.02   0.00   0.01
  35   1    -0.04  -0.01   0.03     0.03   0.03   0.01    -0.00  -0.01  -0.01
  36   1    -0.06  -0.05  -0.00     0.02   0.06   0.00     0.02  -0.01  -0.00
  37   1    -0.02  -0.03   0.08    -0.03   0.03  -0.10     0.02  -0.00   0.02
  38   1     0.04  -0.00  -0.06    -0.04   0.01   0.13    -0.00  -0.00  -0.06
  39   1     0.01   0.00   0.12    -0.04   0.01  -0.16     0.01   0.00   0.04
  40   1     0.00   0.00   0.03     0.06  -0.02  -0.00    -0.01  -0.00  -0.01
  41   1    -0.00  -0.01  -0.01     0.01  -0.13   0.04    -0.01   0.08  -0.02
  42   1    -0.00  -0.01  -0.02    -0.04   0.01   0.03     0.02   0.02  -0.02
  43   1     0.01  -0.07  -0.01    -0.02  -0.02   0.03     0.01   0.03  -0.01
  44   1    -0.02  -0.01   0.01    -0.02  -0.01   0.02    -0.04  -0.00   0.02
  45   1    -0.02  -0.03   0.03    -0.01  -0.03   0.03    -0.01  -0.05   0.02
  46   1    -0.02  -0.00   0.00    -0.01  -0.00   0.01    -0.00   0.00   0.03
  47   1     0.01  -0.03  -0.02     0.01  -0.01  -0.00     0.00  -0.03  -0.03
  48   1     0.00  -0.01   0.03     0.00  -0.02   0.02     0.00  -0.01   0.03
                     43                     44                     45
                        a                      a                      a 
 Frequencies --   507.2410               510.8132               532.4412
 Red. masses --    11.7580                12.5385                13.1043
 Frc consts  --     0.0000                 0.0000                 0.0000
 IR Inten    --     3.0848                 2.3645                 3.2989
 Raman Activ --     0.0000                 0.0000                 0.0000
 Depolar     --     0.0000                 0.0000                 0.0000
 Atom AN      X      Y      Z        X      Y      Z        X      Y      Z
   1   7     0.01  -0.01   0.03     0.00   0.00  -0.00     0.01  -0.00   0.00
   2   6     0.10  -0.04  -0.07     0.00   0.00  -0.00     0.10  -0.02  -0.07
   3   6     0.05   0.01  -0.07     0.01  -0.00   0.00     0.15   0.01  -0.01
   4   6     0.00   0.00   0.22     0.01   0.00   0.02     0.07   0.02   0.36
   5   6    -0.08   0.03   0.04    -0.00   0.00  -0.02    -0.10   0.04  -0.25
   6   6    -0.08   0.02  -0.16    -0.01   0.01   0.00    -0.12   0.11   0.14
   7   6    -0.04   0.07   0.24    -0.01   0.01   0.01    -0.09   0.08   0.06
   8   6    -0.01   0.01   0.11    -0.01  -0.00  -0.01    -0.05  -0.02  -0.25
   9   6     0.10  -0.02  -0.25     0.00   0.00  -0.01     0.09   0.05   0.08
  10   6     0.09   0.01   0.26     0.00   0.02   0.02     0.11   0.04   0.02
  11   6     0.02  -0.08   0.02    -0.01   0.02   0.00     0.01  -0.01  -0.00
  12   6     0.02   0.04   0.25     0.02   0.00  -0.01     0.10   0.02  -0.13
  13   6     0.03  -0.05  -0.50     0.02  -0.00  -0.01     0.06   0.02   0.12
  14   6     0.01  -0.02  -0.06    -0.00   0.02   0.02     0.04   0.02   0.05
  15   6    -0.01   0.00   0.41    -0.01   0.04  -0.03     0.29   0.11  -0.11
  16   7     0.03  -0.07  -0.20    -0.03   0.04   0.01    -0.10  -0.06   0.06
  17   6    -0.02   0.00  -0.02    -0.00  -0.00   0.06    -0.03   0.04   0.01
  18   6    -0.10   0.06   0.03    -0.01  -0.01  -0.46    -0.32   0.29  -0.03
  19   7     0.01  -0.06  -0.02     0.00  -0.01   0.22     0.12  -0.11   0.02
  20   6     0.00   0.01   0.02    -0.01   0.05   0.60    -0.05   0.01  -0.09
  21   6    -0.01  -0.01  -0.01    -0.03  -0.20  -0.23    -0.06   0.03   0.03
  22   6    -0.01  -0.01  -0.01     0.01  -0.17  -0.17    -0.04  -0.03   0.06
  23   6     0.01  -0.01   0.00    -0.03   0.01   0.00     0.01  -0.08   0.06
  24   6     0.00   0.01   0.01     0.10   0.14   0.22    -0.02  -0.01  -0.02
  25   6    -0.00  -0.01  -0.01    -0.04  -0.16  -0.11     0.03   0.01   0.00
  26  16     0.00   0.01  -0.00     0.00   0.18  -0.04     0.04   0.06  -0.07
  27  16    -0.03   0.05   0.07     0.03  -0.05  -0.09    -0.05  -0.20   0.01
  28  16    -0.02   0.01  -0.07    -0.00  -0.03   0.00    -0.01  -0.11   0.07
  29  16    -0.06   0.01  -0.09    -0.01  -0.01  -0.00    -0.11  -0.07  -0.06
  30  17    -0.00   0.00   0.00    -0.00  -0.00   0.00    -0.00   0.00   0.00
  31   1    -0.00  -0.01   0.04     0.00   0.00   0.00     0.00  -0.01   0.02
  32   1     0.00  -0.01   0.03    -0.00   0.00   0.00    -0.00  -0.01   0.02
  33   1    -0.03   0.03  -0.01    -0.00   0.00  -0.00    -0.02   0.02  -0.01
  34   1     0.06  -0.01  -0.03    -0.00   0.00  -0.00     0.04  -0.01  -0.02
  35   1     0.03   0.02  -0.01     0.00  -0.00  -0.00     0.03   0.01  -0.03
  36   1     0.05   0.04  -0.00     0.01  -0.00  -0.00     0.09   0.03   0.00
  37   1     0.01   0.02  -0.07     0.00  -0.00   0.00     0.04   0.02  -0.05
  38   1    -0.04  -0.00   0.00    -0.00  -0.00  -0.01    -0.06  -0.02  -0.16
  39   1    -0.03   0.01  -0.11    -0.00   0.00   0.00    -0.04   0.03   0.06
  40   1     0.04  -0.02  -0.16     0.00  -0.00  -0.00     0.05  -0.00   0.08
  41   1    -0.02   0.01  -0.03    -0.01   0.01  -0.00    -0.01  -0.02  -0.00
  42   1    -0.01  -0.00  -0.03    -0.00   0.01   0.00    -0.02   0.02  -0.01
  43   1     0.03  -0.10  -0.01     0.00   0.00  -0.00    -0.00  -0.04   0.00
  44   1     0.01  -0.01   0.00    -0.03  -0.02   0.07     0.02  -0.03   0.02
  45   1     0.00   0.01   0.00    -0.01   0.01   0.01     0.01  -0.01   0.02
  46   1    -0.00  -0.00  -0.00    -0.00   0.07  -0.02     0.00  -0.04   0.02
  47   1     0.00   0.01   0.01     0.05   0.10   0.14    -0.02   0.01  -0.02
  48   1    -0.00  -0.00  -0.00    -0.02  -0.04  -0.01     0.00  -0.00   0.00
                     46                     47                     48
                        a                      a                      a 
 Frequencies --   535.5041               554.0607               558.8187
 Red. masses --    14.2149                17.8085                16.5587
 Frc consts  --     0.0000                 0.0000                 0.0000
 IR Inten    --     4.4415                 1.9450                 2.3245
 Raman Activ --     0.0000                 0.0000                 0.0000
 Depolar     --     0.0000                 0.0000                 0.0000
 Atom AN      X      Y      Z        X      Y      Z        X      Y      Z
   1   7    -0.01   0.00  -0.01    -0.00   0.00  -0.01    -0.00   0.00   0.01
   2   6    -0.09   0.03   0.07    -0.01   0.00   0.01    -0.01  -0.00   0.00
   3   6    -0.11  -0.01   0.03     0.00   0.00   0.01    -0.03  -0.01  -0.01
   4   6    -0.04  -0.01  -0.33     0.01  -0.01  -0.04    -0.02  -0.00  -0.04
   5   6     0.09  -0.03   0.20     0.00   0.01   0.01     0.02  -0.01   0.07
   6   6     0.11  -0.07  -0.10     0.01   0.02   0.00     0.02  -0.04  -0.09
   7   6     0.06  -0.06  -0.08    -0.02   0.01  -0.04     0.02   0.00   0.17
   8   6     0.00  -0.01   0.22    -0.06  -0.06   0.04     0.04   0.01  -0.06
   9   6    -0.09  -0.04  -0.06     0.07   0.01  -0.00    -0.05  -0.02  -0.07
  10   6    -0.10   0.08  -0.05     0.06   0.28  -0.04    -0.06  -0.09   0.16
  11   6    -0.07   0.18  -0.02    -0.17   0.36  -0.04     0.07  -0.11   0.02
  12   6     0.01   0.03   0.11     0.18   0.14   0.01    -0.08  -0.06  -0.07
  13   6     0.03  -0.02  -0.07     0.12   0.04  -0.01    -0.05  -0.02  -0.08
  14   6     0.02   0.03  -0.05     0.06   0.00  -0.00    -0.03   0.04   0.15
  15   6     0.38   0.25   0.09    -0.25  -0.17   0.02     0.06   0.12  -0.20
  16   7    -0.18  -0.03  -0.05     0.13  -0.01   0.00    -0.10   0.10   0.07
  17   6    -0.02   0.05  -0.02     0.02  -0.03   0.01     0.02   0.03   0.16
  18   6    -0.23   0.27   0.03    -0.20   0.11  -0.02    -0.04   0.19  -0.25
  19   7     0.14  -0.05  -0.01     0.02  -0.11   0.01     0.14   0.07   0.11
  20   6    -0.06   0.02  -0.03     0.06  -0.03   0.03     0.06  -0.04  -0.06
  21   6    -0.08   0.02   0.01     0.11  -0.01  -0.03     0.15  -0.02  -0.08
  22   6    -0.05  -0.06   0.04     0.10   0.11  -0.06     0.17   0.23  -0.05
  23   6     0.01  -0.10   0.08     0.02   0.14  -0.15     0.01   0.24  -0.24
  24   6    -0.01   0.01   0.01     0.02  -0.03  -0.01     0.03  -0.10  -0.05
  25   6     0.03  -0.01  -0.01    -0.04   0.01   0.03    -0.05   0.03   0.08
  26  16     0.04   0.09  -0.09    -0.05  -0.15   0.15    -0.06  -0.27   0.26
  27  16     0.01  -0.29   0.05    -0.19   0.10  -0.02    -0.12  -0.26   0.03
  28  16     0.03  -0.11  -0.03     0.10  -0.47   0.05    -0.02   0.17  -0.01
  29  16     0.10   0.04   0.06     0.02  -0.01   0.01     0.01   0.02  -0.02
  30  17     0.00  -0.00  -0.00     0.00  -0.00  -0.00     0.00   0.00   0.00
  31   1    -0.00   0.01  -0.03    -0.00   0.00  -0.01    -0.00   0.00   0.00
  32   1    -0.00   0.01  -0.02    -0.00   0.00  -0.01     0.00  -0.00   0.00
  33   1     0.02  -0.02   0.01     0.00  -0.00   0.00    -0.00  -0.00   0.00
  34   1    -0.05   0.01   0.03    -0.01   0.00   0.01     0.01  -0.00  -0.00
  35   1    -0.02  -0.01   0.02    -0.00  -0.01  -0.00    -0.00   0.00   0.01
  36   1    -0.07  -0.03  -0.00    -0.00  -0.01   0.00    -0.01  -0.00  -0.00
  37   1    -0.03  -0.02   0.05     0.00  -0.00   0.01    -0.01  -0.00  -0.00
  38   1     0.05   0.02   0.14    -0.00   0.00   0.01     0.01   0.00   0.03
  39   1     0.04  -0.03  -0.04     0.01   0.00   0.01     0.00  -0.01  -0.07
  40   1    -0.02  -0.02  -0.05     0.08  -0.05   0.00    -0.04   0.01  -0.04
  41   1    -0.02   0.05  -0.00    -0.06   0.06  -0.01     0.01   0.03  -0.02
  42   1    -0.01   0.04   0.01    -0.09   0.15  -0.02     0.04  -0.06  -0.02
  43   1    -0.02   0.08  -0.00    -0.06   0.07  -0.01     0.04  -0.06  -0.01
  44   1     0.01  -0.03   0.03     0.00   0.05  -0.06    -0.01   0.09  -0.12
  45   1     0.01  -0.01   0.02    -0.01   0.03  -0.01    -0.02   0.02  -0.03
  46   1     0.00  -0.04   0.03    -0.02   0.04  -0.06    -0.02   0.06  -0.09
  47   1    -0.01   0.03  -0.01     0.02  -0.05   0.01     0.03  -0.11  -0.00
  48   1     0.00  -0.00   0.00    -0.00   0.00  -0.00     0.00   0.00  -0.01
                     49                     50                     51
                        a                      a                      a 
 Frequencies --   562.7855               570.0569               584.9332
 Red. masses --    13.2950                11.7092                11.0411
 Frc consts  --     0.0000                 0.0000                 0.0000
 IR Inten    --     4.5316                 3.3016                 0.6383
 Raman Activ --     0.0000                 0.0000                 0.0000
 Depolar     --     0.0000                 0.0000                 0.0000
 Atom AN      X      Y      Z        X      Y      Z        X      Y      Z
   1   7     0.00  -0.00  -0.01     0.00   0.00  -0.01     0.00   0.00   0.00
   2   6     0.02   0.00  -0.01     0.01   0.01  -0.00     0.01  -0.00  -0.01
   3   6     0.07   0.01   0.02     0.07   0.01   0.03    -0.01  -0.00  -0.01
   4   6     0.04   0.01   0.09     0.04   0.01   0.06    -0.01  -0.00   0.04
   5   6    -0.03   0.02  -0.15    -0.03   0.02  -0.13     0.00  -0.01  -0.02
   6   6    -0.04   0.06   0.19    -0.04   0.06   0.17     0.00  -0.01   0.03
   7   6    -0.02  -0.02  -0.40    -0.03  -0.03  -0.48     0.01  -0.02  -0.10
   8   6    -0.02   0.06   0.20    -0.04   0.06   0.44    -0.00   0.01   0.18
   9   6    -0.00   0.03   0.08     0.04   0.01  -0.15     0.01  -0.03  -0.16
  10   6     0.02  -0.12  -0.25     0.03   0.00   0.08    -0.01   0.04   0.28
  11   6     0.08  -0.13   0.00     0.01  -0.03   0.02    -0.01   0.03   0.01
  12   6    -0.05  -0.02   0.17     0.02   0.01   0.08     0.01  -0.01  -0.24
  13   6    -0.03   0.00   0.06     0.02  -0.02  -0.21    -0.01   0.01   0.04
  14   6     0.00  -0.01  -0.23    -0.01   0.02   0.19    -0.01   0.01   0.13
  15   6    -0.01   0.09   0.26     0.01  -0.04  -0.20     0.03  -0.02  -0.11
  16   7    -0.04   0.05  -0.13     0.01  -0.01   0.09     0.00  -0.02   0.05
  17   6     0.04  -0.01  -0.16    -0.03   0.01   0.22    -0.01   0.01  -0.01
  18   6    -0.05   0.14   0.20     0.01  -0.05  -0.25     0.04  -0.02   0.00
  19   7     0.09   0.03  -0.09    -0.03  -0.01   0.11    -0.00   0.02  -0.01
  20   6     0.04  -0.00   0.15    -0.02  -0.01  -0.13     0.01   0.00  -0.19
  21   6     0.12   0.03  -0.01    -0.06  -0.07  -0.06     0.12   0.33   0.34
  22   6     0.08   0.00  -0.18    -0.00   0.11   0.18    -0.09  -0.33  -0.36
  23   6     0.01   0.16  -0.17    -0.01  -0.06   0.07    -0.01   0.02  -0.04
  24   6     0.05   0.02   0.07    -0.04  -0.07  -0.10     0.07   0.18   0.17
  25   6    -0.05  -0.05  -0.00     0.03   0.07   0.04    -0.03  -0.10  -0.13
  26  16    -0.04  -0.14   0.15     0.02   0.04  -0.04    -0.02  -0.06   0.04
  27  16    -0.11  -0.16  -0.00     0.05   0.07   0.02    -0.08  -0.03   0.01
  28  16    -0.03   0.11  -0.05    -0.01  -0.02  -0.07     0.02  -0.02  -0.00
  29  16    -0.05  -0.04   0.05    -0.04  -0.04   0.07     0.00   0.02   0.00
  30  17    -0.00  -0.00  -0.00    -0.00  -0.00   0.00    -0.00   0.00   0.00
  31   1     0.00  -0.00  -0.00     0.00  -0.00  -0.00     0.00   0.00   0.01
  32   1    -0.00  -0.00  -0.00    -0.00   0.00  -0.00     0.00  -0.00   0.00
  33   1    -0.00   0.00  -0.00     0.00   0.00  -0.00    -0.00   0.00  -0.00
  34   1    -0.01   0.00   0.00    -0.01   0.00   0.01     0.01  -0.00  -0.01
  35   1     0.01  -0.01  -0.02     0.00  -0.01  -0.02     0.00   0.01   0.01
  36   1     0.03   0.00   0.00     0.02  -0.00   0.00     0.00   0.00  -0.00
  37   1     0.02   0.00   0.00     0.02   0.00   0.01    -0.00   0.00  -0.01
  38   1    -0.02  -0.01  -0.07    -0.02  -0.00  -0.04     0.00  -0.00  -0.01
  39   1    -0.01   0.03   0.15    -0.01   0.03   0.16    -0.00   0.00   0.03
  40   1    -0.02   0.02   0.03     0.02  -0.01  -0.15     0.01  -0.02  -0.12
  41   1     0.04  -0.10   0.04    -0.00  -0.00  -0.00    -0.02   0.08  -0.03
  42   1     0.03  -0.05   0.05    -0.00  -0.00  -0.00    -0.00   0.01  -0.04
  43   1     0.00   0.04   0.02     0.01  -0.03  -0.00     0.02  -0.07  -0.02
  44   1    -0.00   0.03  -0.02     0.00   0.01  -0.04    -0.01  -0.06   0.15
  45   1    -0.01   0.05  -0.02     0.00  -0.05   0.01     0.01   0.09  -0.02
  46   1    -0.01   0.08  -0.08     0.00  -0.06   0.04     0.02   0.11  -0.03
  47   1     0.04  -0.01   0.07    -0.03  -0.04  -0.08     0.04   0.12   0.13
  48   1    -0.00   0.00   0.01     0.00  -0.01  -0.01     0.01   0.03   0.03
                     52                     53                     54
                        a                      a                      a 
 Frequencies --   589.1433               593.7765               646.0390
 Red. masses --    13.5650                11.3458                12.0883
 Frc consts  --     0.0000                 0.0000                 0.0000
 IR Inten    --    13.2994                 1.1567                 0.1257
 Raman Activ --     0.0000                 0.0000                 0.0000
 Depolar     --     0.0000                 0.0000                 0.0000
 Atom AN      X      Y      Z        X      Y      Z        X      Y      Z
   1   7     0.03  -0.02   0.07    -0.00   0.00  -0.00     0.00   0.00   0.00
   2   6     0.07  -0.06  -0.07    -0.00   0.00   0.00     0.00   0.00   0.00
   3   6    -0.28  -0.07  -0.21     0.02   0.00   0.01     0.00   0.00   0.00
[...]
  19   7     0.00   0.00  -0.00    -0.00   0.00   0.00     0.00   0.00   0.00
  20   6     0.00   0.00  -0.00     0.00   0.00  -0.00     0.00   0.00   0.00
  21   6     0.00  -0.00  -0.00     0.00  -0.00  -0.00    -0.00   0.00  -0.00
  22   6    -0.00  -0.00   0.00    -0.00  -0.00   0.00     0.00   0.00  -0.00
  23   6     0.00   0.00  -0.00     0.00   0.00   0.00    -0.00   0.00   0.00
  24   6     0.00   0.00   0.00     0.00   0.00  -0.00    -0.00  -0.00  -0.00
  25   6     0.00   0.00  -0.00    -0.00   0.00  -0.00    -0.00   0.00  -0.00
  26  16     0.00   0.00  -0.00    -0.00   0.00   0.00    -0.00   0.00   0.00
  27  16     0.00  -0.00  -0.00    -0.00   0.00   0.00    -0.00   0.00   0.00
  28  16     0.00  -0.00   0.00    -0.00  -0.00  -0.00     0.00  -0.00  -0.00
  29  16     0.00  -0.00   0.00    -0.00   0.00  -0.00     0.00  -0.00   0.00
  30  17    -0.00   0.00  -0.00    -0.00   0.00   0.00     0.00  -0.00  -0.00
  31   1    -0.01  -0.00  -0.00     0.06   0.00   0.01    -0.00  -0.00  -0.00
  32   1     0.00   0.05   0.01     0.03   0.38   0.14    -0.00  -0.01  -0.00
  33   1     0.00   0.00  -0.00    -0.01  -0.01   0.01     0.00  -0.00  -0.00
  34   1    -0.07  -0.25  -0.08     0.13   0.58   0.18    -0.00  -0.00  -0.00
  35   1     0.54   0.08   0.03    -0.37  -0.07  -0.03     0.00   0.00   0.00
  36   1     0.14  -0.29   0.26     0.03  -0.07   0.05    -0.00   0.00  -0.00
  37   1     0.16   0.58   0.21     0.13   0.44   0.16     0.00   0.00   0.00
  38   1    -0.00   0.00  -0.00     0.00  -0.00   0.00    -0.00   0.00  -0.00
  39   1    -0.00  -0.00   0.00    -0.00  -0.00   0.00     0.00   0.00  -0.00
  40   1     0.00   0.00  -0.00    -0.00  -0.00   0.00     0.00   0.00  -0.00
  41   1     0.00  -0.00  -0.00    -0.00   0.00   0.00    -0.42   0.14   0.49
  42   1     0.00   0.00   0.00     0.00   0.00  -0.00     0.01   0.00  -0.04
  43   1    -0.00   0.00  -0.00     0.00  -0.00   0.00     0.38  -0.04   0.57
  44   1    -0.00  -0.00  -0.00    -0.00  -0.00  -0.00    -0.00  -0.00  -0.00
  45   1    -0.00   0.00  -0.00    -0.00   0.00  -0.00    -0.00   0.00  -0.00
  46   1    -0.00   0.00   0.00    -0.00   0.00   0.00     0.00  -0.00  -0.00
  47   1    -0.00   0.00   0.00    -0.00   0.00   0.00     0.00   0.00  -0.00
  48   1     0.00  -0.00   0.00     0.00  -0.00   0.00     0.00   0.00   0.00
                    127                    128                    129
                        a                      a                      a 
 Frequencies --  2996.1183              2997.8265              3001.5455
 Red. masses --     1.9216                 1.7401                 1.9370
 Frc consts  --     0.0000                 0.0000                 0.0000
 IR Inten    --     7.1453                19.5396                23.1978
 Raman Activ --     0.0000                 0.0000                 0.0000
 Depolar     --     0.0000                 0.0000                 0.0000
 Atom AN      X      Y      Z        X      Y      Z        X      Y      Z
   1   7     0.00   0.00   0.00     0.00   0.00   0.00     0.00   0.00   0.00
   2   6     0.00   0.00  -0.00     0.00  -0.00  -0.00     0.00   0.00   0.00
   3   6    -0.00  -0.00   0.00    -0.00  -0.00  -0.00    -0.00  -0.00  -0.00
   4   6    -0.00  -0.00  -0.00    -0.00  -0.00   0.00    -0.00   0.00   0.00
   5   6    -0.00   0.00  -0.00    -0.00   0.00  -0.00    -0.00   0.00   0.00
   6   6     0.00   0.00  -0.00    -0.00   0.00  -0.00    -0.00  -0.00   0.00
   7   6     0.00  -0.00  -0.00     0.00  -0.00   0.00    -0.00   0.00  -0.00
   8   6    -0.00  -0.00   0.00     0.00   0.00  -0.00    -0.00  -0.00   0.00
   9   6    -0.00  -0.00   0.00     0.00   0.00   0.00    -0.00  -0.00   0.00
  10   6    -0.00   0.00   0.00    -0.01   0.01  -0.00     0.00  -0.00   0.00
  11   6    -0.00   0.00   0.00    -0.26  -0.03  -0.01     0.01   0.00   0.00
  12   6    -0.00  -0.00   0.00    -0.00  -0.00   0.00    -0.00   0.00  -0.00
  13   6     0.00   0.00  -0.00     0.00   0.00  -0.00    -0.00  -0.00  -0.00
  14   6    -0.00  -0.00  -0.00    -0.00  -0.00  -0.00     0.00   0.00   0.00
  15   6    -0.00   0.00  -0.00    -0.00   0.00  -0.00     0.00  -0.00   0.00
  16   7    -0.00  -0.00   0.00     0.00  -0.00   0.00    -0.00   0.00  -0.00
  17   6     0.00   0.00  -0.00    -0.00  -0.00   0.00    -0.00  -0.00   0.00
  18   6    -0.00  -0.00   0.00     0.00   0.00  -0.00     0.00   0.00  -0.00
  19   7     0.00   0.00   0.00    -0.00  -0.00   0.00    -0.00  -0.00   0.00
  20   6     0.00  -0.00   0.00     0.00   0.00  -0.00     0.00  -0.00   0.00
  21   6    -0.00   0.00   0.00    -0.00  -0.00   0.00     0.00   0.00   0.00
  22   6     0.00   0.01  -0.00    -0.00   0.00  -0.00    -0.01   0.00   0.00
  23   6     0.05   0.22   0.18    -0.01  -0.00  -0.00    -0.29   0.05   0.01
  24   6     0.00  -0.00   0.00    -0.00  -0.00   0.00     0.01   0.00  -0.00
  25   6     0.00   0.00  -0.00    -0.00   0.00  -0.00    -0.00  -0.00   0.00
  26  16    -0.00  -0.00  -0.00     0.00  -0.00   0.00    -0.00   0.00  -0.00
  27  16    -0.00  -0.00   0.00     0.00   0.00   0.00     0.00   0.00  -0.00
  28  16     0.00   0.00  -0.00    -0.00   0.00  -0.00     0.00  -0.00   0.00
  29  16     0.00   0.00   0.00     0.00   0.00   0.00     0.00   0.00   0.00
  30  17     0.00  -0.00  -0.00    -0.00  -0.00  -0.00    -0.00  -0.00  -0.00
  31   1    -0.00  -0.00   0.00    -0.00  -0.00  -0.00    -0.00  -0.00  -0.00
  32   1    -0.00  -0.00  -0.00     0.00  -0.00  -0.00    -0.00  -0.00  -0.00
  33   1     0.00  -0.00  -0.00    -0.00   0.00   0.00     0.00  -0.00   0.00
  34   1     0.00  -0.00   0.00     0.00   0.00   0.00    -0.00  -0.00   0.00
  35   1    -0.00  -0.00   0.00    -0.00  -0.00  -0.00    -0.00  -0.00   0.00
  36   1    -0.00   0.00  -0.00    -0.00   0.00  -0.00     0.00  -0.00   0.00
  37   1     0.00   0.00   0.00     0.00   0.00   0.00     0.00   0.00   0.00
  38   1     0.00  -0.00   0.00     0.00  -0.00   0.00     0.00  -0.00   0.00
  39   1    -0.00  -0.00   0.00    -0.00  -0.00   0.00     0.00   0.00   0.00
  40   1     0.00   0.00  -0.00    -0.00  -0.01   0.00     0.00   0.00  -0.00
  41   1     0.01  -0.00  -0.01     0.37  -0.14  -0.51    -0.02   0.01   0.02
  42   1     0.00   0.00   0.00     0.24   0.26  -0.01    -0.01  -0.01   0.00
  43   1     0.00  -0.00   0.00     0.30  -0.04   0.55    -0.01   0.00  -0.03
  44   1    -0.21  -0.76  -0.32     0.00   0.01   0.00    -0.03   0.04   0.02
  45   1    -0.22   0.05  -0.09     0.03  -0.00   0.02     0.65  -0.06   0.36
  46   1     0.27  -0.07  -0.23     0.02  -0.01  -0.02     0.39  -0.16  -0.42
  47   1    -0.00   0.00   0.00     0.00   0.00  -0.00    -0.02  -0.00   0.01
  48   1    -0.00   0.00  -0.00     0.00  -0.00   0.00     0.00  -0.00   0.00
                    130                    131                    132
                        a                      a                      a 
 Frequencies --  3013.1314              3016.3613              3082.6318
 Red. masses --     1.2723                 1.4570                 1.8177
 Frc consts  --     0.0000                 0.0000                 0.0000
 IR Inten    --    15.5470                21.8293                29.0660
 Raman Activ --     0.0000                 0.0000                 0.0000
 Depolar     --     0.0000                 0.0000                 0.0000
 Atom AN      X      Y      Z        X      Y      Z        X      Y      Z
   1   7     0.00  -0.00   0.00     0.00  -0.00  -0.00    -0.00  -0.00   0.00
   2   6    -0.00  -0.00  -0.00     0.00  -0.00  -0.00     0.00   0.00   0.00
   3   6     0.00   0.00   0.00    -0.00  -0.00  -0.00    -0.00   0.00  -0.00
   4   6     0.00  -0.00   0.00     0.00  -0.00   0.00    -0.01  -0.00  -0.00
   5   6     0.00  -0.00   0.00    -0.00  -0.00   0.00    -0.10   0.22  -0.03
   6   6     0.00   0.00  -0.00    -0.00  -0.00   0.00    -0.07  -0.09   0.01
   7   6     0.00  -0.00   0.00     0.00  -0.00   0.00    -0.00   0.00  -0.00
   8   6    -0.00   0.00  -0.00    -0.00   0.00  -0.00    -0.00   0.00  -0.00
   9   6     0.00   0.00   0.00    -0.00  -0.01   0.00     0.00   0.00  -0.00
  10   6    -0.00  -0.00  -0.00     0.00   0.01  -0.00    -0.00   0.00  -0.00
  11   6    -0.00  -0.00  -0.00     0.09   0.18  -0.01     0.00  -0.00  -0.00
  12   6     0.00   0.00   0.00    -0.00  -0.00   0.00    -0.00   0.00  -0.00
  13   6    -0.00  -0.00  -0.00     0.00   0.00   0.00     0.00   0.00  -0.00
  14   6    -0.00   0.00  -0.00    -0.00  -0.00  -0.00     0.00  -0.00  -0.00
  15   6     0.00   0.00  -0.00     0.00  -0.00   0.00     0.00   0.00  -0.00
  16   7    -0.00  -0.00   0.00    -0.00   0.00  -0.00    -0.00  -0.00   0.00
  17   6     0.00   0.00  -0.00     0.00  -0.00   0.00    -0.00  -0.00  -0.00
  18   6    -0.00  -0.00   0.00    -0.00  -0.00   0.00     0.00   0.00  -0.00
  19   7     0.00   0.00   0.00     0.00   0.00  -0.00    -0.00  -0.00   0.00
  20   6     0.00  -0.00   0.00    -0.00  -0.00  -0.00    -0.00  -0.00   0.00
  21   6    -0.00  -0.00   0.00     0.00  -0.00   0.00     0.00   0.00  -0.00
  22   6     0.00   0.01  -0.01     0.00   0.00  -0.00     0.00  -0.00   0.00
  23   6     0.02   0.07  -0.14     0.00   0.00  -0.00    -0.00  -0.00   0.00
  24   6    -0.00  -0.00   0.00    -0.00  -0.00   0.00    -0.01  -0.00   0.01
  25   6     0.00  -0.00  -0.00    -0.00   0.00  -0.00     0.00  -0.00   0.00
  26  16    -0.00   0.00  -0.00     0.00   0.00  -0.00     0.00  -0.00  -0.00
  27  16    -0.00  -0.00   0.00     0.00   0.00   0.00     0.00  -0.00   0.00
  28  16    -0.00   0.00  -0.00     0.00   0.00   0.00     0.00   0.00  -0.00
  29  16    -0.00  -0.00  -0.00     0.00   0.00  -0.00     0.00  -0.00   0.00
  30  17     0.00   0.00   0.00    -0.00  -0.00   0.00     0.00  -0.00   0.00
  31   1    -0.00   0.00  -0.00     0.00   0.00  -0.00     0.00   0.00   0.00
  32   1     0.00   0.00   0.00     0.00   0.00   0.00    -0.00   0.00   0.00
  33   1     0.00   0.00  -0.00    -0.00   0.00   0.00     0.00  -0.00  -0.00
  34   1     0.00   0.00   0.00     0.00   0.00   0.00    -0.00  -0.01  -0.00
  35   1     0.00   0.00  -0.00    -0.00  -0.00   0.00    -0.00  -0.00   0.00
  36   1    -0.00   0.00  -0.00     0.00  -0.00   0.00     0.01  -0.01   0.01
  37   1    -0.00  -0.00  -0.00     0.00   0.00   0.00    -0.00  -0.00  -0.00
  38   1    -0.00   0.00  -0.00     0.00  -0.00   0.00     0.36  -0.78   0.10
  39   1    -0.00  -0.00  -0.00     0.00   0.00  -0.00     0.28   0.31  -0.03
  40   1    -0.00  -0.00   0.00     0.01   0.02  -0.00    -0.00  -0.00   0.00
  41   1    -0.00   0.00   0.00     0.18  -0.03  -0.21    -0.00   0.00   0.00
  42   1     0.01   0.01  -0.00    -0.66  -0.61   0.03     0.00   0.00  -0.00
  43   1    -0.00  -0.00  -0.00     0.16   0.01   0.23    -0.00   0.00  -0.00
  44   1    -0.11  -0.40  -0.20    -0.00  -0.00  -0.00     0.00   0.00   0.00
  45   1     0.51  -0.04   0.24     0.01  -0.00   0.00     0.00  -0.00   0.00
  46   1    -0.47   0.18   0.44    -0.01   0.00   0.01     0.00  -0.00  -0.00
  47   1     0.01   0.00  -0.01     0.00   0.00  -0.00     0.04   0.01  -0.02
  48   1    -0.00   0.00  -0.00     0.00  -0.00   0.00    -0.00   0.00  -0.00
                    133                    134                    135
                        a                      a                      a 
 Frequencies --  3083.6577              3094.7037              3101.2690
 Red. masses --     1.8439                 1.8932                 1.8555
 Frc consts  --     0.0000                 0.0000                 0.0000
 IR Inten    --    16.7901                12.3252                 7.8622
 Raman Activ --     0.0000                 0.0000                 0.0000
 Depolar     --     0.0000                 0.0000                 0.0000
 Atom AN      X      Y      Z        X      Y      Z        X      Y      Z
   1   7    -0.00   0.00   0.00    -0.00   0.00   0.00    -0.00   0.00  -0.00
   2   6     0.00   0.00   0.00     0.00   0.00   0.00    -0.00   0.00   0.00
   3   6     0.00   0.00  -0.00     0.00   0.00  -0.00     0.00   0.00  -0.00
   4   6    -0.00  -0.00  -0.00    -0.01  -0.00   0.00    -0.00  -0.00   0.00
   5   6    -0.00   0.01  -0.00    -0.05   0.11  -0.01    -0.00   0.01  -0.00
   6   6    -0.00  -0.00   0.00     0.17   0.19  -0.02     0.02   0.02  -0.00
   7   6    -0.00  -0.00   0.00     0.01  -0.00   0.00     0.00  -0.00   0.00
   8   6     0.00   0.00  -0.00    -0.00   0.00  -0.00     0.01  -0.00   0.00
   9   6     0.00   0.00  -0.00    -0.02  -0.02   0.00     0.18   0.21  -0.01
  10   6    -0.00  -0.00  -0.00     0.00  -0.00   0.00    -0.00   0.01  -0.00
  11   6    -0.00  -0.00  -0.00    -0.00  -0.00  -0.00     0.00   0.00  -0.00
  12   6     0.00   0.00   0.00    -0.00  -0.00   0.00    -0.00  -0.00   0.00
  13   6    -0.00  -0.00  -0.00     0.00  -0.00   0.00     0.00   0.00   0.00
  14   6     0.00  -0.00   0.00    -0.00  -0.00  -0.00    -0.00  -0.00   0.00
  15   6    -0.00   0.00  -0.00    -0.00  -0.00  -0.00     0.00  -0.00  -0.00
  16   7     0.00  -0.00   0.00     0.00   0.00   0.00     0.00   0.00   0.00
  17   6    -0.00   0.00  -0.00    -0.00   0.00  -0.00     0.00   0.00  -0.00
  18   6     0.00   0.00  -0.00    -0.00  -0.00  -0.00    -0.00  -0.00  -0.00
  19   7    -0.00  -0.00   0.00     0.00   0.00   0.00     0.00   0.00   0.00
  20   6     0.00   0.00  -0.00    -0.00  -0.00   0.00    -0.00  -0.00  -0.00
  21   6    -0.00  -0.00   0.00    -0.00  -0.00   0.00     0.00  -0.00  -0.00
  22   6     0.00   0.01  -0.01    -0.00   0.00  -0.00    -0.00  -0.00   0.00
  23   6     0.01   0.00  -0.00    -0.00  -0.00   0.00    -0.00   0.00   0.00
  24   6     0.25   0.04  -0.11    -0.00  -0.00  -0.00    -0.00  -0.00   0.00
  25   6    -0.02   0.01  -0.01     0.00  -0.00   0.00     0.00  -0.00   0.00
  26  16    -0.00   0.00   0.00     0.00   0.00   0.00    -0.00   0.00  -0.00
  27  16    -0.00  -0.00   0.00     0.00   0.00   0.00    -0.00   0.00   0.00
  28  16     0.00   0.00  -0.00    -0.00   0.00  -0.00    -0.00  -0.00   0.00
  29  16     0.00  -0.00   0.00    -0.00  -0.00   0.00    -0.00  -0.00  -0.00
  30  17     0.00   0.00  -0.00     0.00   0.00  -0.00     0.00   0.00  -0.00
  31   1     0.00   0.00   0.00     0.00   0.00   0.00     0.00   0.00   0.00
  32   1    -0.00  -0.00  -0.00    -0.00  -0.00   0.00    -0.00  -0.00  -0.00
  33   1     0.00  -0.00  -0.00     0.00  -0.00  -0.00    -0.00   0.00   0.00
  34   1    -0.00  -0.00  -0.00    -0.00  -0.00  -0.00    -0.00  -0.00  -0.00
  35   1     0.00  -0.00   0.00     0.00  -0.00   0.00     0.00   0.00   0.00
  36   1     0.00  -0.00   0.00     0.00  -0.00   0.00     0.00  -0.00   0.00
  37   1    -0.00  -0.00  -0.00    -0.00  -0.00  -0.00    -0.00  -0.00  -0.00
  38   1     0.02  -0.04   0.00     0.18  -0.37   0.05     0.02  -0.03   0.00
  39   1     0.01   0.02  -0.00    -0.57  -0.64   0.06    -0.06  -0.07   0.01
  40   1    -0.00  -0.00   0.00     0.06   0.07  -0.00    -0.63  -0.72   0.05
  41   1     0.00  -0.00  -0.00    -0.00  -0.00   0.00     0.00  -0.00  -0.00
  42   1     0.00   0.00  -0.00     0.00   0.00  -0.00    -0.01  -0.02   0.00
  43   1     0.00  -0.00   0.00     0.00  -0.00   0.00     0.00   0.00   0.00
  44   1    -0.00  -0.01  -0.00     0.00   0.00   0.00    -0.00  -0.00  -0.00
  45   1    -0.00   0.00  -0.00    -0.00  -0.00  -0.00     0.00  -0.00   0.00
  46   1    -0.02   0.01   0.02     0.00  -0.00  -0.00     0.00  -0.00  -0.00
  47   1    -0.86  -0.15   0.38     0.00  -0.00  -0.00     0.00   0.00  -0.00
  48   1     0.08  -0.07   0.05    -0.00   0.00  -0.00    -0.00   0.00  -0.00
                    136                    137                    138
                        a                      a                      a 
 Frequencies --  3137.0944              3160.0766              3191.8905
 Red. masses --     1.8895                 1.8031                 1.7039
 Frc consts  --     0.0000                 0.0000                 0.0000
 IR Inten    --     3.9427                63.5231                29.3061
 Raman Activ --     0.0000                 0.0000                 0.0000
 Depolar     --     0.0000                 0.0000                 0.0000
 Atom AN      X      Y      Z        X      Y      Z        X      Y      Z
   1   7     0.00   0.00   0.00    -0.25  -0.03   0.00     0.09  -0.01  -0.21
   2   6     0.00   0.00   0.00    -0.01   0.00  -0.00     0.00   0.00  -0.00
   3   6    -0.00   0.00  -0.00    -0.00   0.00   0.00    -0.00   0.00  -0.00
   4   6    -0.00  -0.00   0.00     0.00  -0.00  -0.00    -0.00  -0.00   0.00
   5   6     0.00  -0.00   0.00     0.00  -0.00   0.00    -0.00   0.00  -0.00
   6   6     0.00   0.00  -0.00    -0.00  -0.00   0.00     0.00   0.00  -0.00
   7   6     0.00  -0.00   0.00    -0.00  -0.00  -0.00    -0.00  -0.00   0.00
   8   6    -0.00   0.00  -0.00    -0.00  -0.00   0.00     0.00  -0.00   0.00
   9   6     0.00   0.00  -0.00     0.00  -0.00  -0.00    -0.00  -0.00   0.00
  10   6     0.00  -0.00  -0.00    -0.00   0.00   0.00     0.00  -0.00   0.00
  11   6     0.00  -0.00   0.00    -0.00   0.00   0.00    -0.00  -0.00   0.00
  12   6    -0.00   0.00  -0.00     0.00  -0.00  -0.00    -0.00   0.00  -0.00
  13   6     0.00  -0.00  -0.00    -0.00   0.00  -0.00     0.00   0.00   0.00
  14   6     0.00   0.00   0.00    -0.00   0.00  -0.00     0.00  -0.00  -0.00
  15   6     0.00   0.00  -0.00     0.00  -0.00   0.00    -0.00   0.00  -0.00
  16   7    -0.00  -0.00   0.00     0.00   0.00   0.00     0.00  -0.00   0.00
  17   6    -0.00  -0.00  -0.00     0.00   0.00   0.00    -0.00  -0.00  -0.00
  18   6     0.00   0.00   0.00    -0.00  -0.00  -0.00     0.00   0.00  -0.00
  19   7    -0.00  -0.00   0.00     0.00   0.00   0.00    -0.00  -0.00   0.00
  20   6    -0.00   0.00  -0.00     0.00   0.00  -0.00     0.00  -0.00  -0.00
  21   6     0.00  -0.00   0.00     0.00  -0.00   0.00    -0.00  -0.00   0.00
  22   6     0.00  -0.00   0.00    -0.00  -0.00   0.00     0.00   0.00  -0.00
  23   6    -0.00   0.00  -0.00    -0.00  -0.00  -0.00     0.00   0.00   0.00
  24   6    -0.04  -0.01   0.02     0.00  -0.00   0.00     0.00   0.00  -0.00
  25   6    -0.18   0.18  -0.12    -0.00   0.00  -0.00    -0.00   0.00  -0.00
  26  16     0.00   0.00  -0.00    -0.00   0.00   0.00     0.00  -0.00   0.00
  27  16     0.00   0.00   0.00    -0.00   0.00   0.00    -0.00   0.00   0.00
  28  16     0.00  -0.00   0.00    -0.00  -0.00  -0.00    -0.00   0.00  -0.00
  29  16     0.00   0.00   0.00     0.00   0.00  -0.00    -0.00   0.00  -0.00
  30  17     0.00  -0.00   0.00     0.00  -0.00  -0.00    -0.00   0.00   0.00
  31   1    -0.00  -0.00  -0.00     0.93   0.20   0.15     0.12   0.02  -0.01
  32   1    -0.00  -0.00   0.00    -0.03  -0.09  -0.03     0.01  -0.04  -0.03
  33   1     0.00  -0.00  -0.00     0.03  -0.01  -0.10    -0.47   0.04   0.84
  34   1    -0.00  -0.00   0.00    -0.00  -0.01  -0.00    -0.00  -0.01  -0.00
  35   1    -0.00  -0.00   0.00     0.03   0.00   0.00     0.00   0.00   0.00
  36   1     0.00  -0.00   0.00     0.00  -0.00   0.00     0.00  -0.00   0.00
  37   1    -0.00  -0.00   0.00    -0.00  -0.00  -0.00     0.00   0.00   0.00
  38   1    -0.00   0.00   0.00    -0.00   0.01  -0.00     0.00  -0.00   0.00
  39   1    -0.00  -0.00   0.00     0.00   0.00   0.00    -0.00  -0.00   0.00
  40   1    -0.00  -0.00   0.00     0.00   0.00  -0.00     0.00   0.00  -0.00
  41   1    -0.00   0.00   0.00     0.00  -0.00  -0.00    -0.00   0.00   0.00
  42   1     0.00   0.00  -0.00    -0.00  -0.00   0.00     0.00   0.00  -0.00
  43   1    -0.00   0.00  -0.00     0.00  -0.00   0.00    -0.00   0.00  -0.00
  44   1    -0.00  -0.00  -0.00    -0.00   0.00   0.00    -0.00  -0.00  -0.00
  45   1     0.00   0.00   0.00     0.00  -0.00   0.00    -0.00   0.00  -0.00
  46   1    -0.00   0.00   0.00    -0.00   0.00   0.00    -0.00   0.00   0.00
  47   1     0.10   0.02  -0.04    -0.00  -0.00   0.00    -0.00  -0.00   0.00
  48   1     0.64  -0.59   0.40     0.00  -0.00   0.00     0.00  -0.00   0.00
