18
 energy: -22.194150442089 gnorm: 0.000301291507 xtb: 6.5.1 (fef0646)
N            1.17387679872691        0.10615295878627       -0.33795114434600
C            2.65054809172163        0.13449182622462       -0.32028520059657
C            3.13965451595818        1.20976175281494        0.64119752252870
C            4.66176217450130        1.20313315409482        0.76937515120011
C            5.14721271791801        2.31090957571050        1.69672370793974
Cl           0.10669969557552       -0.49531529950021        2.46586374551284
H            0.81686021868936       -0.61081772288438       -0.97285966783309
H            0.79742177783737        1.01987603369022       -0.60191738364675
H            0.80996681573642       -0.10914294101210        0.62528307755591
H            3.02369224991411        0.32961579564798       -1.32655523344247
H            3.01166971574591       -0.83830311548127        0.01267367870567
H            2.68962101949057        1.03322079900006        1.62014202864792
H            2.81894257559252        2.19376759353243        0.29606499631430
H            5.11220003285865        1.33600377521858       -0.21605123298793
H            4.98892615759218        0.23809956116265        1.16039229705715
H            4.86467308906871        3.28709425591766        1.30952044754344
H            6.22927129411071        2.28189519455567        1.79729092930543
H            4.70841105896191        2.19719680252153        2.68582228054163
