 Entering Gaussian System
 *********************************************
 Gaussian 98:
 frequency output generated by the xtb code
 *********************************************
                         Standard orientation:
 --------------------------------------------------------------------
  Center     Atomic     Atomic              Coordinates (Angstroms)
  Number     Number      Type              X           Y           Z
 --------------------------------------------------------------------
    1          7             0       -3.476035    0.105356   -1.539318
    2          6             0       -3.262067    1.558975   -1.301031
    3          6             0       -2.539441    1.817913    0.018426
    4          6             0       -1.268274    1.053397    0.131743
    5          6             0       -1.139599   -0.169193    0.709514
    6          6             0        0.182169   -0.687990    0.663061
    7          6             0        1.074811    0.139964    0.044506
    8          6             0        2.480849   -0.134083   -0.145648
    9          6             0        3.374661    0.694291   -0.763543
   10          6             0        4.697129    0.173534   -0.812227
   11          6             0        4.813294   -1.045226   -0.235155
   12         16             0        3.294663   -1.582907    0.383361
   13         16             0        0.262397    1.586728   -0.487274
   14         17             0       -4.404812   -1.370714    1.490798
   15          1             0       -3.914045   -0.339921   -0.711146
   16          1             0       -2.575718   -0.374830   -1.692041
   17          1             0       -4.074639   -0.079213   -2.361206
   18          1             0       -4.225384    2.084350   -1.317359
   19          1             0       -2.680387    1.977310   -2.131524
   20          1             0       -3.191509    1.545228    0.856649
   21          1             0       -2.328155    2.887083    0.141373
   22          1             0       -1.974440   -0.698448    1.144618
   23          1             0        0.462505   -1.646221    1.073081
   24          1             0        3.094275    1.652692   -1.173374
   25          1             0        5.524390    0.701569   -1.265261
   26          1             0        5.720592   -1.616370   -0.162107
 --------------------------------------------------------------------
     1 basis functions        1 primitive gaussians
     1 alpha electrons        1 beta electrons

 Harmonic frequencies (cm**-1), IR intensities (km*mol⁻¹),
 Raman scattering activities (A**4/amu), Raman depolarization ratios,
 reduced masses (AMU), force constants (mDyne/A) and normal coordinates:
                      1                      2                      3
                        a                      a                      a 
 Frequencies --  -142.9919               -32.0493                19.5684
 Red. masses --    18.9659                19.8955                18.7400
 Frc consts  --     0.0000                 0.0000                 0.0000
 IR Inten    --   128.5709                 0.9397                 3.3144
 Raman Activ --     0.0000                 0.0000                 0.0000
 Depolar     --     0.0000                 0.0000                 0.0000
 Atom AN      X      Y      Z        X      Y      Z        X      Y      Z
   1   7    -0.22  -0.26   0.51    -0.02   0.11  -0.03     0.06   0.11  -0.11
   2   6    -0.13  -0.21   0.14    -0.01   0.08   0.10     0.04   0.07   0.09
   3   6     0.03   0.04   0.01    -0.01  -0.05   0.12    -0.05  -0.10   0.17
   4   6     0.02   0.02   0.01    -0.01  -0.05   0.05    -0.02  -0.06   0.15
   5   6     0.02   0.01  -0.01    -0.01  -0.11  -0.07     0.09   0.09   0.44
   6   6     0.01   0.00  -0.02    -0.00  -0.10  -0.10     0.10   0.11   0.40
   7   6     0.01   0.01  -0.01     0.00  -0.03  -0.01    -0.01  -0.02   0.07
   8   6     0.01   0.00   0.01    -0.01  -0.03  -0.05    -0.02  -0.02  -0.01
   9   6     0.02   0.01   0.02    -0.10  -0.18  -0.38    -0.05  -0.00  -0.03
  10   6     0.02  -0.00   0.02    -0.08  -0.15  -0.37    -0.04   0.03  -0.06
  11   6     0.01  -0.01  -0.00     0.02   0.03   0.00     0.00   0.04  -0.05
  12  16     0.00  -0.01  -0.02     0.17   0.26   0.51     0.04   0.01  -0.03
  13  16     0.04   0.03   0.03     0.00   0.03   0.21    -0.20  -0.31  -0.35
  14  17     0.12   0.28  -0.51    -0.01   0.01  -0.20     0.06   0.10  -0.32
  15   1     0.05  -0.06   0.23    -0.01   0.01  -0.02     0.03  -0.01  -0.04
  16   1    -0.08  -0.07   0.04    -0.01   0.03  -0.02     0.01   0.04  -0.07
  17   1    -0.16  -0.11   0.22    -0.00   0.05  -0.02     0.00   0.06  -0.02
  18   1    -0.03  -0.05   0.05    -0.00   0.03   0.04     0.01   0.02   0.03
  19   1    -0.07  -0.11  -0.00     0.00   0.04   0.04     0.03   0.05   0.05
  20   1     0.03   0.06   0.03    -0.00  -0.04   0.03    -0.02  -0.08   0.03
  21   1     0.02   0.01  -0.06    -0.00  -0.02   0.07    -0.03  -0.03   0.10
  22   1     0.00   0.00  -0.01    -0.00  -0.04  -0.04     0.04   0.04   0.17
  23   1     0.00  -0.00  -0.01    -0.00  -0.04  -0.05     0.05   0.06   0.17
  24   1     0.01   0.00   0.01    -0.05  -0.09  -0.18    -0.02  -0.00  -0.01
  25   1     0.01  -0.00   0.01    -0.04  -0.07  -0.17    -0.02   0.01  -0.02
  26   1    -0.00  -0.01  -0.00     0.02   0.03   0.03     0.00   0.02  -0.02
                      4                      5                      6
                        a                      a                      a 
 Frequencies --    51.3570                74.4884                78.7523
 Red. masses --    28.0887                16.4420                23.8948
 Frc consts  --     0.0000                 0.0000                 0.0000
 IR Inten    --    14.9159                 8.4710                23.0708
 Raman Activ --     0.0000                 0.0000                 0.0000
 Depolar     --     0.0000                 0.0000                 0.0000
 Atom AN      X      Y      Z        X      Y      Z        X      Y      Z
   1   7     0.12   0.03  -0.03     0.29  -0.26  -0.09    -0.02   0.06  -0.17
   2   6    -0.07   0.06  -0.02     0.22  -0.21  -0.21     0.00   0.03  -0.04
   3   6    -0.04   0.14  -0.05    -0.05  -0.06  -0.09    -0.07  -0.15   0.03
   4   6    -0.05   0.13  -0.01    -0.02   0.03   0.14    -0.09  -0.18  -0.01
   5   6    -0.09   0.14   0.01    -0.03   0.02   0.13    -0.10  -0.23  -0.12
   6   6    -0.10   0.10   0.02    -0.02   0.05   0.17    -0.09  -0.22  -0.13
   7   6    -0.08   0.06   0.01    -0.02   0.06   0.19    -0.08  -0.15  -0.02
   8   6    -0.09  -0.01   0.02    -0.04   0.04   0.08    -0.06  -0.06   0.01
   9   6    -0.05  -0.08  -0.02    -0.09   0.02  -0.03    -0.11   0.06   0.10
  10   6    -0.08  -0.16   0.00    -0.12  -0.03  -0.21    -0.06   0.18   0.11
  11   6    -0.15  -0.14   0.05    -0.09  -0.05  -0.26     0.03   0.15   0.05
  12  16    -0.29  -0.05   0.12    -0.05  -0.03  -0.14     0.08  -0.03  -0.07
  13  16    -0.05   0.14  -0.03    -0.00   0.16   0.43    -0.12  -0.19   0.13
  14  17     0.73  -0.27  -0.06    -0.01   0.18  -0.09     0.45   0.51   0.07
  15   1     0.11  -0.03   0.01     0.00  -0.03  -0.04     0.03   0.01  -0.03
  16   1     0.04   0.05  -0.08     0.09  -0.08   0.07    -0.01   0.02  -0.09
  17   1    -0.01  -0.01   0.03     0.14  -0.10  -0.07    -0.04   0.03  -0.03
  18   1    -0.04  -0.02   0.01     0.07  -0.06  -0.14     0.00   0.02  -0.01
  19   1    -0.05   0.04  -0.01     0.12  -0.09  -0.04     0.02   0.03   0.01
  20   1    -0.01   0.06  -0.00    -0.05  -0.01  -0.05    -0.03  -0.08  -0.01
  21   1    -0.01   0.04  -0.03    -0.04  -0.01  -0.04    -0.02  -0.05   0.06
  22   1    -0.03   0.05  -0.00    -0.01   0.00   0.02    -0.03  -0.07  -0.05
  23   1    -0.04   0.03   0.01    -0.01   0.01   0.04    -0.03  -0.07  -0.06
  24   1     0.00  -0.02  -0.02    -0.03   0.01   0.01    -0.05   0.02   0.04
  25   1    -0.01  -0.06  -0.00    -0.05  -0.01  -0.09    -0.03   0.08   0.05
  26   1    -0.05  -0.05   0.02    -0.03  -0.02  -0.11     0.02   0.07   0.02
                      7                      8                      9
                        a                      a                      a 
 Frequencies --   108.9678               124.7617               174.6634
 Red. masses --    14.6687                11.4843                 9.6010
 Frc consts  --     0.0000                 0.0000                 0.0000
 IR Inten    --     3.5276                26.5399                 9.3978
 Raman Activ --     0.0000                 0.0000                 0.0000
 Depolar     --     0.0000                 0.0000                 0.0000
 Atom AN      X      Y      Z        X      Y      Z        X      Y      Z
   1   7    -0.01   0.09   0.15     0.52  -0.10   0.21    -0.33   0.08   0.12
   2   6     0.07   0.11  -0.10     0.14  -0.04   0.14     0.45   0.03  -0.24
   3   6     0.16   0.30  -0.18     0.03   0.10   0.17     0.05  -0.01  -0.02
   4   6     0.02   0.10  -0.04     0.01   0.08   0.14     0.02  -0.01   0.19
   5   6    -0.16   0.11   0.02    -0.03   0.01   0.00     0.05  -0.02   0.13
   6   6    -0.22  -0.06   0.11    -0.07  -0.08  -0.19     0.05  -0.03  -0.04
   7   6    -0.09  -0.20   0.11    -0.10  -0.10  -0.25    -0.03  -0.02  -0.14
   8   6    -0.09  -0.17   0.10    -0.09  -0.07  -0.21    -0.04  -0.00  -0.18
   9   6    -0.26  -0.02   0.04    -0.07  -0.03  -0.12     0.00  -0.02  -0.13
  10   6    -0.19   0.19  -0.08    -0.02   0.07   0.12     0.02   0.01   0.08
  11   6     0.05   0.20  -0.10    -0.02   0.11   0.21    -0.02   0.05   0.17
  12  16     0.30  -0.08   0.03    -0.12   0.03  -0.03    -0.15   0.06  -0.03
  13  16     0.19  -0.23  -0.01    -0.09  -0.03  -0.15    -0.10   0.02   0.05
  14  17    -0.01  -0.17  -0.02    -0.09   0.04  -0.03     0.10  -0.12   0.01
  15   1    -0.00   0.05   0.05     0.02  -0.02  -0.00    -0.12   0.12   0.07
  16   1    -0.01   0.01   0.05     0.19   0.01   0.22    -0.17  -0.12   0.04
  17   1    -0.01   0.00   0.05     0.28  -0.08  -0.03    -0.13   0.05   0.06
  18   1     0.03   0.05  -0.04     0.01  -0.07   0.01     0.22   0.17  -0.23
  19   1     0.01  -0.02  -0.06     0.04   0.01   0.05     0.30  -0.16  -0.03
  20   1     0.04   0.18  -0.03     0.01   0.03   0.05    -0.05  -0.00  -0.06
  21   1     0.11   0.08  -0.13     0.01   0.03   0.04     0.02  -0.00   0.02
  22   1    -0.07   0.06   0.00    -0.01   0.01   0.02     0.03  -0.01   0.05
  23   1    -0.10  -0.02   0.05    -0.02  -0.03  -0.08     0.03  -0.01  -0.03
  24   1    -0.13  -0.02   0.02    -0.02  -0.02  -0.06     0.01  -0.01  -0.06
  25   1    -0.09   0.09  -0.04     0.00   0.03   0.06     0.02   0.00   0.05
  26   1     0.04   0.10  -0.05     0.00   0.05   0.11    -0.01   0.02   0.09
                     10                     11                     12
                        a                      a                      a 
 Frequencies --   204.7386               236.9744               268.4543
 Red. masses --    13.0117                 8.2322                17.0011
 Frc consts  --     0.0000                 0.0000                 0.0000
 IR Inten    --     4.7777                 0.9815                 0.7923
 Raman Activ --     0.0000                 0.0000                 0.0000
 Depolar     --     0.0000                 0.0000                 0.0000
 Atom AN      X      Y      Z        X      Y      Z        X      Y      Z
   1   7     0.04   0.10   0.23    -0.23   0.02   0.02     0.08  -0.02   0.04
   2   6     0.15   0.10   0.00    -0.16  -0.01  -0.01     0.13  -0.00  -0.05
   3   6     0.08   0.02   0.03    -0.20  -0.06   0.03    -0.23   0.03   0.13
   4   6    -0.02  -0.15  -0.09    -0.07   0.10  -0.05    -0.13   0.19   0.17
   5   6    -0.02  -0.19  -0.18    -0.04   0.13   0.01    -0.11   0.11  -0.04
   6   6     0.03  -0.08  -0.07    -0.04   0.11   0.05    -0.14   0.05  -0.23
   7   6     0.02   0.07   0.11     0.00   0.02  -0.00    -0.05   0.03  -0.12
   8   6     0.05   0.20   0.25     0.01  -0.12  -0.02     0.04  -0.07   0.12
   9   6     0.06   0.17   0.23     0.01  -0.12  -0.02     0.09  -0.05   0.20
  10   6    -0.04  -0.05  -0.09     0.06  -0.02   0.04     0.08  -0.06  -0.02
  11   6    -0.14  -0.14  -0.27     0.14   0.01   0.07     0.15  -0.13  -0.20
  12  16    -0.12   0.17   0.17     0.23  -0.19  -0.03     0.41  -0.14   0.15
  13  16    -0.12  -0.18  -0.25    -0.01   0.13   0.02    -0.31   0.14  -0.16
  14  17     0.08  -0.02  -0.03     0.17   0.02  -0.08    -0.04  -0.02   0.03
  15   1    -0.18   0.10  -0.00    -0.43   0.09  -0.16     0.16  -0.01   0.08
  16   1     0.03  -0.02   0.31    -0.02  -0.06   0.46    -0.01  -0.00  -0.16
  17   1     0.18  -0.01  -0.05     0.29  -0.01  -0.25    -0.12  -0.01   0.11
  18   1     0.06   0.06  -0.05    -0.04   0.02  -0.03     0.05   0.02  -0.11
  19   1     0.09  -0.02   0.01    -0.02  -0.02   0.01     0.12  -0.03   0.03
  20   1     0.01   0.01   0.00    -0.04  -0.09  -0.00    -0.09  -0.06  -0.01
  21   1     0.07  -0.01   0.03    -0.11  -0.01   0.05    -0.13   0.02   0.09
  22   1    -0.01  -0.07  -0.06    -0.01   0.04  -0.00    -0.02   0.02   0.00
  23   1     0.03  -0.01  -0.01    -0.03   0.03   0.03    -0.05  -0.00  -0.09
  24   1     0.03   0.07   0.10    -0.01  -0.04  -0.02     0.03  -0.00   0.08
  25   1    -0.01  -0.05  -0.07     0.01   0.01   0.02     0.00  -0.01  -0.03
  26   1    -0.06  -0.08  -0.14     0.05   0.02   0.03     0.04  -0.05  -0.10
                     13                     14                     15
                        a                      a                      a 
 Frequencies --   285.6271               330.6954               382.4797
 Red. masses --    16.2088                11.6794                16.8347
 Frc consts  --     0.0000                 0.0000                 0.0000
 IR Inten    --     4.1776                 9.6276                 4.0835
 Raman Activ --     0.0000                 0.0000                 0.0000
 Depolar     --     0.0000                 0.0000                 0.0000
 Atom AN      X      Y      Z        X      Y      Z        X      Y      Z
   1   7     0.11   0.09   0.11     0.16   0.10   0.25     0.06   0.04   0.12
   2   6    -0.12   0.14  -0.12     0.11   0.13  -0.06    -0.05   0.09  -0.11
   3   6     0.03   0.24  -0.21    -0.10  -0.18   0.06    -0.27  -0.06   0.02
   4   6    -0.24  -0.21  -0.01    -0.04  -0.11  -0.30    -0.08   0.16  -0.06
   5   6    -0.07  -0.17   0.06    -0.03  -0.08  -0.27    -0.18   0.15  -0.03
   6   6     0.05   0.04   0.11     0.06   0.15   0.17    -0.23  -0.06   0.08
   7   6     0.02   0.06   0.05     0.05   0.19   0.25    -0.03  -0.21   0.10
   8   6     0.07   0.06  -0.08    -0.02  -0.04   0.12     0.06   0.14  -0.09
   9   6     0.19  -0.07  -0.12    -0.14  -0.12  -0.14     0.22   0.05  -0.08
  10   6     0.21  -0.10   0.00    -0.09   0.01  -0.04     0.20  -0.08  -0.01
  11   6     0.17  -0.05   0.10     0.03   0.14   0.20     0.07  -0.08   0.02
  12  16     0.14   0.02  -0.13     0.01  -0.22  -0.14    -0.08   0.32  -0.14
  13  16    -0.47  -0.08   0.21     0.00   0.15  -0.11     0.26  -0.36   0.12
  14  17    -0.01  -0.01  -0.00    -0.04  -0.04   0.02    -0.01  -0.02   0.01
  15   1     0.05   0.03   0.04     0.15   0.05   0.14     0.06   0.04   0.07
  16   1     0.06   0.07   0.06     0.04   0.05  -0.01     0.03   0.04   0.02
  17   1     0.04  -0.05   0.03    -0.05  -0.05   0.15    -0.01  -0.06   0.07
  18   1    -0.05   0.01  -0.01     0.04   0.06  -0.08    -0.02   0.02  -0.09
  19   1    -0.08   0.04  -0.07     0.09   0.01   0.01     0.03   0.01  -0.01
  20   1    -0.02   0.24  -0.03    -0.03  -0.20  -0.03    -0.08  -0.18  -0.05
  21   1     0.16   0.05  -0.16    -0.08  -0.06   0.18    -0.18  -0.01   0.14
  22   1     0.00  -0.08   0.02    -0.01  -0.04  -0.11    -0.07   0.07  -0.02
  23   1     0.04   0.02   0.05     0.04   0.07   0.09    -0.14  -0.03   0.04
  24   1     0.08  -0.02  -0.06    -0.07  -0.05  -0.06     0.11   0.02  -0.04
  25   1     0.07  -0.03   0.01    -0.04   0.02  -0.01     0.08  -0.04   0.01
  26   1     0.04  -0.02   0.06     0.03   0.08   0.10    -0.01  -0.06   0.03
                     16                     17                     18
                        a                      a                      a 
 Frequencies --   397.6148               467.3779               511.9152
 Red. masses --    12.6857                10.8899                12.0962
 Frc consts  --     0.0000                 0.0000                 0.0000
 IR Inten    --    10.9314                 2.8536                 1.3489
 Raman Activ --     0.0000                 0.0000                 0.0000
 Depolar     --     0.0000                 0.0000                 0.0000
 Atom AN      X      Y      Z        X      Y      Z        X      Y      Z
   1   7    -0.10  -0.12  -0.19    -0.03  -0.08  -0.09    -0.00   0.03   0.02
   2   6     0.11  -0.16   0.18     0.17  -0.11   0.20    -0.13   0.06  -0.14
   3   6     0.06   0.17   0.16     0.09   0.07   0.17    -0.15   0.06  -0.07
   4   6     0.03   0.17   0.24    -0.01  -0.03  -0.15    -0.00   0.19   0.37
   5   6    -0.14  -0.04  -0.19    -0.20  -0.09  -0.29     0.13  -0.06  -0.13
   6   6    -0.12  -0.03  -0.06    -0.08   0.17   0.32     0.16  -0.02  -0.11
   7   6     0.04   0.12   0.34    -0.08  -0.00   0.06     0.22   0.17   0.28
   8   6     0.07   0.19   0.27    -0.11  -0.13  -0.33     0.08  -0.05  -0.06
   9   6     0.04  -0.05  -0.11     0.02  -0.07  -0.07    -0.08  -0.06  -0.28
  10   6     0.04  -0.11  -0.14     0.12   0.08   0.27     0.03   0.23   0.29
  11   6     0.11   0.09   0.26     0.01  -0.17  -0.25    -0.15  -0.05  -0.24
  12  16    -0.03  -0.01  -0.24     0.08   0.16   0.08    -0.05  -0.11   0.13
  13  16    -0.05  -0.14  -0.16    -0.03   0.06   0.00     0.03  -0.20  -0.06
  14  17     0.02   0.02  -0.00     0.01   0.01  -0.00    -0.00  -0.00   0.00
  15   1    -0.08  -0.07  -0.10    -0.04  -0.06  -0.06     0.02   0.03   0.03
  16   1    -0.06  -0.08  -0.08    -0.04  -0.07  -0.07     0.02   0.04   0.03
  17   1    -0.02   0.09  -0.08    -0.02   0.09  -0.04     0.01  -0.06   0.02
  18   1     0.04  -0.03   0.02     0.06  -0.01   0.01    -0.05  -0.00  -0.02
  19   1     0.06  -0.05   0.07     0.10  -0.05   0.09    -0.06   0.02  -0.05
  20   1     0.03   0.14   0.08     0.06   0.07   0.09    -0.08   0.01  -0.05
  21   1     0.03   0.06  -0.07     0.06   0.02  -0.01    -0.08   0.02  -0.02
  22   1    -0.06  -0.02  -0.09    -0.09  -0.03  -0.14     0.06  -0.08  -0.07
  23   1    -0.06  -0.02  -0.03    -0.02   0.09   0.18     0.04  -0.03  -0.08
  24   1     0.03  -0.02  -0.06     0.03  -0.02  -0.04    -0.07  -0.05  -0.13
  25   1     0.01  -0.05  -0.07     0.05   0.07   0.15     0.04   0.10   0.18
  26   1     0.03   0.04   0.12    -0.01  -0.06  -0.07    -0.03   0.01  -0.06
                     19                     20                     21
                        a                      a                      a 
 Frequencies --   538.1731               569.8432               579.0929
 Red. masses --    11.6484                12.0011                13.4014
 Frc consts  --     0.0000                 0.0000                 0.0000
 IR Inten    --     1.8658                 0.2693                 3.2773
 Raman Activ --     0.0000                 0.0000                 0.0000
 Depolar     --     0.0000                 0.0000                 0.0000
 Atom AN      X      Y      Z        X      Y      Z        X      Y      Z
   1   7     0.01   0.01   0.01     0.00   0.03   0.03    -0.00   0.07   0.05
   2   6     0.05  -0.01   0.04    -0.02   0.02  -0.06    -0.07   0.05  -0.13
   3   6     0.15  -0.12  -0.03     0.09  -0.10  -0.09     0.14  -0.18  -0.17
   4   6     0.05  -0.17  -0.24     0.10  -0.00   0.12     0.23   0.10   0.44
   5   6    -0.04   0.12   0.35    -0.03  -0.04   0.08    -0.08  -0.22  -0.13
   6   6    -0.20  -0.18  -0.23    -0.08  -0.12  -0.09    -0.01  -0.05   0.24
   7   6    -0.10   0.09   0.23     0.01   0.23   0.48    -0.21  -0.13  -0.19
   8   6    -0.06   0.12   0.24    -0.21  -0.26  -0.49    -0.12   0.07   0.21
   9   6    -0.06  -0.21  -0.23     0.03   0.04   0.25    -0.06  -0.15   0.02
  10   6     0.08   0.05   0.28    -0.04  -0.13  -0.11    -0.02  -0.09   0.09
  11   6     0.06  -0.15  -0.15     0.09  -0.01   0.11     0.11  -0.11   0.00
  12  16     0.06   0.14  -0.10     0.06   0.15  -0.01     0.07   0.21  -0.15
  13  16    -0.03   0.17  -0.07    -0.01   0.09  -0.14     0.03   0.22  -0.14
  14  17    -0.00  -0.00  -0.00    -0.00  -0.00   0.00    -0.00  -0.01   0.00
  15   1    -0.01   0.00  -0.00     0.00   0.03   0.02     0.01   0.06   0.04
  16   1    -0.00  -0.01   0.00     0.01   0.02   0.03     0.02   0.04   0.05
  17   1     0.00   0.01   0.00     0.01  -0.03   0.01     0.01  -0.06   0.02
  18   1     0.02   0.00   0.05    -0.01  -0.00   0.06    -0.04  -0.01   0.11
  19   1    -0.01   0.01   0.00    -0.07   0.03  -0.04    -0.14   0.06  -0.10
  20   1     0.06  -0.06  -0.00     0.01  -0.06  -0.04    -0.00  -0.10  -0.09
  21   1     0.05  -0.04   0.02     0.00  -0.03   0.01    -0.02  -0.05   0.01
  22   1    -0.03   0.10   0.16    -0.03  -0.00  -0.00    -0.06  -0.07  -0.11
  23   1    -0.07  -0.09  -0.16    -0.03  -0.08  -0.14     0.05   0.02   0.12
  24   1    -0.01  -0.10  -0.17     0.06   0.08   0.19     0.01  -0.05  -0.04
  25   1     0.03   0.07   0.15    -0.03  -0.03  -0.06    -0.03   0.00   0.02
  26   1     0.01  -0.04  -0.01     0.01  -0.02   0.00     0.02  -0.04   0.02
                     22                     23                     24
                        a                      a                      a 
 Frequencies --   653.6513               688.4053               723.7149
 Red. masses --    15.3341                18.6344                14.4638
 Frc consts  --     0.0000                 0.0000                 0.0000
 IR Inten    --     8.3034                 6.4761                 0.1204
 Raman Activ --     0.0000                 0.0000                 0.0000
 Depolar     --     0.0000                 0.0000                 0.0000
 Atom AN      X      Y      Z        X      Y      Z        X      Y      Z
   1   7     0.00   0.03   0.03    -0.00   0.00  -0.01    -0.00  -0.02  -0.01
   2   6     0.07  -0.01   0.00    -0.09   0.02  -0.03    -0.03   0.01  -0.01
   3   6     0.28  -0.20  -0.13    -0.22   0.04   0.09    -0.07   0.11   0.03
   4   6     0.20   0.06   0.05    -0.20  -0.25   0.15     0.08   0.15  -0.13
   5   6    -0.23   0.04   0.02    -0.21  -0.26   0.19     0.32   0.12  -0.14
   6   6    -0.23   0.06   0.03    -0.08  -0.14   0.08     0.13  -0.53   0.23
   7   6    -0.01  -0.06   0.03    -0.07  -0.08   0.06    -0.02  -0.38   0.20
   8   6     0.15   0.14  -0.10     0.04   0.07  -0.04     0.04   0.05  -0.04
   9   6     0.19   0.19  -0.14     0.12   0.06  -0.06     0.03   0.11  -0.05
  10   6     0.22   0.17  -0.14     0.16   0.10  -0.08     0.00  -0.00   0.00
  11   6    -0.11   0.17  -0.06    -0.04   0.10  -0.04    -0.05  -0.01   0.02
  12  16    -0.09  -0.39   0.21    -0.06  -0.17   0.10     0.02  -0.04   0.02
  13  16    -0.21   0.02   0.03     0.40   0.35  -0.27    -0.28   0.28  -0.08
  14  17    -0.00  -0.00   0.00    -0.00   0.01  -0.00     0.00  -0.00   0.00
  15   1    -0.01   0.03   0.01     0.03  -0.01   0.00     0.00  -0.02  -0.01
  16   1    -0.01  -0.02   0.02     0.03   0.05   0.00     0.00   0.01  -0.01
  17   1    -0.00   0.01   0.01     0.01  -0.04   0.00     0.00  -0.00  -0.01
  18   1     0.00  -0.03   0.17    -0.01   0.04  -0.14    -0.00   0.01  -0.06
  19   1    -0.11   0.05  -0.06     0.08  -0.04   0.05     0.03  -0.02   0.01
  20   1     0.08  -0.18  -0.07    -0.10   0.19   0.05     0.00   0.02   0.02
  21   1    -0.01  -0.05   0.06     0.08  -0.00  -0.09    -0.04   0.04  -0.01
  22   1    -0.11   0.06  -0.03    -0.06  -0.10   0.05     0.04   0.11  -0.04
  23   1    -0.11   0.01   0.02     0.02  -0.04   0.02    -0.09  -0.17   0.11
  24   1     0.05   0.06  -0.04     0.04   0.02  -0.02     0.02   0.03  -0.02
  25   1     0.11  -0.01  -0.02     0.06   0.00  -0.02     0.03  -0.03   0.01
  26   1    -0.03   0.05  -0.02    -0.01   0.02  -0.01    -0.01  -0.00   0.00
                     25                     26                     27
                        a                      a                      a 
 Frequencies --   727.4211               749.7462               817.8956
 Red. masses --    15.0707                 2.4890                13.6886
 Frc consts  --     0.0000                 0.0000                 0.0000
 IR Inten    --     8.3360                15.6598                29.7643
 Raman Activ --     0.0000                 0.0000                 0.0000
 Depolar     --     0.0000                 0.0000                 0.0000
 Atom AN      X      Y      Z        X      Y      Z        X      Y      Z
   1   7    -0.00   0.00   0.00    -0.01  -0.01   0.00     0.00   0.01   0.01
   2   6    -0.00  -0.00   0.00    -0.00  -0.00  -0.00     0.02  -0.01   0.01
   3   6    -0.00  -0.02   0.00     0.00   0.01  -0.00     0.02  -0.04  -0.01
   4   6    -0.01  -0.03   0.02    -0.00  -0.00  -0.00    -0.03  -0.04   0.03
   5   6    -0.06  -0.03   0.03     0.00   0.00   0.01    -0.10  -0.00   0.03
   6   6    -0.03   0.03  -0.01     0.00   0.00   0.01    -0.03   0.09  -0.03
   7   6    -0.04   0.05  -0.02    -0.00  -0.00  -0.01     0.19  -0.14   0.02
   8   6    -0.02   0.34  -0.16     0.01   0.02   0.03     0.20  -0.27   0.09
   9   6    -0.13   0.43  -0.19    -0.00   0.00  -0.01     0.08  -0.10   0.02
  10   6    -0.37  -0.23   0.20    -0.03  -0.06  -0.11     0.02   0.04  -0.03
  11   6    -0.15  -0.24   0.16    -0.06  -0.15  -0.29    -0.66   0.03   0.14
  12  16     0.40  -0.16  -0.02     0.01   0.01   0.03     0.28   0.22  -0.17
  13  16     0.09  -0.03  -0.00     0.00   0.00  -0.00    -0.05   0.09  -0.04
  14  17     0.00   0.00  -0.00     0.00   0.00   0.00     0.00   0.00  -0.00
  15   1     0.00  -0.00   0.00     0.00  -0.00  -0.00    -0.00   0.01   0.00
  16   1     0.00   0.01   0.00     0.00   0.00   0.00    -0.00  -0.00   0.00
  17   1     0.00  -0.00   0.00     0.00   0.00  -0.00    -0.00   0.01   0.00
  18   1     0.00   0.00  -0.00     0.00   0.00  -0.00     0.00  -0.00   0.03
  19   1     0.00  -0.00   0.00     0.00  -0.00  -0.00    -0.01   0.01  -0.00
  20   1    -0.00   0.01   0.00    -0.00   0.00  -0.00    -0.00   0.00  -0.00
  21   1     0.01  -0.01  -0.00    -0.00   0.00   0.00     0.02  -0.01  -0.01
  22   1    -0.02  -0.01   0.01    -0.00  -0.00  -0.00    -0.02  -0.02   0.00
  23   1     0.02   0.01  -0.01    -0.00  -0.01  -0.02    -0.06   0.00  -0.01
  24   1     0.10   0.14  -0.10     0.06   0.12   0.24    -0.08  -0.04   0.07
  25   1    -0.03  -0.16   0.08     0.05   0.10   0.21     0.11  -0.12   0.04
  26   1     0.00  -0.00  -0.01     0.18   0.37   0.75    -0.28  -0.12   0.12
                     28                     29                     30
                        a                      a                      a 
 Frequencies --   826.9094               837.4546               843.7090
 Red. masses --     3.3835                 3.2175                 4.1175
 Frc consts  --     0.0000                 0.0000                 0.0000
 IR Inten    --     2.7940                14.3968                48.4404
 Raman Activ --     0.0000                 0.0000                 0.0000
 Depolar     --     0.0000                 0.0000                 0.0000
 Atom AN      X      Y      Z        X      Y      Z        X      Y      Z
   1   7    -0.01   0.00   0.01     0.00   0.03   0.01    -0.09   0.13   0.04
   2   6    -0.01   0.01  -0.00    -0.03  -0.02   0.03    -0.21  -0.04   0.09
   3   6     0.01  -0.01  -0.01    -0.01  -0.07  -0.02     0.03  -0.30  -0.06
   4   6     0.01   0.00   0.01     0.01  -0.00  -0.03     0.18   0.09   0.04
   5   6    -0.01  -0.00  -0.00     0.01   0.04   0.03     0.03   0.07  -0.05
   6   6    -0.02  -0.03  -0.08     0.07   0.19   0.35    -0.06   0.02  -0.07
   7   6     0.02   0.02   0.05     0.00  -0.05  -0.07    -0.03   0.05  -0.00
   8   6    -0.01  -0.05  -0.08     0.02  -0.00   0.01    -0.03   0.01   0.00
   9   6     0.09   0.17   0.36     0.01   0.05   0.07     0.00  -0.03  -0.02
  10   6     0.02   0.03   0.06    -0.01   0.00   0.02     0.02   0.01  -0.01
  11   6    -0.05  -0.06  -0.12     0.02  -0.02  -0.02    -0.02   0.02   0.01
  12  16     0.00  -0.01  -0.04    -0.02  -0.00  -0.01     0.02  -0.01   0.00
  13  16    -0.00   0.00   0.00    -0.03  -0.02  -0.03    -0.07  -0.07   0.05
  14  17    -0.00  -0.00  -0.00    -0.00   0.00   0.00    -0.01   0.01   0.00
  15   1     0.01  -0.04  -0.01     0.02  -0.01  -0.00     0.13  -0.24  -0.05
  16   1     0.01   0.02  -0.00     0.03   0.06  -0.00     0.19   0.43   0.01
  17   1     0.01  -0.00  -0.00     0.01  -0.01  -0.00     0.11  -0.12  -0.05
  18   1     0.00   0.02  -0.01     0.02   0.04  -0.04     0.11   0.28  -0.23
  19   1     0.01  -0.01  -0.00     0.05  -0.03   0.04     0.26  -0.23   0.13
  20   1    -0.00  -0.01  -0.01     0.02   0.04   0.03     0.10   0.11   0.11
  21   1    -0.00  -0.00   0.00     0.03  -0.02  -0.06     0.08  -0.07  -0.24
  22   1     0.01   0.02   0.04    -0.05  -0.10  -0.23    -0.02   0.08  -0.00
  23   1     0.03   0.08   0.15    -0.19  -0.36  -0.72     0.00   0.07   0.10
  24   1    -0.16  -0.33  -0.67    -0.04  -0.07  -0.14     0.02   0.02   0.05
  25   1    -0.06  -0.13  -0.26    -0.02  -0.03  -0.06     0.01   0.01   0.01
  26   1     0.05   0.12   0.26     0.02   0.02   0.03    -0.02  -0.02  -0.01
                     31                     32                     33
                        a                      a                      a 
 Frequencies --   857.0701               871.4891               886.9636
 Red. masses --    12.8978                 3.4213                 6.6647
 Frc consts  --     0.0000                 0.0000                 0.0000
 IR Inten    --    11.9727                 1.1737                 7.2470
 Raman Activ --     0.0000                 0.0000                 0.0000
 Depolar     --     0.0000                 0.0000                 0.0000
 Atom AN      X      Y      Z        X      Y      Z        X      Y      Z
   1   7    -0.02  -0.07  -0.02    -0.00   0.00  -0.00     0.15   0.33   0.02
   2   6    -0.03   0.05  -0.03    -0.00  -0.00   0.00     0.11  -0.24   0.08
   3   6     0.01   0.14   0.04    -0.00  -0.00   0.00    -0.23  -0.37  -0.09
   4   6     0.05   0.05  -0.06     0.00   0.00  -0.00    -0.06   0.07   0.00
   5   6     0.16  -0.02  -0.03     0.00   0.00  -0.00     0.10   0.12  -0.08
   6   6     0.06  -0.13   0.09    -0.00  -0.00  -0.00    -0.01  -0.03  -0.02
   7   6    -0.41   0.29  -0.06    -0.00  -0.00  -0.00    -0.08   0.04   0.01
   8   6    -0.39   0.23  -0.02     0.00   0.00   0.00    -0.09   0.06  -0.01
   9   6     0.09  -0.19   0.07     0.04   0.09   0.17     0.01  -0.03   0.02
  10   6     0.25   0.08  -0.10    -0.08  -0.18  -0.36     0.05   0.01  -0.01
  11   6    -0.30   0.12   0.01     0.02   0.04   0.08    -0.03   0.02  -0.01
  12  16     0.22  -0.13   0.01     0.00   0.01   0.02     0.03  -0.03   0.01
  13  16     0.08  -0.16   0.06    -0.00  -0.00   0.00     0.03  -0.05   0.02
  14  17     0.00   0.00   0.00     0.00   0.00   0.00     0.00  -0.01  -0.00
  15   1    -0.00  -0.02  -0.01     0.00   0.01   0.00    -0.03   0.33   0.09
  16   1    -0.00  -0.01  -0.00     0.00   0.00   0.00    -0.10  -0.19   0.04
  17   1    -0.00  -0.02  -0.01     0.00  -0.00  -0.00    -0.08   0.12   0.08
  18   1    -0.01   0.00  -0.04     0.00   0.00  -0.00    -0.02  -0.16   0.11
  19   1    -0.00  -0.01  -0.02     0.00   0.00   0.00    -0.00   0.15   0.11
  20   1     0.01  -0.05  -0.01     0.00   0.01   0.00    -0.03   0.25   0.11
  21   1    -0.05   0.04   0.09     0.00  -0.00  -0.01     0.07  -0.08  -0.40
  22   1     0.02   0.02  -0.02    -0.00   0.00   0.00     0.02   0.04  -0.03
  23   1     0.14  -0.04  -0.09    -0.00   0.00   0.00    -0.02   0.02   0.05
  24   1     0.10  -0.04  -0.01    -0.07  -0.14  -0.28     0.02  -0.01  -0.01
  25   1     0.09  -0.01  -0.02     0.16   0.35   0.71     0.01   0.00  -0.02
  26   1    -0.16  -0.08   0.08    -0.03  -0.07  -0.14    -0.02  -0.00   0.03
                     34                     35                     36
                        a                      a                      a 
 Frequencies --   908.5923               914.5074              1017.2084
 Red. masses --     3.2517                 5.2580                 6.9458
 Frc consts  --     0.0000                 0.0000                 0.0000
 IR Inten    --    16.0293                22.0890                 6.8230
 Raman Activ --     0.0000                 0.0000                 0.0000
 Depolar     --     0.0000                 0.0000                 0.0000
 Atom AN      X      Y      Z        X      Y      Z        X      Y      Z
   1   7    -0.03  -0.03  -0.08     0.05   0.18   0.27     0.13   0.26  -0.01
   2   6    -0.02   0.03  -0.06     0.12  -0.18   0.17    -0.28  -0.30  -0.04
   3   6     0.03  -0.03   0.09    -0.10   0.05  -0.34     0.03   0.23  -0.01
   4   6     0.03   0.01   0.04    -0.14  -0.01   0.04     0.30   0.01  -0.07
   5   6    -0.08  -0.16  -0.34    -0.02  -0.08  -0.08    -0.17  -0.19   0.12
   6   6     0.01   0.09   0.13     0.06  -0.03   0.05     0.03  -0.05   0.02
   7   6     0.01   0.00   0.01    -0.02  -0.00   0.01     0.02   0.04  -0.02
   8   6     0.01  -0.01  -0.00    -0.02   0.01  -0.00     0.09  -0.07   0.01
   9   6     0.00   0.00  -0.00    -0.00  -0.01   0.00    -0.00   0.03  -0.01
  10   6    -0.00  -0.00   0.00     0.01   0.00  -0.01    -0.01  -0.01   0.01
  11   6     0.00  -0.00  -0.00    -0.00   0.01   0.00     0.00  -0.01   0.00
  12  16    -0.00   0.00  -0.00     0.00  -0.01   0.00    -0.01   0.02  -0.01
  13  16     0.00   0.01   0.02     0.05   0.02  -0.02    -0.07  -0.00   0.02
  14  17     0.00  -0.01  -0.01     0.00   0.01   0.00     0.00  -0.00  -0.00
  15   1     0.03   0.09   0.05    -0.07  -0.35  -0.18    -0.02   0.20   0.03
  16   1     0.00  -0.02   0.06     0.00   0.09  -0.15    -0.06  -0.10  -0.01
  17   1    -0.02  -0.14   0.02     0.09   0.50  -0.08    -0.06   0.13   0.05
  18   1    -0.01   0.00  -0.01     0.05  -0.01   0.10    -0.10  -0.13  -0.33
  19   1     0.00   0.05   0.01    -0.05  -0.17  -0.08     0.13  -0.08   0.13
  20   1     0.01   0.04   0.04    -0.10  -0.11  -0.19     0.22  -0.15   0.09
  21   1     0.05  -0.01  -0.01    -0.15   0.02  -0.00    -0.27   0.11   0.02
  22   1     0.16   0.38   0.74     0.07   0.05   0.21    -0.11   0.04   0.03
  23   1    -0.06  -0.08  -0.18     0.02  -0.04  -0.06     0.23   0.02  -0.06
  24   1    -0.00  -0.00  -0.01     0.01   0.00   0.01    -0.05  -0.00   0.01
  25   1    -0.00  -0.00  -0.00     0.00   0.01   0.01     0.02  -0.03   0.01
  26   1     0.00   0.00   0.00    -0.01  -0.01  -0.01     0.01   0.01  -0.01
                     37                     38                     39
                        a                      a                      a 
 Frequencies --  1040.1778              1065.0468              1071.4180
 Red. masses --     6.5348                 4.6613                 4.9815
 Frc consts  --     0.0000                 0.0000                 0.0000
 IR Inten    --    28.7454                 5.2525                 1.4935
 Raman Activ --     0.0000                 0.0000                 0.0000
 Depolar     --     0.0000                 0.0000                 0.0000
 Atom AN      X      Y      Z        X      Y      Z        X      Y      Z
   1   7     0.18  -0.29   0.14    -0.07  -0.09  -0.03    -0.04  -0.08  -0.03
   2   6    -0.20   0.46   0.01     0.18   0.11   0.11     0.11   0.10   0.13
   3   6    -0.06  -0.19  -0.08    -0.14  -0.02  -0.07    -0.10  -0.00  -0.10
   4   6     0.16   0.02   0.06     0.03   0.05  -0.06     0.04   0.03  -0.04
   5   6    -0.01   0.01  -0.02    -0.16   0.01   0.03    -0.14  -0.02   0.04
   6   6    -0.01   0.01  -0.01     0.13  -0.15   0.05     0.09  -0.10   0.03
   7   6     0.00   0.02  -0.01    -0.08   0.10  -0.03     0.03   0.02  -0.02
   8   6     0.02  -0.02   0.00     0.11  -0.11   0.03     0.06  -0.03   0.00
   9   6    -0.01   0.01  -0.00    -0.17   0.19  -0.06     0.27  -0.23   0.05
  10   6     0.00  -0.00  -0.00     0.15  -0.01  -0.03    -0.23  -0.03   0.07
  11   6     0.00  -0.00   0.00     0.11  -0.07   0.01    -0.21   0.09   0.00
  12  16    -0.00   0.00  -0.00    -0.02   0.01  -0.00    -0.01   0.04  -0.02
  13  16    -0.03  -0.02   0.01    -0.00  -0.03   0.02    -0.02  -0.01   0.01
  14  17     0.00   0.00  -0.00    -0.00  -0.00   0.00    -0.00  -0.00  -0.00
  15   1    -0.15  -0.12  -0.10     0.03  -0.03   0.02     0.02   0.00   0.02
  16   1    -0.14  -0.36  -0.14     0.03   0.06   0.04     0.02   0.02   0.03
  17   1    -0.03   0.33  -0.00     0.01  -0.13  -0.01    -0.00  -0.09   0.00
  18   1    -0.11   0.02  -0.27     0.06   0.06   0.19     0.04   0.05   0.11
  19   1     0.11   0.06   0.09    -0.03   0.07   0.00     0.01   0.06   0.04
  20   1     0.00   0.08   0.03    -0.09   0.06  -0.04    -0.03   0.02  -0.03
  21   1     0.22  -0.09  -0.01    -0.09   0.02  -0.10    -0.10   0.02  -0.08
  22   1    -0.10   0.14  -0.02    -0.27   0.26  -0.07    -0.18   0.16  -0.04
  23   1     0.03   0.01  -0.01     0.42   0.01  -0.11     0.24   0.00  -0.06
  24   1    -0.02   0.00   0.01    -0.38   0.00   0.09     0.36  -0.03  -0.07
  25   1     0.01  -0.01   0.01     0.18  -0.17   0.04    -0.08   0.01   0.02
  26   1     0.00   0.00   0.00    -0.05  -0.14   0.08     0.24   0.45  -0.28
                     40                     41                     42
                        a                      a                      a 
 Frequencies --  1079.6201              1088.0926              1161.1236
 Red. masses --     6.2179                 2.2805                 7.6748
 Frc consts  --     0.0000                 0.0000                 0.0000
 IR Inten    --     7.7772                 0.7000                23.5198
 Raman Activ --     0.0000                 0.0000                 0.0000
 Depolar     --     0.0000                 0.0000                 0.0000
 Atom AN      X      Y      Z        X      Y      Z        X      Y      Z
   1   7     0.02  -0.17  -0.12    -0.02   0.02   0.02    -0.09  -0.06   0.11
   2   6     0.04   0.22   0.41     0.03  -0.02  -0.07     0.18   0.15  -0.19
   3   6    -0.04   0.05  -0.41    -0.04  -0.01   0.08    -0.27   0.02   0.19
   4   6    -0.04   0.03   0.02     0.05   0.00  -0.03     0.49   0.01  -0.17
   5   6    -0.01  -0.08   0.03    -0.13   0.01   0.03     0.04  -0.22   0.10
   6   6    -0.02   0.02  -0.01     0.09  -0.03  -0.01    -0.17   0.09  -0.01
   7   6     0.03  -0.06   0.02     0.14  -0.07   0.00     0.01  -0.00  -0.00
   8   6    -0.04   0.04  -0.02     0.04   0.06  -0.04    -0.00  -0.03   0.02
   9   6    -0.03   0.01   0.00     0.05  -0.04   0.01    -0.01   0.02  -0.01
  10   6     0.01   0.02  -0.01    -0.12   0.07  -0.01    -0.01   0.01  -0.00
  11   6     0.04  -0.01  -0.01     0.06  -0.01  -0.01     0.01   0.01  -0.01
  12  16     0.01  -0.03   0.01     0.01  -0.05   0.02    -0.00   0.00  -0.00
  13  16     0.01   0.03  -0.01    -0.03   0.00   0.00    -0.07  -0.01   0.02
  14  17    -0.00  -0.00  -0.00    -0.00  -0.00   0.00     0.00   0.00   0.00
  15   1     0.02   0.12   0.06     0.00  -0.03  -0.01     0.00  -0.18  -0.04
  16   1    -0.02  -0.11   0.06     0.01   0.03  -0.01     0.01   0.07  -0.04
  17   1    -0.05  -0.16   0.04     0.01   0.01  -0.01     0.06   0.06  -0.05
  18   1     0.06   0.14   0.02    -0.00  -0.02   0.03    -0.02  -0.08   0.09
  19   1     0.19   0.09   0.25    -0.05   0.00  -0.05    -0.11   0.15  -0.11
  20   1     0.16  -0.15  -0.03    -0.06   0.05  -0.00    -0.03   0.15   0.12
  21   1    -0.30   0.08  -0.14     0.03  -0.01   0.00    -0.29   0.09  -0.30
  22   1     0.18  -0.24   0.10    -0.19   0.18  -0.05     0.14  -0.21   0.08
  23   1    -0.07  -0.00   0.02     0.17   0.01  -0.05    -0.09   0.02   0.01
  24   1     0.04   0.01  -0.02     0.29   0.03  -0.08     0.04   0.01  -0.01
  25   1    -0.09   0.12  -0.04    -0.40   0.47  -0.14     0.02  -0.02   0.01
  26   1    -0.10  -0.16   0.10    -0.26  -0.39   0.25    -0.01  -0.01   0.01
                     43                     44                     45
                        a                      a                      a 
 Frequencies --  1182.9979              1194.8233              1212.2459
 Red. masses --     4.5330                 5.8818                 8.7635
 Frc consts  --     0.0000                 0.0000                 0.0000
 IR Inten    --    12.1733                 0.8043                 0.6817
 Raman Activ --     0.0000                 0.0000                 0.0000
 Depolar     --     0.0000                 0.0000                 0.0000
 Atom AN      X      Y      Z        X      Y      Z        X      Y      Z
   1   7     0.01  -0.02   0.04     0.01   0.01  -0.03     0.00  -0.04   0.07
   2   6    -0.02   0.02  -0.11    -0.01  -0.02   0.06     0.00   0.05  -0.17
   3   6     0.09  -0.10   0.07    -0.01   0.03  -0.04     0.13  -0.09   0.08
   4   6    -0.13   0.16  -0.04     0.01  -0.02   0.01    -0.26   0.10   0.01
   5   6    -0.12   0.16  -0.05     0.12  -0.03  -0.01     0.01   0.08  -0.04
   6   6    -0.04   0.08  -0.03    -0.07  -0.04   0.03    -0.08  -0.21   0.12
   7   6     0.02  -0.35   0.17    -0.18   0.18  -0.05    -0.34   0.28  -0.06
   8   6    -0.12  -0.00   0.03     0.12  -0.42   0.18     0.35  -0.23   0.03
   9   6    -0.09   0.01   0.01    -0.10   0.17  -0.06     0.20   0.12  -0.11
  10   6     0.04   0.01  -0.01    -0.12   0.07  -0.01    -0.08   0.01   0.01
  11   6     0.03   0.07  -0.04     0.14   0.14  -0.10    -0.05  -0.12   0.07
  12  16    -0.02  -0.01   0.01    -0.06   0.03   0.00    -0.01   0.03  -0.01
  13  16    -0.03   0.03  -0.01     0.01  -0.02   0.01     0.05  -0.02  -0.00
  14  17     0.00   0.00   0.00     0.00  -0.00  -0.00     0.00   0.00   0.00
  15   1    -0.01  -0.03  -0.01     0.01   0.03   0.01    -0.02  -0.06  -0.02
  16   1    -0.00  -0.01  -0.02    -0.00  -0.01   0.02    -0.00   0.00  -0.04
  17   1     0.01   0.05  -0.01    -0.01  -0.02   0.01     0.02   0.07  -0.02
  18   1     0.00   0.01   0.01     0.00   0.01  -0.01     0.01   0.02   0.03
  19   1    -0.01   0.01  -0.03     0.01  -0.03   0.01    -0.01   0.07  -0.02
  20   1     0.13  -0.02   0.10    -0.07   0.01  -0.06     0.27  -0.07   0.19
  21   1     0.09  -0.03  -0.02     0.04  -0.01   0.05    -0.09   0.02  -0.12
  22   1     0.26  -0.31   0.10    -0.01   0.05  -0.02     0.14  -0.14   0.04
  23   1     0.59   0.11  -0.19    -0.07  -0.02   0.03     0.06  -0.04   0.01
  24   1     0.19   0.04  -0.06     0.56   0.13  -0.20    -0.12   0.00   0.03
  25   1     0.11  -0.12   0.03     0.21  -0.27   0.09    -0.19   0.21  -0.06
  26   1    -0.02  -0.02   0.01    -0.11  -0.17   0.11     0.03   0.02  -0.02
                     46                     47                     48
                        a                      a                      a 
 Frequencies --  1222.2524              1232.7838              1304.3955
 Red. masses --     5.2217                 2.9536                 8.5982
 Frc consts  --     0.0000                 0.0000                 0.0000
 IR Inten    --     5.1179                37.7424                 6.5580
 Raman Activ --     0.0000                 0.0000                 0.0000
 Depolar     --     0.0000                 0.0000                 0.0000
 Atom AN      X      Y      Z        X      Y      Z        X      Y      Z
   1   7     0.09   0.03  -0.12    -0.24   0.04   0.05     0.01  -0.01   0.02
   2   6    -0.08  -0.06   0.22     0.18  -0.05   0.06    -0.03   0.00  -0.03
   3   6    -0.14   0.04  -0.04    -0.04   0.04  -0.18     0.10   0.05   0.02
   4   6     0.29   0.08  -0.10     0.07   0.03   0.01    -0.12  -0.21   0.11
   5   6     0.09  -0.03  -0.00     0.04   0.02  -0.01     0.43  -0.09  -0.05
   6   6    -0.24   0.02   0.04    -0.08   0.01   0.01    -0.29   0.26  -0.06
   7   6    -0.18   0.02   0.03    -0.07   0.00   0.02    -0.07  -0.19   0.11
   8   6     0.16  -0.08   0.00     0.05  -0.03   0.00    -0.07  -0.13   0.08
   9   6     0.13   0.07  -0.06     0.04   0.03  -0.02    -0.12   0.18  -0.06
  10   6    -0.00  -0.00   0.00     0.00  -0.00   0.00     0.27  -0.03  -0.05
  11   6    -0.05  -0.09   0.06    -0.02  -0.03   0.02    -0.11  -0.16   0.10
  12  16    -0.00   0.01  -0.01    -0.00   0.00  -0.00     0.01   0.02  -0.01
  13  16    -0.03  -0.02   0.01    -0.01  -0.00   0.00     0.01   0.02  -0.01
  14  17     0.00   0.00  -0.00    -0.00   0.00   0.00    -0.00  -0.00   0.00
  15   1     0.01   0.14   0.03     0.08  -0.15   0.02    -0.04   0.00  -0.02
  16   1    -0.01  -0.07   0.05     0.05   0.20   0.03    -0.00   0.00  -0.03
  17   1    -0.05  -0.04   0.04     0.07  -0.08  -0.06    -0.00  -0.01   0.01
  18   1     0.06   0.14   0.02    -0.21  -0.50  -0.23     0.00   0.02   0.00
  19   1    -0.05  -0.27  -0.09     0.15   0.40   0.30     0.04   0.06   0.06
  20   1    -0.37   0.12  -0.24    -0.07  -0.02  -0.10    -0.03  -0.02  -0.04
  21   1     0.23  -0.06   0.17     0.25  -0.07   0.18    -0.21   0.07  -0.09
  22   1     0.19  -0.20   0.05     0.06  -0.05   0.01    -0.12   0.28  -0.11
  23   1     0.19   0.05  -0.07     0.07   0.02  -0.03     0.15   0.11  -0.09
  24   1    -0.12  -0.01   0.03    -0.03   0.00   0.01     0.08   0.07  -0.05
  25   1    -0.13   0.16  -0.05    -0.04   0.05  -0.02    -0.08   0.19  -0.08
  26   1     0.04   0.05  -0.03     0.01   0.02  -0.01     0.09   0.12  -0.08
                     49                     50                     51
                        a                      a                      a 
 Frequencies --  1322.8079              1326.4611              1337.7851
 Red. masses --     4.0128                 8.7792                 4.9623
 Frc consts  --     0.0000                 0.0000                 0.0000
 IR Inten    --    24.3665                 1.7430                 3.2531
 Raman Activ --     0.0000                 0.0000                 0.0000
 Depolar     --     0.0000                 0.0000                 0.0000
 Atom AN      X      Y      Z        X      Y      Z        X      Y      Z
   1   7    -0.02   0.16  -0.08     0.01  -0.00   0.02    -0.02   0.04  -0.06
   2   6     0.12   0.25   0.26    -0.05  -0.01  -0.03     0.18   0.06   0.10
   3   6     0.20  -0.14   0.10     0.15  -0.00   0.05    -0.37   0.08  -0.20
   4   6    -0.10  -0.01   0.01    -0.09  -0.08   0.04     0.01  -0.04   0.08
   5   6    -0.04   0.07  -0.03     0.25  -0.04  -0.04     0.20  -0.11   0.01
   6   6     0.05  -0.02   0.00    -0.28   0.08   0.03    -0.17   0.09  -0.01
   7   6    -0.01  -0.00   0.00    -0.04  -0.07   0.04    -0.01  -0.05   0.03
   8   6     0.00  -0.01   0.00     0.08   0.15  -0.10     0.00   0.03  -0.01
   9   6    -0.01   0.00  -0.00     0.38  -0.19   0.01     0.09  -0.03  -0.01
  10   6     0.01  -0.00  -0.00    -0.44   0.09   0.06    -0.09   0.02   0.01
  11   6    -0.00  -0.00   0.00     0.16   0.17  -0.12     0.03   0.02  -0.02
  12  16    -0.00   0.00  -0.00    -0.02  -0.03   0.02    -0.00  -0.01   0.00
  13  16     0.01  -0.00  -0.00     0.01   0.01  -0.01     0.00   0.01  -0.01
  14  17    -0.00   0.00  -0.00     0.00  -0.00   0.00    -0.00  -0.00  -0.00
  15   1     0.04  -0.12  -0.08    -0.02  -0.01  -0.01     0.03   0.00  -0.01
  16   1    -0.05  -0.09   0.08    -0.01  -0.01  -0.02     0.01   0.01   0.04
  17   1    -0.05  -0.20   0.06     0.00  -0.01   0.01    -0.02  -0.06   0.01
  18   1    -0.20  -0.37  -0.38    -0.00   0.02  -0.01    -0.01  -0.09  -0.01
  19   1    -0.18  -0.32  -0.28     0.05   0.07   0.08    -0.16  -0.23  -0.25
  20   1    -0.11   0.00  -0.08    -0.13   0.01  -0.11     0.48  -0.09   0.36
  21   1    -0.21   0.04  -0.21    -0.15   0.05  -0.08     0.23  -0.07   0.17
  22   1     0.01  -0.02  -0.00    -0.02   0.10  -0.05    -0.06   0.12  -0.04
  23   1     0.01  -0.01  -0.00     0.14   0.06  -0.06     0.05   0.04  -0.03
  24   1     0.01   0.00   0.00    -0.20  -0.11   0.10    -0.05  -0.02   0.02
  25   1    -0.00   0.01   0.00     0.07  -0.23   0.10     0.01  -0.04   0.02
  26   1     0.00   0.00  -0.00    -0.12  -0.17   0.11    -0.02  -0.03   0.02
                     52                     53                     54
                        a                      a                      a 
 Frequencies --  1379.2857              1402.4311              1433.3694
 Red. masses --     2.4254                 1.7348                 1.9493
 Frc consts  --     0.0000                 0.0000                 0.0000
 IR Inten    --   124.6252                89.9692                89.3854
 Raman Activ --     0.0000                 0.0000                 0.0000
 Depolar     --     0.0000                 0.0000                 0.0000
 Atom AN      X      Y      Z        X      Y      Z        X      Y      Z
   1   7     0.16   0.26   0.02    -0.10   0.17  -0.09    -0.03   0.18   0.19
   2   6    -0.02  -0.06  -0.10    -0.07  -0.02  -0.06    -0.03  -0.00   0.01
   3   6    -0.06   0.05  -0.00     0.01   0.01   0.00    -0.03   0.02  -0.01
   4   6     0.03   0.02  -0.01    -0.01   0.00   0.00     0.02  -0.02   0.00
   5   6    -0.01  -0.02   0.01     0.02  -0.02   0.01    -0.01   0.01  -0.01
   6   6    -0.00  -0.01   0.00    -0.02   0.01  -0.00     0.01  -0.00  -0.00
   7   6     0.01   0.01  -0.01     0.01  -0.01   0.00    -0.01   0.00   0.00
   8   6     0.00  -0.00   0.00    -0.00   0.00   0.00     0.01   0.00  -0.00
   9   6    -0.01   0.00   0.00    -0.00   0.00  -0.00    -0.01  -0.00   0.00
  10   6     0.01  -0.00  -0.00     0.01   0.00  -0.00     0.00  -0.01   0.00
  11   6    -0.00  -0.00   0.00    -0.00  -0.00   0.00    -0.00   0.01  -0.00
  12  16     0.00   0.00  -0.00    -0.00   0.00  -0.00     0.00   0.00  -0.00
  13  16    -0.00   0.00   0.00     0.00   0.00  -0.00     0.00   0.00   0.00
  14  17     0.00   0.01   0.00    -0.01   0.00   0.01     0.00   0.00   0.00
  15   1    -0.26  -0.43  -0.41     0.60  -0.34   0.14    -0.05   0.04   0.02
  16   1    -0.08  -0.19   0.09    -0.19  -0.45   0.37    -0.24  -0.23  -0.57
  17   1    -0.30  -0.39   0.33     0.16   0.08  -0.15     0.48  -0.43  -0.24
  18   1     0.04   0.05   0.14     0.03   0.09   0.08     0.00   0.01   0.07
  19   1     0.09   0.09   0.11     0.05   0.02   0.04     0.04  -0.07   0.01
  20   1     0.02  -0.05  -0.01     0.01   0.01   0.01     0.00  -0.02  -0.00
  21   1     0.09  -0.01   0.01    -0.01   0.00   0.03     0.03  -0.00   0.01
  22   1     0.01  -0.02   0.00    -0.02   0.01  -0.02     0.01  -0.01   0.01
  23   1    -0.01  -0.01  -0.00     0.00   0.00  -0.01    -0.00  -0.00   0.00
  24   1     0.00   0.00   0.00     0.00   0.00   0.00     0.00   0.00  -0.00
  25   1    -0.00   0.01   0.00    -0.00   0.01  -0.00    -0.00   0.00  -0.00
  26   1     0.00   0.00  -0.00     0.00   0.01  -0.01    -0.00   0.00  -0.00
                     55                     56                     57
                        a                      a                      a 
 Frequencies --  1455.5769              1462.2888              1480.0138
 Red. masses --    11.7650                 2.0377                10.5436
 Frc consts  --     0.0000                 0.0000                 0.0000
 IR Inten    --    25.5372                14.3361                 3.4365
 Raman Activ --     0.0000                 0.0000                 0.0000
 Depolar     --     0.0000                 0.0000                 0.0000
 Atom AN      X      Y      Z        X      Y      Z        X      Y      Z
   1   7    -0.00  -0.01  -0.00    -0.01  -0.02  -0.01     0.00   0.00   0.00
   2   6     0.00   0.00   0.00     0.00  -0.02   0.04     0.02  -0.07   0.05
   3   6     0.01  -0.00   0.01    -0.10   0.17   0.19    -0.09   0.08  -0.00
   4   6    -0.05   0.04  -0.01    -0.01   0.05  -0.01     0.17  -0.33   0.12
   5   6     0.09  -0.05   0.00     0.02  -0.05   0.02    -0.10   0.25  -0.10
   6   6    -0.22  -0.07   0.09    -0.04  -0.02   0.02     0.36   0.21  -0.19
   7   6     0.03   0.09  -0.05     0.06   0.02  -0.02    -0.47  -0.20   0.21
   8   6     0.41   0.18  -0.19    -0.04  -0.01   0.01     0.16  -0.01  -0.03
   9   6    -0.40  -0.16   0.17     0.01   0.01  -0.01     0.05   0.00  -0.01
  10   6     0.18  -0.44   0.18    -0.00   0.03  -0.01    -0.02  -0.15   0.08
  11   6    -0.06   0.38  -0.18     0.00  -0.03   0.01    -0.00   0.15  -0.07
  12  16    -0.00   0.01  -0.00     0.00   0.00  -0.00    -0.00  -0.00   0.00
  13  16     0.01   0.01  -0.00     0.00   0.00  -0.00    -0.00  -0.01   0.00
  14  17    -0.00  -0.00   0.00    -0.00  -0.00   0.00    -0.00   0.00   0.00
  15   1     0.00   0.01   0.00     0.03   0.03   0.04     0.01  -0.03  -0.01
  16   1     0.00   0.01   0.01     0.00  -0.00   0.01    -0.01  -0.02   0.01
  17   1    -0.00   0.01   0.00     0.02   0.03  -0.02    -0.00  -0.01   0.00
  18   1    -0.00  -0.01  -0.00     0.03   0.07  -0.06     0.08   0.15  -0.16
  19   1     0.00  -0.00  -0.00    -0.07   0.05  -0.02    -0.17   0.16  -0.04
  20   1     0.00  -0.02  -0.01    -0.02  -0.63  -0.21     0.02  -0.05   0.01
  21   1     0.01  -0.00  -0.02     0.39  -0.00  -0.54    -0.02   0.02  -0.04
  22   1     0.01   0.01  -0.01    -0.02   0.02  -0.01     0.03   0.01  -0.01
  23   1     0.05  -0.00  -0.01     0.00  -0.00   0.00    -0.08   0.04  -0.00
  24   1     0.06  -0.03  -0.00     0.00   0.00  -0.00    -0.04  -0.01   0.01
  25   1    -0.08   0.02   0.01     0.01  -0.00  -0.00    -0.05   0.01   0.01
  26   1    -0.08   0.03   0.00     0.01   0.00  -0.00    -0.04  -0.01   0.01
                     58                     59                     60
                        a                      a                      a 
 Frequencies --  1486.9865              1554.0099              1578.6751
 Red. masses --     3.0155                11.3562                11.5417
 Frc consts  --     0.0000                 0.0000                 0.0000
 IR Inten    --    14.9503                 0.4363                 1.6750
 Raman Activ --     0.0000                 0.0000                 0.0000
 Depolar     --     0.0000                 0.0000                 0.0000
 Atom AN      X      Y      Z        X      Y      Z        X      Y      Z
   1   7     0.00   0.02   0.03     0.00  -0.00  -0.00    -0.00   0.00   0.00
   2   6     0.08  -0.19   0.16    -0.00   0.00  -0.01     0.01  -0.00   0.01
   3   6     0.04  -0.05  -0.03    -0.05   0.05  -0.01     0.08  -0.08   0.01
   4   6    -0.07   0.10  -0.04     0.09  -0.25   0.11    -0.16   0.47  -0.20
   5   6     0.03  -0.07   0.03    -0.02   0.22  -0.10     0.08  -0.44   0.20
   6   6    -0.14  -0.09   0.07    -0.10  -0.06   0.05     0.22   0.21  -0.15
   7   6     0.18   0.08  -0.08    -0.03   0.05  -0.02    -0.31  -0.17   0.16
   8   6    -0.05   0.01   0.01     0.33   0.21  -0.18     0.23   0.09  -0.10
   9   6    -0.03  -0.00   0.01    -0.30  -0.25   0.20    -0.10  -0.11   0.08
  10   6     0.01   0.05  -0.03    -0.05   0.43  -0.20    -0.04   0.15  -0.07
  11   6     0.00  -0.05   0.03     0.01  -0.36   0.18     0.00  -0.12   0.06
  12  16     0.00   0.00  -0.00    -0.00   0.00  -0.00    -0.00   0.00   0.00
  13  16     0.00   0.00  -0.00    -0.00   0.00   0.00     0.01   0.00  -0.00
  14  17     0.00   0.00   0.00    -0.00   0.00   0.00     0.00   0.00  -0.00
  15   1    -0.02  -0.05  -0.03     0.00  -0.00   0.00    -0.01   0.00  -0.00
  16   1    -0.03  -0.05  -0.04     0.00   0.00   0.01    -0.00  -0.00  -0.02
  17   1     0.03  -0.06  -0.00    -0.00   0.01   0.00     0.01  -0.01  -0.00
  18   1     0.20   0.34  -0.47    -0.00  -0.00   0.01     0.00   0.00  -0.02
  19   1    -0.46   0.42  -0.10     0.01  -0.01   0.00    -0.01   0.01  -0.00
  20   1     0.00   0.10   0.03     0.01  -0.02   0.01    -0.02   0.02  -0.01
  21   1    -0.04  -0.01   0.10    -0.03   0.01  -0.01     0.06  -0.02   0.01
  22   1    -0.00  -0.01   0.00     0.06  -0.01  -0.01    -0.12   0.04   0.01
  23   1     0.03  -0.02  -0.00     0.05  -0.00  -0.01    -0.11   0.04   0.01
  24   1     0.02   0.00  -0.00     0.14  -0.04  -0.01     0.05  -0.02  -0.00
  25   1     0.02  -0.00  -0.00     0.13  -0.06  -0.00     0.05  -0.02   0.00
  26   1     0.01   0.00  -0.01     0.08  -0.02  -0.01     0.02  -0.01   0.00
                     61                     62                     63
                        a                      a                      a 
 Frequencies --  2886.3454              2939.7367              2946.1153
 Red. masses --     1.9724                 1.9476                 1.9370
 Frc consts  --     0.0000                 0.0000                 0.0000
 IR Inten    --  1300.6490                 2.8195                 3.9717
 Raman Activ --     0.0000                 0.0000                 0.0000
 Depolar     --     0.0000                 0.0000                 0.0000
 Atom AN      X      Y      Z        X      Y      Z        X      Y      Z
   1   7    -0.12  -0.10   0.22     0.01   0.01  -0.01    -0.01  -0.01   0.02
   2   6     0.02   0.00  -0.03     0.17  -0.00  -0.10    -0.19   0.03   0.08
   3   6     0.01   0.01  -0.00    -0.10  -0.17   0.08    -0.08  -0.18   0.03
   4   6     0.00   0.00   0.00    -0.00  -0.00   0.00    -0.00  -0.01   0.00
   5   6     0.01   0.01  -0.01     0.00   0.00  -0.00     0.00   0.00  -0.00
   6   6    -0.00  -0.00   0.00    -0.00  -0.00   0.00    -0.00   0.00   0.00
   7   6     0.00  -0.00  -0.00    -0.00  -0.00   0.00    -0.00   0.00   0.00
   8   6     0.00   0.00   0.00    -0.00   0.00  -0.00     0.00   0.00  -0.00
   9   6    -0.00  -0.00   0.00    -0.00  -0.00   0.00    -0.00   0.00  -0.00
  10   6     0.00   0.00  -0.00    -0.00  -0.00   0.00     0.00   0.00  -0.00
  11   6     0.00   0.00  -0.00     0.00   0.00  -0.00    -0.00   0.00  -0.00
  12  16    -0.00   0.00  -0.00    -0.00  -0.00   0.00    -0.00   0.00  -0.00
  13  16    -0.00  -0.00   0.00     0.00   0.00   0.00     0.00   0.00   0.00
  14  17     0.00   0.00  -0.01    -0.00  -0.00   0.00     0.00   0.00  -0.00
  15   1     0.43   0.39  -0.76    -0.02  -0.02   0.04     0.03   0.03  -0.06
  16   1     0.04  -0.03   0.01     0.01  -0.00  -0.00    -0.00   0.00   0.00
  17   1    -0.02  -0.01  -0.00     0.00   0.00   0.00    -0.00  -0.00  -0.00
  18   1    -0.01   0.01  -0.01    -0.35   0.20  -0.01     0.50  -0.27   0.00
  19   1    -0.07  -0.04   0.10    -0.27  -0.20   0.39     0.19   0.15  -0.28
  20   1    -0.01  -0.00   0.01     0.29   0.11  -0.38     0.14   0.04  -0.18
  21   1    -0.00  -0.03  -0.00     0.09   0.48   0.06     0.12   0.61   0.07
  22   1    -0.03  -0.02   0.02    -0.01  -0.00   0.00    -0.01  -0.00   0.00
  23   1    -0.00   0.00  -0.00    -0.00   0.00  -0.00     0.00   0.00  -0.00
  24   1    -0.00   0.00  -0.00     0.00   0.00   0.00     0.00  -0.00   0.00
  25   1    -0.00  -0.00   0.00     0.00   0.00   0.00    -0.00   0.00   0.00
  26   1     0.00  -0.00  -0.00    -0.00  -0.00   0.00     0.00  -0.00  -0.00
                     64                     65                     66
                        a                      a                      a 
 Frequencies --  2967.0462              2970.5674              3065.4997
 Red. masses --     1.5380                 1.5586                 1.8936
 Frc consts  --     0.0000                 0.0000                 0.0000
 IR Inten    --    11.9204                 6.6165               234.0735
 Raman Activ --     0.0000                 0.0000                 0.0000
 Depolar     --     0.0000                 0.0000                 0.0000
 Atom AN      X      Y      Z        X      Y      Z        X      Y      Z
   1   7    -0.00  -0.00   0.01     0.02   0.01  -0.02     0.01   0.00  -0.01
   2   6     0.07  -0.07   0.03    -0.02   0.13  -0.14    -0.00   0.00  -0.00
   3   6     0.08  -0.09  -0.15     0.06   0.00  -0.09     0.00   0.00  -0.00
   4   6     0.01  -0.00  -0.00     0.00  -0.00  -0.00     0.01  -0.01   0.00
   5   6    -0.00  -0.00   0.00    -0.00  -0.00   0.00     0.21   0.14  -0.12
   6   6    -0.00   0.00  -0.00     0.00   0.00  -0.00     0.00  -0.02   0.01
   7   6    -0.00   0.00  -0.00    -0.00   0.00  -0.00    -0.00  -0.00   0.00
   8   6     0.00  -0.00  -0.00    -0.00  -0.00   0.00     0.00  -0.00   0.00
   9   6    -0.00  -0.00   0.00    -0.00  -0.00  -0.00    -0.00   0.00  -0.00
  10   6    -0.00  -0.00   0.00    -0.00  -0.00   0.00    -0.01  -0.00   0.00
  11   6    -0.00   0.00  -0.00     0.00  -0.00   0.00    -0.00  -0.00   0.00
  12  16    -0.00  -0.00  -0.00     0.00  -0.00   0.00     0.00   0.00  -0.00
  13  16    -0.00  -0.00   0.00    -0.00   0.00  -0.00    -0.00  -0.00   0.00
  14  17     0.00   0.00  -0.00     0.00  -0.00   0.00    -0.00   0.00  -0.00
  15   1     0.01   0.01  -0.02    -0.04  -0.03   0.07    -0.02  -0.02   0.03
  16   1     0.01  -0.01  -0.00    -0.02   0.01   0.00    -0.01   0.00  -0.00
  17   1    -0.00  -0.00  -0.00     0.00   0.00  -0.00    -0.00  -0.00  -0.00
  18   1    -0.37   0.19   0.01     0.46  -0.23  -0.03     0.00  -0.00   0.00
  19   1     0.12   0.07  -0.14    -0.39  -0.25   0.51    -0.00  -0.00   0.00
  20   1    -0.40  -0.19   0.51    -0.25  -0.12   0.32    -0.01  -0.00   0.01
  21   1     0.12   0.51   0.03     0.03   0.11  -0.00    -0.00  -0.00  -0.00
  22   1     0.01   0.00  -0.00     0.01   0.01  -0.01    -0.73  -0.47   0.39
  23   1     0.00  -0.00   0.00     0.00  -0.00   0.00    -0.03   0.10  -0.04
  24   1    -0.00   0.00  -0.00    -0.00   0.00  -0.00     0.00  -0.00   0.00
  25   1     0.00   0.00  -0.00     0.00   0.00  -0.00     0.02   0.01  -0.01
  26   1     0.00  -0.00  -0.00    -0.00   0.00  -0.00    -0.00   0.00  -0.00
                     67                     68                     69
                        a                      a                      a 
 Frequencies --  3071.9325              3091.8750              3095.7661
 Red. masses --     1.8269                 1.8714                 1.8693
 Frc consts  --     0.0000                 0.0000                 0.0000
 IR Inten    --    19.2609                15.0807                21.3993
 Raman Activ --     0.0000                 0.0000                 0.0000
 Depolar     --     0.0000                 0.0000                 0.0000
 Atom AN      X      Y      Z        X      Y      Z        X      Y      Z
   1   7     0.00   0.00  -0.00     0.00  -0.00   0.00     0.00   0.00   0.00
   2   6     0.00  -0.00  -0.00    -0.00   0.00   0.00     0.00   0.00  -0.00
   3   6     0.00  -0.00  -0.00    -0.00  -0.00   0.00    -0.00   0.00   0.00
   4   6     0.00  -0.00  -0.00     0.00  -0.00   0.00     0.00  -0.00   0.00
   5   6     0.01   0.00  -0.00     0.01   0.00  -0.00     0.03   0.02  -0.02
   6   6     0.00  -0.00   0.00    -0.01   0.04  -0.02    -0.07   0.24  -0.11
   7   6     0.00   0.00  -0.00    -0.00  -0.00   0.00    -0.01   0.00   0.00
   8   6     0.00  -0.00   0.00     0.01  -0.00  -0.00    -0.00   0.00   0.00
   9   6     0.01  -0.05   0.02     0.07  -0.24   0.10    -0.01   0.04  -0.02
  10   6     0.20   0.13  -0.11    -0.06  -0.03   0.03     0.01   0.01  -0.00
  11   6    -0.01   0.01  -0.00     0.01  -0.01   0.00    -0.00   0.00   0.00
  12  16    -0.00  -0.00   0.00     0.00   0.00  -0.00     0.00  -0.00   0.00
  13  16    -0.00   0.00   0.00    -0.00   0.00   0.00     0.00  -0.00   0.00
  14  17     0.00   0.00  -0.00    -0.00   0.00  -0.00    -0.00  -0.00   0.00
  15   1    -0.00  -0.00   0.00     0.00  -0.00   0.00    -0.00  -0.00   0.00
  16   1     0.00  -0.00  -0.00    -0.00   0.00   0.00     0.00   0.00  -0.00
  17   1     0.00   0.00   0.00    -0.00  -0.00  -0.00    -0.00  -0.00  -0.00
  18   1    -0.00   0.00   0.00     0.00  -0.00  -0.00     0.00  -0.00   0.00
  19   1    -0.00  -0.00   0.00     0.00   0.00  -0.00    -0.00  -0.00   0.00
  20   1    -0.00  -0.00   0.00     0.00   0.00  -0.00     0.00   0.00  -0.00
  21   1     0.00   0.00   0.00    -0.00   0.00   0.00    -0.00  -0.00  -0.00
  22   1    -0.02  -0.01   0.01    -0.01  -0.01   0.01    -0.08  -0.05   0.04
  23   1    -0.00   0.00  -0.00     0.04  -0.14   0.06     0.24  -0.84   0.36
  24   1    -0.06   0.21  -0.09    -0.23   0.82  -0.35     0.04  -0.13   0.06
  25   1    -0.71  -0.46   0.39     0.17   0.11  -0.09    -0.03  -0.02   0.02
  26   1     0.08  -0.05   0.01    -0.05   0.03  -0.00     0.01  -0.01   0.00
                     70                     71                     72
                        a                      a                      a 
 Frequencies --  3133.5036              3188.3903              3204.7307
 Red. masses --     1.8867                 1.9340                 1.5935
 Frc consts  --     0.0000                 0.0000                 0.0000
 IR Inten    --     3.0331                43.6208                27.1612
 Raman Activ --     0.0000                 0.0000                 0.0000
 Depolar     --     0.0000                 0.0000                 0.0000
 Atom AN      X      Y      Z        X      Y      Z        X      Y      Z
   1   7    -0.00   0.00  -0.00    -0.20  -0.01  -0.17     0.15  -0.12  -0.08
   2   6    -0.00  -0.00   0.00    -0.00   0.00  -0.00     0.00  -0.01  -0.00
   3   6    -0.00  -0.00   0.00     0.00  -0.00   0.00     0.00  -0.00   0.00
   4   6    -0.00  -0.00   0.00     0.00  -0.00   0.00    -0.00   0.00  -0.00
   5   6     0.00   0.00  -0.00     0.00   0.00  -0.00    -0.00  -0.00   0.00
   6   6     0.00   0.00  -0.00    -0.00   0.00  -0.00     0.00   0.00  -0.00
   7   6    -0.00  -0.00   0.00    -0.00   0.00  -0.00     0.00  -0.00   0.00
   8   6    -0.00   0.00  -0.00    -0.00   0.00  -0.00     0.00  -0.00   0.00
   9   6    -0.01   0.01  -0.00     0.00  -0.00   0.00    -0.00   0.00  -0.00
  10   6     0.03   0.02  -0.02    -0.00  -0.00   0.00     0.00   0.00  -0.00
  11   6     0.23  -0.16   0.03    -0.00   0.00  -0.00     0.00  -0.00   0.00
  12  16    -0.00  -0.00   0.00     0.00  -0.00  -0.00    -0.00   0.00   0.00
  13  16     0.00   0.00  -0.00     0.00  -0.00   0.00     0.00   0.00  -0.00
  14  17    -0.00   0.00   0.00    -0.00  -0.00   0.00    -0.00  -0.00   0.00
  15   1    -0.00   0.00  -0.00    -0.01   0.01  -0.02     0.04   0.02  -0.06
  16   1     0.00  -0.00  -0.00     0.24  -0.13  -0.06    -0.82   0.42   0.13
  17   1     0.00   0.00   0.00     0.54   0.15   0.73     0.19   0.04   0.23
  18   1     0.00   0.00  -0.00     0.01  -0.00   0.00    -0.02   0.01   0.00
  19   1     0.00   0.00  -0.00     0.00   0.00  -0.00     0.00   0.01  -0.01
  20   1     0.00   0.00  -0.00    -0.00  -0.00   0.00     0.00  -0.00  -0.00
  21   1     0.00   0.00   0.00     0.00   0.00  -0.00     0.00   0.01   0.00
  22   1    -0.00  -0.00   0.00    -0.00  -0.00   0.00     0.00   0.00  -0.00
  23   1     0.00  -0.00   0.00     0.00  -0.00   0.00     0.00  -0.00   0.00
  24   1     0.01  -0.03   0.01    -0.00   0.00  -0.00     0.00  -0.00   0.00
  25   1    -0.08  -0.05   0.04     0.00   0.00  -0.00    -0.00  -0.00   0.00
  26   1    -0.80   0.52  -0.07     0.00  -0.00   0.00    -0.00   0.00   0.00
