 Entering Gaussian System
 *********************************************
 Gaussian 98:
 frequency output generated by the xtb code
 *********************************************
                         Standard orientation:
 --------------------------------------------------------------------
  Center     Atomic     Atomic              Coordinates (Angstroms)
  Number     Number      Type              X           Y           Z
 --------------------------------------------------------------------
    1          7             0       -1.429991    1.839857   -0.106618
    2          6             0       -0.633526    1.602601   -1.339851
    3          6             0        0.591640    0.702015   -1.116383
    4          6             0        0.204824   -0.732562   -0.687660
    5          6             0        1.449340   -1.628119   -0.561662
    6          6             0        2.460866   -1.028042    0.431063
    7          6             0        2.841123    0.410525    0.036269
    8          6             0        1.589117    1.295812   -0.094458
    9         17             0       -2.661441   -1.109854    1.339621
   10          1             0       -0.867016    2.306316    0.621509
   11          1             0       -1.780974    0.952870    0.297035
   12          1             0       -2.253348    2.440312   -0.288586
   13          1             0       -0.308283    2.566869   -1.748454
   14          1             0       -1.278371    1.157203   -2.106758
   15          1             0        1.131566    0.612741   -2.074685
   16          1             0       -0.527291   -1.157400   -1.386916
   17          1             0       -0.304303   -0.687438    0.280972
   18          1             0        1.923566   -1.731773   -1.545884
   19          1             0        1.167205   -2.648127   -0.264609
   20          1             0        3.356113   -1.661247    0.505901
   21          1             0        2.022270   -1.023938    1.437165
   22          1             0        3.376609    0.395051   -0.921473
   23          1             0        3.548647    0.840363    0.759216
   24          1             0        1.852011    2.325560   -0.370471
   25          1             0        1.096880    1.368756    0.881414
 --------------------------------------------------------------------
     1 basis functions        1 primitive gaussians
     1 alpha electrons        1 beta electrons

 Harmonic frequencies (cm**-1), IR intensities (km*mol⁻¹),
 Raman scattering activities (A**4/amu), Raman depolarization ratios,
 reduced masses (AMU), force constants (mDyne/A) and normal coordinates:
                      1                      2                      3
                        a                      a                      a 
 Frequencies --  -123.2797                59.4580               101.9990
 Red. masses --    22.3132                19.6754                16.9199
 Frc consts  --     0.0000                 0.0000                 0.0000
 IR Inten    --   121.2438                13.3538                12.1154
 Raman Activ --     0.0000                 0.0000                 0.0000
 Depolar     --     0.0000                 0.0000                 0.0000
 Atom AN      X      Y      Z        X      Y      Z        X      Y      Z
   1   7    -0.21  -0.46   0.22     0.01  -0.11   0.14    -0.01   0.00   0.07
   2   6    -0.15  -0.15   0.18     0.02  -0.03   0.12     0.01   0.12   0.05
   3   6    -0.06  -0.05   0.05     0.03  -0.02   0.04    -0.06   0.02   0.01
   4   6     0.05  -0.09   0.01     0.08   0.03   0.25    -0.20   0.14   0.27
   5   6     0.09  -0.03  -0.03     0.09   0.02   0.11    -0.31  -0.01   0.31
   6   6     0.06  -0.00  -0.02     0.27   0.09  -0.10    -0.16   0.03   0.14
   7   6    -0.01   0.02  -0.01     0.21   0.06  -0.28     0.01  -0.10  -0.16
   8   6    -0.04  -0.03   0.03     0.20   0.07  -0.17     0.13   0.06  -0.20
   9  17     0.21   0.57  -0.31    -0.62  -0.07  -0.08     0.40  -0.18  -0.33
  10   1    -0.07  -0.15   0.08     0.02  -0.11   0.07     0.00  -0.04   0.04
  11   1    -0.07  -0.15   0.03    -0.07  -0.03  -0.02    -0.00  -0.02  -0.03
  12   1    -0.06  -0.12   0.08     0.04   0.04   0.06     0.01   0.02   0.04
  13   1    -0.07  -0.01   0.09     0.00  -0.00   0.05     0.02   0.04   0.05
  14   1    -0.03  -0.03   0.03     0.00   0.00   0.03    -0.00   0.07  -0.00
  15   1    -0.03   0.01   0.01    -0.03  -0.04  -0.01    -0.05  -0.05  -0.01
  16   1     0.01  -0.03   0.00    -0.02  -0.01   0.12    -0.09   0.03   0.12
  17   1     0.02  -0.04   0.01     0.08   0.04   0.10    -0.03   0.09   0.09
  18   1     0.02   0.00  -0.01    -0.02  -0.02   0.01    -0.11  -0.07   0.09
  19   1     0.04  -0.02  -0.02     0.04   0.01   0.07    -0.12   0.02   0.15
  20   1     0.03   0.01  -0.01     0.08   0.03  -0.06    -0.07  -0.02   0.05
  21   1     0.02  -0.01  -0.01     0.13   0.05  -0.01    -0.02   0.08   0.05
  22   1    -0.01   0.01  -0.01     0.02  -0.01  -0.10    -0.02  -0.10  -0.06
  23   1    -0.00   0.01  -0.00     0.09   0.03  -0.12     0.04  -0.02  -0.09
  24   1    -0.03  -0.01   0.01     0.05   0.01  -0.09     0.07  -0.01  -0.12
  25   1    -0.01  -0.01   0.01     0.10   0.05  -0.03     0.07   0.10  -0.05
                      4                      5                      6
                        a                      a                      a 
 Frequencies --   145.2270               166.2682               254.3315
 Red. masses --    11.8569                 9.3684                 6.4075
 Frc consts  --     0.0000                 0.0000                 0.0000
 IR Inten    --    10.5692                14.2759                 1.5193
 Raman Activ --     0.0000                 0.0000                 0.0000
 Depolar     --     0.0000                 0.0000                 0.0000
 Atom AN      X      Y      Z        X      Y      Z        X      Y      Z
   1   7    -0.11  -0.45  -0.05    -0.37  -0.08  -0.38     0.11  -0.12  -0.02
   2   6     0.14   0.17  -0.01     0.13   0.12  -0.08     0.14   0.14  -0.03
   3   6     0.16   0.17  -0.16     0.04   0.07   0.20     0.04   0.02  -0.02
   4   6     0.05   0.17  -0.25    -0.06   0.12   0.27    -0.04  -0.04  -0.26
   5   6    -0.06   0.07  -0.05    -0.11   0.01  -0.06    -0.10  -0.08   0.29
   6   6    -0.21   0.00   0.14     0.17  -0.14  -0.24     0.08   0.15  -0.01
   7   6     0.05  -0.09   0.08     0.07  -0.05  -0.02    -0.03   0.09  -0.28
   8   6     0.21   0.10  -0.16     0.04  -0.04   0.26    -0.20  -0.13   0.27
   9  17    -0.13  -0.05   0.30     0.08   0.02   0.08    -0.00   0.01   0.03
  10   1    -0.09  -0.15   0.05    -0.21   0.04  -0.06     0.06  -0.16   0.06
  11   1     0.00  -0.17  -0.08    -0.04  -0.04  -0.10    -0.05  -0.04  -0.10
  12   1    -0.06  -0.15   0.00    -0.14  -0.10  -0.18     0.08   0.06   0.04
  13   1     0.03   0.11   0.13     0.08   0.05   0.05     0.08   0.06   0.07
  14   1     0.09   0.12  -0.09     0.12   0.06  -0.11     0.05   0.11  -0.06
  15   1     0.04   0.06  -0.05     0.04  -0.01   0.07     0.06   0.05   0.02
  16   1     0.03   0.07  -0.10    -0.08   0.05   0.13     0.09  -0.02  -0.17
  17   1    -0.02   0.05  -0.09     0.05   0.05   0.11    -0.14  -0.03  -0.14
  18   1     0.03   0.01   0.01    -0.10   0.01  -0.05    -0.03  -0.18   0.10
  19   1    -0.06   0.03  -0.03    -0.03   0.00  -0.01    -0.07   0.03   0.22
  20   1    -0.09  -0.03   0.11     0.06  -0.04  -0.17     0.02   0.04  -0.03
  21   1    -0.13   0.04   0.01     0.13  -0.10  -0.03     0.09   0.10   0.03
  22   1     0.05  -0.07   0.04    -0.01   0.04  -0.03    -0.14   0.02  -0.15
  23   1     0.01  -0.03   0.04     0.04  -0.05  -0.01     0.08   0.04  -0.18
  24   1     0.12   0.00  -0.08     0.00   0.00   0.12    -0.15   0.03   0.22
  25   1     0.04   0.10  -0.06     0.02  -0.06   0.08    -0.05  -0.23   0.09
                      7                      8                      9
                        a                      a                      a 
 Frequencies --   261.9614               291.3339               327.8330
 Red. masses --     7.4418                 5.4307                 5.9270
 Frc consts  --     0.0000                 0.0000                 0.0000
 IR Inten    --    14.8053                 6.1811                 0.4296
 Raman Activ --     0.0000                 0.0000                 0.0000
 Depolar     --     0.0000                 0.0000                 0.0000
 Atom AN      X      Y      Z        X      Y      Z        X      Y      Z
   1   7     0.38  -0.28  -0.03    -0.28   0.20  -0.09    -0.12   0.03  -0.07
   2   6     0.11  -0.04  -0.19     0.06   0.21   0.10    -0.24  -0.30  -0.08
   3   6     0.01  -0.06  -0.07    -0.14  -0.14   0.02     0.14   0.24   0.09
   4   6    -0.13   0.08   0.22     0.01  -0.20  -0.00     0.12   0.21  -0.07
   5   6    -0.14   0.07  -0.11     0.19  -0.01  -0.07    -0.07   0.00  -0.01
   6   6    -0.03   0.01  -0.17     0.01  -0.00   0.11    -0.07  -0.09   0.02
   7   6    -0.14   0.16   0.21     0.01  -0.04   0.03     0.05  -0.13  -0.06
   8   6    -0.17   0.08   0.01    -0.01  -0.10  -0.13     0.16   0.12   0.18
   9  17     0.02   0.01   0.04     0.09   0.00   0.05     0.05  -0.02   0.02
  10   1     0.23  -0.33   0.06    -0.02  -0.29   0.15     0.10  -0.24   0.04
  11   1    -0.08  -0.07  -0.15    -0.39   0.09  -0.24    -0.30   0.08  -0.11
  12   1     0.22   0.13   0.13     0.15   0.36  -0.01     0.16   0.28   0.02
  13   1     0.04  -0.00  -0.02     0.15   0.06   0.14    -0.22  -0.11  -0.19
  14   1     0.01   0.02  -0.06     0.03   0.20  -0.06    -0.05  -0.29   0.08
  15   1     0.04  -0.08   0.01    -0.07  -0.04  -0.02     0.06   0.11   0.03
  16   1    -0.12   0.02   0.15     0.02  -0.08  -0.00     0.04   0.10  -0.05
  17   1     0.06   0.07   0.11     0.00  -0.08   0.00     0.00   0.06  -0.04
  18   1    -0.09   0.06  -0.06     0.08   0.08  -0.02    -0.01  -0.03   0.01
  19   1    -0.01   0.01  -0.04     0.10  -0.03  -0.08    -0.08   0.02   0.00
  20   1     0.01   0.03  -0.13     0.01   0.01   0.08    -0.03  -0.04   0.02
  21   1     0.03  -0.08  -0.03    -0.05   0.01   0.01    -0.03  -0.00   0.00
  22   1     0.04   0.12   0.10     0.02  -0.03   0.02    -0.05  -0.06  -0.05
  23   1    -0.11   0.02   0.14    -0.02   0.02   0.01     0.08  -0.07  -0.06
  24   1    -0.05   0.02  -0.00    -0.00  -0.04  -0.09     0.08   0.03   0.09
  25   1    -0.08   0.03  -0.01     0.01   0.03  -0.04     0.06   0.01   0.06
                     10                     11                     12
                        a                      a                      a 
 Frequencies --   349.2505               394.1469               432.7372
 Red. masses --     6.8285                 8.3804                 9.2101
 Frc consts  --     0.0000                 0.0000                 0.0000
 IR Inten    --     1.0867                 1.0647                 1.7259
 Raman Activ --     0.0000                 0.0000                 0.0000
 Depolar     --     0.0000                 0.0000                 0.0000
 Atom AN      X      Y      Z        X      Y      Z        X      Y      Z
   1   7    -0.13   0.08   0.07     0.05  -0.04   0.02    -0.02  -0.03  -0.01
   2   6    -0.14   0.08   0.02    -0.18   0.17  -0.15    -0.06  -0.10  -0.03
   3   6    -0.01   0.09  -0.24    -0.10   0.15  -0.30    -0.07  -0.11  -0.03
   4   6     0.06   0.08  -0.17     0.17   0.23   0.14    -0.37   0.04  -0.08
   5   6    -0.09  -0.13   0.25     0.19   0.18   0.04    -0.13   0.42   0.03
   6   6     0.33  -0.20  -0.10     0.14  -0.17   0.27     0.09   0.13   0.04
   7   6     0.01   0.02   0.29    -0.09  -0.23  -0.07     0.43   0.02   0.10
   8   6    -0.01  -0.01  -0.18    -0.17  -0.27  -0.02     0.15  -0.35  -0.01
   9  17     0.01  -0.01   0.00    -0.01  -0.00   0.00     0.01  -0.00  -0.00
  10   1    -0.03  -0.01   0.03     0.05  -0.02  -0.02     0.01  -0.01  -0.01
  11   1    -0.06   0.03   0.00     0.06  -0.03  -0.01    -0.02   0.01   0.01
  12   1    -0.02   0.05   0.02    -0.02  -0.03   0.08     0.01   0.01  -0.00
  13   1    -0.06   0.03   0.01    -0.07   0.06  -0.03    -0.05  -0.03  -0.05
  14   1    -0.06   0.03   0.02    -0.07   0.06  -0.03    -0.02  -0.07   0.02
  15   1    -0.04   0.06  -0.09    -0.04   0.05  -0.09    -0.04  -0.06  -0.02
  16   1     0.06  -0.01  -0.07    -0.03  -0.02   0.18    -0.02  -0.02  -0.09
  17   1    -0.04   0.07  -0.08     0.17   0.15   0.10    -0.20  -0.01  -0.07
  18   1    -0.07  -0.22   0.07     0.09   0.15   0.02    -0.04   0.21  -0.00
  19   1    -0.12   0.03   0.21     0.03   0.03  -0.11     0.04   0.08  -0.06
  20   1     0.13  -0.02  -0.23     0.04  -0.05   0.06    -0.05  -0.07  -0.02
  21   1     0.25  -0.18   0.04     0.04  -0.05   0.08     0.05   0.07   0.02
  22   1     0.14   0.09   0.16    -0.09  -0.13  -0.06     0.20   0.02   0.08
  23   1    -0.13   0.01   0.20     0.01   0.02  -0.11     0.04   0.03   0.09
  24   1     0.05  -0.02  -0.06    -0.03  -0.04   0.16    -0.04  -0.06   0.07
  25   1    -0.06   0.05  -0.08    -0.10  -0.22  -0.02     0.05  -0.20   0.01
                     13                     14                     15
                        a                      a                      a 
 Frequencies --   508.0625               591.9170               806.2660
 Red. masses --     5.9745                 7.9411                 7.8946
 Frc consts  --     0.0000                 0.0000                 0.0000
 IR Inten    --     4.5963                 7.2695                 1.6865
 Raman Activ --     0.0000                 0.0000                 0.0000
 Depolar     --     0.0000                 0.0000                 0.0000
 Atom AN      X      Y      Z        X      Y      Z        X      Y      Z
   1   7     0.13  -0.08  -0.08    -0.06   0.03   0.07    -0.10   0.05   0.11
   2   6    -0.07   0.09  -0.15     0.32  -0.29   0.29    -0.08   0.10  -0.12
   3   6    -0.20   0.06   0.27     0.28  -0.15  -0.16     0.20  -0.04  -0.31
   4   6    -0.17  -0.09  -0.06    -0.04   0.15  -0.05    -0.23  -0.29  -0.04
   5   6     0.06   0.18   0.08    -0.09   0.25   0.04    -0.10  -0.25  -0.00
   6   6     0.21  -0.18   0.14     0.03  -0.05   0.08    -0.05  -0.01   0.15
   7   6    -0.15  -0.14  -0.01    -0.28  -0.02  -0.04     0.17   0.16   0.12
   8   6     0.02   0.19   0.04    -0.13   0.01  -0.10     0.17   0.29   0.12
   9  17    -0.01   0.01   0.00     0.01  -0.01   0.00     0.00   0.00  -0.00
  10   1     0.09  -0.05  -0.05    -0.14   0.08   0.07    -0.02  -0.00   0.03
  11   1     0.10  -0.05  -0.03    -0.14   0.08   0.07    -0.01  -0.01   0.01
  12   1    -0.00  -0.04   0.08     0.05   0.03  -0.21    -0.04   0.00   0.07
  13   1    -0.00   0.02  -0.04     0.08  -0.08   0.08    -0.08   0.05  -0.03
  14   1    -0.01   0.02  -0.05     0.08  -0.09   0.09    -0.06   0.03  -0.00
  15   1    -0.01  -0.01   0.10     0.07  -0.03  -0.05     0.07  -0.03  -0.07
  16   1     0.12  -0.02  -0.20     0.01   0.03  -0.03    -0.17  -0.07   0.10
  17   1    -0.23  -0.16  -0.11    -0.05   0.11  -0.04     0.03   0.05   0.03
  18   1     0.05   0.19   0.02     0.00   0.20   0.01     0.03   0.15   0.00
  19   1     0.06  -0.00  -0.12    -0.00   0.03  -0.11     0.13  -0.16  -0.17
  20   1     0.10  -0.02  -0.15     0.04   0.02  -0.17     0.02   0.02  -0.14
  21   1     0.20  -0.16   0.10     0.14  -0.12   0.08     0.13  -0.11   0.10
  22   1    -0.16  -0.10  -0.07    -0.17  -0.06  -0.07    -0.12  -0.07  -0.06
  23   1     0.06  -0.00  -0.12    -0.00   0.04  -0.11     0.23   0.00  -0.12
  24   1     0.12  -0.03  -0.19    -0.02  -0.01  -0.04    -0.03   0.13   0.16
  25   1     0.09   0.29   0.03    -0.11   0.03  -0.07    -0.05  -0.06  -0.01
                     16                     17                     18
                        a                      a                      a 
 Frequencies --   813.6828               822.9392               881.0554
 Red. masses --     4.1189                 3.2426                 8.4789
 Frc consts  --     0.0000                 0.0000                 0.0000
 IR Inten    --    15.8525                13.0362                 5.9881
 Raman Activ --     0.0000                 0.0000                 0.0000
 Depolar     --     0.0000                 0.0000                 0.0000
 Atom AN      X      Y      Z        X      Y      Z        X      Y      Z
   1   7    -0.03  -0.04  -0.01    -0.06  -0.08  -0.01    -0.10   0.06   0.06
   2   6    -0.12  -0.17  -0.04    -0.12  -0.17  -0.06    -0.07   0.06  -0.12
   3   6    -0.11  -0.16  -0.05     0.02   0.03  -0.00     0.13  -0.08  -0.05
   4   6     0.01   0.04  -0.23     0.11   0.05   0.16     0.19  -0.17   0.07
   5   6    -0.02   0.15  -0.13    -0.04  -0.07   0.12     0.07   0.23   0.17
   6   6     0.04   0.08   0.04    -0.07  -0.11  -0.02    -0.35   0.32  -0.26
   7   6     0.12   0.00   0.18     0.01  -0.00  -0.14    -0.23  -0.19   0.04
   8   6    -0.00  -0.05   0.20     0.04   0.19  -0.08     0.21  -0.14   0.08
   9  17     0.00  -0.01  -0.01     0.00  -0.01  -0.01    -0.00   0.00  -0.00
  10   1     0.17   0.07  -0.19     0.23   0.08  -0.26     0.04  -0.03  -0.01
  11   1    -0.06   0.11   0.23    -0.11   0.16   0.34     0.04  -0.02  -0.01
  12   1     0.05   0.07   0.01     0.07   0.10   0.01    -0.06   0.01   0.14
  13   1     0.14   0.00   0.24     0.14   0.04   0.31    -0.01   0.02  -0.02
  14   1     0.00   0.21  -0.19     0.04   0.24  -0.24    -0.02   0.03  -0.04
  15   1     0.03   0.05   0.01    -0.02  -0.02  -0.01     0.05  -0.03  -0.01
  16   1    -0.18  -0.02   0.15     0.17   0.05  -0.12     0.10  -0.12   0.01
  17   1     0.23   0.11   0.05    -0.17  -0.03  -0.06     0.03  -0.03   0.01
  18   1     0.01  -0.20  -0.00    -0.01   0.17   0.01     0.04   0.04   0.06
  19   1    -0.11   0.13   0.16     0.03  -0.08  -0.14     0.12   0.06   0.12
  20   1    -0.02  -0.02  -0.02    -0.01  -0.02  -0.00    -0.04   0.13  -0.34
  21   1    -0.01  -0.04   0.00     0.01   0.02   0.01     0.11  -0.07   0.02
  22   1    -0.18  -0.07  -0.07     0.16   0.05   0.05    -0.03  -0.06   0.02
  23   1     0.21   0.02  -0.13    -0.10  -0.05   0.10    -0.04  -0.18   0.06
  24   1     0.07  -0.09  -0.16    -0.06   0.12   0.17     0.15  -0.06   0.04
  25   1     0.02   0.22   0.05     0.02  -0.17   0.00     0.04  -0.02   0.01
                     19                     20                     21
                        a                      a                      a 
 Frequencies --   892.1786               919.9614               935.0103
 Red. masses --     5.6623                 5.3152                 6.0070
 Frc consts  --     0.0000                 0.0000                 0.0000
 IR Inten    --     1.4113                12.3801                20.4809
 Raman Activ --     0.0000                 0.0000                 0.0000
 Depolar     --     0.0000                 0.0000                 0.0000
 Atom AN      X      Y      Z        X      Y      Z        X      Y      Z
   1   7     0.13  -0.04  -0.19    -0.00  -0.09  -0.02     0.17  -0.16  -0.12
   2   6     0.01  -0.05   0.20     0.04   0.06   0.02     0.02   0.04   0.17
   3   6    -0.23   0.10   0.23     0.08   0.20   0.01    -0.14   0.24  -0.11
   4   6     0.10  -0.03  -0.19    -0.26  -0.05  -0.16    -0.24  -0.12   0.11
   5   6    -0.08  -0.05  -0.05     0.03  -0.22   0.10     0.19   0.05  -0.08
   6   6    -0.21   0.07   0.20     0.12   0.16   0.02     0.06   0.10  -0.07
   7   6     0.03   0.10  -0.07    -0.20  -0.07  -0.16    -0.12  -0.13   0.16
   8   6     0.09  -0.00  -0.17     0.03  -0.24   0.09     0.17   0.10  -0.06
   9  17    -0.00   0.00   0.00     0.00  -0.01  -0.00     0.00  -0.00  -0.00
  10   1     0.02  -0.02  -0.04     0.08   0.05  -0.11    -0.02   0.09  -0.06
  11   1     0.04  -0.01  -0.06    -0.09   0.08   0.17    -0.14   0.10   0.12
  12   1     0.03  -0.01  -0.06     0.07   0.05  -0.07     0.15   0.02  -0.30
  13   1     0.05  -0.04   0.02    -0.14   0.08   0.03    -0.13   0.06   0.05
  14   1     0.05  -0.04   0.03     0.10  -0.08  -0.01     0.03  -0.05   0.06
  15   1    -0.15   0.12   0.00     0.11   0.17   0.04    -0.17  -0.01  -0.09
  16   1    -0.15   0.05   0.09    -0.24   0.01   0.12    -0.01  -0.07  -0.01
  17   1     0.24  -0.05   0.07     0.08   0.14   0.03    -0.11  -0.10   0.01
  18   1     0.18  -0.03   0.09     0.09   0.14   0.04    -0.09  -0.17  -0.06
  19   1    -0.10  -0.00  -0.05     0.16  -0.14  -0.12     0.12   0.06   0.22
  20   1     0.01   0.07  -0.31     0.07   0.10   0.06     0.07   0.11   0.05
  21   1     0.24  -0.18   0.18     0.09   0.18   0.03    -0.12  -0.10  -0.08
  22   1     0.14  -0.13   0.06     0.10   0.16   0.04    -0.11  -0.16   0.00
  23   1    -0.07   0.09   0.02    -0.22  -0.01   0.12     0.06  -0.03  -0.05
  24   1    -0.14   0.08   0.08     0.17  -0.14  -0.12     0.12   0.07   0.22
  25   1     0.14  -0.21   0.03     0.10   0.14   0.05    -0.07  -0.14  -0.06
                     22                     23                     24
                        a                      a                      a 
 Frequencies --   941.2447               977.0940              1002.1843
 Red. masses --     6.4948                 7.5811                 5.8244
 Frc consts  --     0.0000                 0.0000                 0.0000
 IR Inten    --     6.3790                 9.1821                 6.9919
 Raman Activ --     0.0000                 0.0000                 0.0000
 Depolar     --     0.0000                 0.0000                 0.0000
 Atom AN      X      Y      Z        X      Y      Z        X      Y      Z
   1   7    -0.19   0.03   0.06    -0.18   0.06   0.24     0.02   0.17  -0.19
   2   6     0.04   0.07  -0.11     0.18  -0.06  -0.26    -0.16  -0.27   0.22
   3   6     0.21   0.00   0.17     0.07  -0.05   0.08    -0.00  -0.09  -0.07
   4   6    -0.06   0.15   0.12    -0.24  -0.09  -0.14    -0.15   0.14  -0.08
   5   6    -0.01  -0.19  -0.22     0.14   0.24  -0.09     0.03  -0.09  -0.01
   6   6     0.05   0.15   0.13     0.13  -0.11   0.11     0.18   0.10   0.00
   7   6    -0.12   0.16   0.13    -0.15  -0.16  -0.18    -0.20  -0.09   0.01
   8   6     0.08  -0.30  -0.20     0.03   0.27  -0.06     0.21   0.07   0.06
   9  17    -0.00  -0.00  -0.00     0.00   0.00  -0.00    -0.00   0.01   0.00
  10   1     0.17  -0.03  -0.13    -0.01  -0.01   0.04     0.04  -0.12   0.03
  11   1     0.04   0.01   0.10    -0.01   0.00   0.06     0.24  -0.14  -0.28
  12   1    -0.07   0.05   0.24    -0.06   0.02   0.13    -0.13  -0.06   0.22
  13   1    -0.07   0.04  -0.03     0.04  -0.01  -0.06     0.28  -0.16   0.11
  14   1     0.13  -0.08  -0.07     0.06  -0.03  -0.06    -0.10   0.15  -0.02
  15   1     0.02  -0.13   0.03     0.11  -0.12   0.08    -0.11   0.05  -0.09
  16   1     0.02   0.22  -0.12    -0.19  -0.02   0.09    -0.08   0.08  -0.01
  17   1    -0.11  -0.09  -0.02     0.11  -0.06   0.06    -0.05   0.11  -0.02
  18   1    -0.08  -0.12  -0.09     0.07  -0.20   0.02    -0.06   0.03  -0.04
  19   1    -0.02  -0.02   0.02    -0.07   0.15   0.18     0.07  -0.04  -0.02
  20   1     0.12   0.19  -0.01     0.03  -0.02   0.08     0.12   0.15   0.14
  21   1    -0.02  -0.16   0.02    -0.02  -0.01   0.01    -0.03   0.07  -0.03
  22   1    -0.12  -0.16  -0.01     0.18  -0.05   0.08    -0.03   0.01   0.02
  23   1     0.02   0.23  -0.13    -0.20  -0.04   0.11    -0.06  -0.06   0.04
  24   1     0.01  -0.07  -0.02    -0.07   0.14   0.15     0.15   0.03   0.16
  25   1    -0.01  -0.12  -0.06     0.08  -0.14   0.04     0.01  -0.07   0.00
                     25                     26                     27
                        a                      a                      a 
 Frequencies --  1014.8558              1063.3748              1074.0495
 Red. masses --     5.4770                 7.4381                 2.2138
 Frc consts  --     0.0000                 0.0000                 0.0000
 IR Inten    --    23.6612                 5.8478                 1.0133
 Raman Activ --     0.0000                 0.0000                 0.0000
 Depolar     --     0.0000                 0.0000                 0.0000
 Atom AN      X      Y      Z        X      Y      Z        X      Y      Z
   1   7     0.14  -0.03   0.25     0.06  -0.03  -0.07     0.07   0.02  -0.07
   2   6    -0.08  -0.09  -0.34    -0.15   0.10   0.06    -0.17   0.02   0.07
   3   6    -0.14  -0.07   0.00     0.11  -0.07  -0.07     0.15  -0.03  -0.00
   4   6     0.02   0.22   0.03     0.17  -0.26   0.05    -0.03  -0.04   0.00
   5   6     0.01  -0.17  -0.09    -0.28   0.19  -0.13     0.06   0.05   0.05
   6   6    -0.01   0.16   0.08     0.12  -0.12   0.16    -0.06  -0.11  -0.00
   7   6    -0.05  -0.01  -0.02    -0.25   0.23  -0.11    -0.01   0.08  -0.08
   8   6     0.13  -0.08   0.10     0.29  -0.08   0.10    -0.03  -0.02   0.01
   9  17     0.00  -0.00   0.00    -0.00   0.00   0.00     0.00   0.00   0.00
  10   1    -0.32   0.10   0.27    -0.01   0.02  -0.01    -0.03   0.00   0.02
  11   1    -0.16   0.03  -0.01    -0.02   0.01  -0.00     0.01  -0.01  -0.06
  12   1     0.09  -0.06  -0.33     0.03   0.00  -0.08     0.00  -0.02  -0.05
  13   1     0.12  -0.04  -0.01    -0.08   0.04   0.02    -0.02   0.02   0.06
  14   1    -0.25   0.21  -0.04    -0.08   0.05   0.04    -0.08   0.09   0.00
  15   1     0.07  -0.13   0.07     0.02  -0.07  -0.01     0.27   0.24   0.10
  16   1     0.02   0.16  -0.08     0.09  -0.17   0.02     0.05  -0.19   0.05
  17   1    -0.05  -0.01  -0.02     0.06  -0.13   0.02    -0.08   0.25  -0.05
  18   1     0.04  -0.03  -0.01    -0.09  -0.02  -0.03    -0.25   0.02  -0.12
  19   1    -0.04  -0.04  -0.06    -0.31   0.10  -0.08     0.19  -0.00   0.12
  20   1     0.10   0.17  -0.05     0.01  -0.05   0.10     0.06   0.07   0.02
  21   1     0.07  -0.03   0.05    -0.01   0.05   0.02    -0.20  -0.30  -0.08
  22   1     0.05  -0.06   0.03    -0.03   0.17  -0.01     0.14  -0.27   0.07
  23   1    -0.04   0.02   0.02    -0.17   0.23  -0.02    -0.10   0.21  -0.03
  24   1     0.07  -0.04   0.01     0.23  -0.04   0.10    -0.23   0.02  -0.14
  25   1     0.12   0.00   0.07     0.08  -0.02   0.03     0.30  -0.01   0.16
                     28                     29                     30
                        a                      a                      a 
 Frequencies --  1080.7767              1109.3597              1116.9489
 Red. masses --     7.5612                 8.7739                 4.5769
 Frc consts  --     0.0000                 0.0000                 0.0000
 IR Inten    --     6.3270                 0.2471                 0.2300
 Raman Activ --     0.0000                 0.0000                 0.0000
 Depolar     --     0.0000                 0.0000                 0.0000
 Atom AN      X      Y      Z        X      Y      Z        X      Y      Z
   1   7     0.11  -0.05  -0.22    -0.02  -0.02  -0.01    -0.08  -0.08  -0.03
   2   6    -0.35   0.23   0.25     0.02   0.03   0.01     0.15   0.19   0.06
   3   6     0.34  -0.27   0.03    -0.09  -0.13  -0.03    -0.22  -0.31  -0.09
   4   6    -0.10   0.11   0.02    -0.18   0.25  -0.05     0.09   0.16  -0.06
   5   6     0.11   0.02  -0.08     0.35  -0.01   0.18    -0.04  -0.05  -0.01
   6   6    -0.01   0.04   0.06    -0.23  -0.34  -0.10     0.06   0.07   0.02
   7   6     0.03  -0.13  -0.08    -0.11   0.37  -0.07    -0.05  -0.05  -0.00
   8   6    -0.11   0.07   0.01     0.28  -0.10   0.08     0.12   0.10   0.13
   9  17     0.00  -0.00   0.00     0.00  -0.00  -0.00    -0.00  -0.00  -0.00
  10   1     0.03   0.01  -0.08     0.02   0.00  -0.02     0.09   0.00  -0.11
  11   1    -0.00   0.01  -0.02    -0.01   0.01   0.03    -0.04   0.03   0.12
  12   1     0.05   0.01  -0.09     0.00   0.00   0.01     0.01   0.03   0.04
  13   1    -0.19   0.09   0.06    -0.01  -0.00  -0.04    -0.10   0.03  -0.14
  14   1    -0.16   0.09   0.10    -0.00  -0.03   0.03     0.07  -0.15   0.11
  15   1     0.17  -0.27   0.07    -0.10  -0.15  -0.04    -0.09  -0.09  -0.04
  16   1    -0.08   0.24  -0.07    -0.05   0.04   0.01     0.11  -0.20   0.04
  17   1     0.01  -0.11   0.03    -0.05   0.09  -0.01    -0.04   0.17  -0.06
  18   1     0.15  -0.11   0.05     0.24  -0.05   0.12    -0.06   0.04  -0.03
  19   1    -0.02   0.04   0.05     0.07   0.00   0.06    -0.26   0.01  -0.16
  20   1    -0.00  -0.00  -0.04    -0.08  -0.12  -0.04     0.23   0.34   0.11
  21   1     0.10   0.05   0.06    -0.11  -0.16  -0.05    -0.03  -0.03  -0.02
  22   1     0.07   0.02   0.01    -0.11   0.25  -0.07     0.03  -0.04   0.02
  23   1    -0.01  -0.15   0.07    -0.00   0.06  -0.03     0.07  -0.29   0.08
  24   1    -0.12   0.02  -0.06     0.03  -0.02  -0.00    -0.22   0.06  -0.08
  25   1    -0.06   0.02  -0.02     0.10  -0.03   0.03     0.15  -0.02   0.10
                     31                     32                     33
                        a                      a                      a 
 Frequencies --  1155.6916              1193.6901              1229.1888
 Red. masses --     8.1282                 4.1681                 3.5754
 Frc consts  --     0.0000                 0.0000                 0.0000
 IR Inten    --     2.7227                 3.2545                 0.6876
 Raman Activ --     0.0000                 0.0000                 0.0000
 Depolar     --     0.0000                 0.0000                 0.0000
 Atom AN      X      Y      Z        X      Y      Z        X      Y      Z
   1   7     0.06  -0.06   0.03     0.10   0.12   0.05     0.02  -0.04   0.03
   2   6    -0.13   0.13  -0.11    -0.14  -0.18  -0.06    -0.03   0.06  -0.09
   3   6     0.07  -0.15   0.37     0.16   0.23   0.08     0.05  -0.05   0.12
   4   6     0.13  -0.03  -0.28    -0.16  -0.08   0.08     0.08  -0.06  -0.00
   5   6    -0.14   0.06   0.26     0.08   0.05   0.02    -0.03   0.07  -0.16
   6   6     0.16  -0.04  -0.23    -0.05  -0.09  -0.03    -0.05  -0.06   0.33
   7   6    -0.16  -0.00   0.23     0.00   0.09   0.04    -0.03   0.05  -0.15
   8   6     0.14   0.01  -0.26     0.05  -0.14  -0.14     0.11  -0.06  -0.02
   9  17     0.00  -0.00   0.00     0.00   0.00   0.00     0.00  -0.00   0.00
  10   1    -0.05   0.04   0.03    -0.09  -0.00   0.12    -0.02   0.03   0.01
  11   1    -0.07   0.03   0.03     0.04  -0.03  -0.14    -0.05   0.02   0.03
  12   1     0.04  -0.01  -0.08    -0.01  -0.04  -0.04     0.01  -0.00  -0.01
  13   1    -0.01   0.01  -0.05    -0.09   0.08   0.22     0.07  -0.03  -0.08
  14   1    -0.05   0.03  -0.01     0.14   0.03  -0.21    -0.02   0.01  -0.01
  15   1    -0.01  -0.02   0.07     0.09   0.14   0.04    -0.17   0.21  -0.10
  16   1    -0.14   0.09   0.05     0.02  -0.18   0.05    -0.02   0.12  -0.04
  17   1     0.19   0.10   0.01    -0.03  -0.08   0.03    -0.02   0.10  -0.03
  18   1    -0.05   0.20   0.03     0.16  -0.05   0.08    -0.34  -0.04  -0.19
  19   1     0.10  -0.05  -0.06    -0.31   0.07  -0.11     0.29   0.01   0.22
  20   1    -0.00  -0.05   0.15     0.16   0.24   0.08     0.01   0.00  -0.03
  21   1    -0.12   0.11  -0.12    -0.03  -0.03  -0.01     0.08  -0.08   0.13
  22   1    -0.18  -0.05  -0.02    -0.10   0.15  -0.05    -0.06   0.38  -0.07
  23   1     0.08  -0.02  -0.06     0.16  -0.31   0.05     0.05  -0.33   0.11
  24   1    -0.13   0.08   0.06    -0.21  -0.00  -0.13    -0.13   0.01  -0.08
  25   1    -0.05  -0.19  -0.09    -0.06  -0.05  -0.07    -0.12  -0.01  -0.08
                     34                     35                     36
                        a                      a                      a 
 Frequencies --  1241.4235              1245.3072              1252.5153
 Red. masses --     2.8610                 3.3652                 3.6911
 Frc consts  --     0.0000                 0.0000                 0.0000
 IR Inten    --     7.8539                 2.7809                 2.3894
 Raman Activ --     0.0000                 0.0000                 0.0000
 Depolar     --     0.0000                 0.0000                 0.0000
 Atom AN      X      Y      Z        X      Y      Z        X      Y      Z
   1   7    -0.10  -0.14  -0.05    -0.07  -0.07  -0.03     0.06  -0.01   0.02
   2   6     0.05   0.10   0.02     0.06   0.04   0.01    -0.11   0.06  -0.02
   3   6     0.09   0.09   0.10     0.02   0.03  -0.06     0.01  -0.15   0.28
   4   6    -0.08  -0.09   0.01    -0.09   0.01   0.18    -0.07   0.13  -0.06
   5   6     0.04   0.06   0.09     0.07  -0.05  -0.17     0.15  -0.11  -0.15
   6   6    -0.08  -0.06  -0.03     0.06   0.03  -0.04    -0.08   0.07   0.06
   7   6     0.15   0.04  -0.08    -0.18  -0.01   0.21     0.06  -0.07  -0.01
   8   6    -0.11  -0.05  -0.08     0.12  -0.02  -0.13    -0.01   0.07  -0.10
   9  17    -0.00  -0.00  -0.00    -0.00  -0.00  -0.00     0.00  -0.00   0.00
  10   1     0.07   0.01  -0.11     0.04  -0.01  -0.06    -0.02   0.04   0.01
  11   1    -0.04   0.03   0.14    -0.02   0.02   0.09    -0.05   0.00  -0.04
  12   1     0.02   0.05   0.04    -0.00   0.01   0.02     0.00  -0.03  -0.01
  13   1     0.34  -0.20  -0.26     0.18  -0.11  -0.14    -0.00   0.02   0.03
  14   1    -0.36   0.13   0.26    -0.21   0.08   0.15     0.10  -0.06  -0.07
  15   1     0.13   0.16   0.07     0.15   0.31   0.03     0.07  -0.03   0.11
  16   1    -0.04  -0.01   0.02     0.07  -0.08  -0.01     0.14  -0.44   0.12
  17   1     0.01  -0.02   0.02    -0.14   0.04  -0.01    -0.15   0.44  -0.10
  18   1     0.07   0.01   0.05     0.15  -0.11   0.03    -0.01  -0.08  -0.06
  19   1    -0.17   0.04  -0.07    -0.07   0.02   0.00    -0.09   0.01  -0.03
  20   1     0.16   0.24   0.04    -0.16  -0.25  -0.04    -0.08  -0.08  -0.10
  21   1    -0.12  -0.20  -0.05     0.21   0.35   0.07     0.13   0.09   0.07
  22   1     0.05   0.05  -0.02    -0.16   0.01  -0.01     0.01   0.05  -0.01
  23   1     0.04  -0.04   0.01     0.05  -0.04  -0.02    -0.04   0.12  -0.03
  24   1     0.21  -0.04   0.09    -0.26   0.06  -0.08     0.23   0.01   0.17
  25   1    -0.21   0.03  -0.12     0.24  -0.11   0.08    -0.27  -0.03  -0.15
                     37                     38                     39
                        a                      a                      a 
 Frequencies --  1285.1905              1316.0535              1328.3541
 Red. masses --     3.5934                 3.7232                 3.7720
 Frc consts  --     0.0000                 0.0000                 0.0000
 IR Inten    --     5.3222                 2.8614                12.5808
 Raman Activ --     0.0000                 0.0000                 0.0000
 Depolar     --     0.0000                 0.0000                 0.0000
 Atom AN      X      Y      Z        X      Y      Z        X      Y      Z
   1   7     0.06  -0.03   0.05    -0.03  -0.04   0.00     0.01  -0.07   0.17
   2   6    -0.08   0.09  -0.12    -0.02  -0.04  -0.01    -0.33   0.21   0.11
   3   6     0.23  -0.23   0.08     0.20   0.33   0.08     0.02  -0.01  -0.13
   4   6    -0.06  -0.08   0.12    -0.05   0.10  -0.11    -0.01   0.05   0.03
   5   6     0.07   0.03   0.01    -0.08  -0.03  -0.03    -0.11   0.02  -0.05
   6   6     0.01   0.02  -0.09    -0.02  -0.03  -0.02     0.01  -0.07  -0.01
   7   6     0.01  -0.07  -0.05    -0.01  -0.09  -0.02    -0.02   0.07  -0.00
   8   6     0.04   0.05   0.19     0.13  -0.06   0.17    -0.03   0.00   0.00
   9  17     0.00  -0.00   0.00     0.00  -0.00  -0.00     0.00  -0.00   0.00
  10   1    -0.05   0.05   0.03     0.02   0.03  -0.05     0.04   0.11  -0.07
  11   1    -0.08   0.02  -0.00    -0.01  -0.01   0.01    -0.03  -0.07  -0.10
  12   1     0.01  -0.02  -0.01     0.02   0.03   0.01     0.08   0.03  -0.16
  13   1     0.01  -0.00  -0.06     0.16  -0.08  -0.05     0.45  -0.24  -0.21
  14   1     0.08  -0.03  -0.09    -0.15   0.10   0.06     0.42  -0.26  -0.21
  15   1    -0.45   0.42  -0.31    -0.27  -0.40  -0.11     0.11  -0.02   0.03
  16   1    -0.05   0.16  -0.05     0.10  -0.35   0.09     0.04  -0.03  -0.01
  17   1    -0.10   0.07  -0.01     0.09  -0.08   0.02     0.03  -0.12   0.03
  18   1     0.16  -0.02   0.08    -0.00  -0.01  -0.00     0.10  -0.01   0.05
  19   1    -0.19   0.05  -0.05     0.13  -0.04   0.03     0.13  -0.02   0.06
  20   1     0.00   0.01  -0.01     0.03   0.04   0.01     0.04   0.05   0.04
  21   1    -0.04   0.01  -0.04     0.05   0.08   0.02     0.02   0.04   0.01
  22   1     0.09  -0.17   0.04     0.03  -0.05   0.01     0.02  -0.06   0.02
  23   1    -0.13   0.20  -0.02    -0.10   0.16  -0.02     0.03  -0.05   0.00
  24   1    -0.10   0.01  -0.08    -0.35   0.02  -0.22     0.04  -0.01   0.01
  25   1    -0.15   0.08  -0.04    -0.16   0.08  -0.06     0.06   0.00   0.03
                     40                     41                     42
                        a                      a                      a 
 Frequencies --  1336.3581              1343.0573              1354.1847
 Red. masses --     4.1880                 3.8303                 4.4953
 Frc consts  --     0.0000                 0.0000                 0.0000
 IR Inten    --     3.2406                 4.2318                 2.3084
 Raman Activ --     0.0000                 0.0000                 0.0000
 Depolar     --     0.0000                 0.0000                 0.0000
 Atom AN      X      Y      Z        X      Y      Z        X      Y      Z
   1   7     0.01   0.02  -0.03     0.03   0.01  -0.01    -0.02  -0.01   0.04
   2   6     0.08  -0.02  -0.00    -0.02   0.01  -0.01    -0.05   0.03   0.05
   3   6    -0.16  -0.18  -0.05     0.13   0.09   0.05    -0.11  -0.00  -0.10
   4   6     0.03   0.13   0.04     0.06  -0.15   0.05    -0.02   0.02  -0.01
   5   6    -0.20   0.07  -0.09    -0.19   0.05  -0.11     0.14  -0.08   0.13
   6   6    -0.16  -0.24  -0.08     0.02   0.06   0.02     0.04   0.26   0.06
   7   6     0.10  -0.17   0.05     0.12  -0.25   0.10     0.05  -0.35   0.01
   8   6     0.14   0.06   0.02    -0.21   0.05  -0.13     0.20   0.06   0.03
   9  17    -0.00   0.00  -0.00     0.00  -0.00   0.00    -0.00   0.00   0.00
  10   1     0.00  -0.01   0.01    -0.01  -0.02   0.02     0.02   0.01  -0.02
  11   1    -0.02   0.02   0.00    -0.06   0.03   0.01     0.05  -0.03  -0.02
  12   1    -0.03  -0.02   0.04    -0.05  -0.07   0.02     0.04   0.04  -0.05
  13   1    -0.14   0.07   0.06     0.04  -0.02  -0.01     0.08  -0.05  -0.04
  14   1    -0.01  -0.00   0.02    -0.00   0.00  -0.00     0.10  -0.05  -0.04
  15   1     0.19   0.25   0.09    -0.19  -0.18  -0.09     0.19   0.05   0.09
  16   1     0.06  -0.03  -0.01    -0.00   0.02  -0.01    -0.04   0.06  -0.00
  17   1     0.03  -0.16   0.03    -0.11   0.30  -0.07     0.03  -0.14   0.02
  18   1     0.17  -0.01   0.09     0.29  -0.04   0.14    -0.14   0.06  -0.06
  19   1     0.28  -0.02   0.17     0.08   0.00   0.06    -0.21   0.00  -0.13
  20   1     0.23   0.33   0.11     0.07   0.11   0.02    -0.11  -0.11  -0.12
  21   1     0.12   0.17   0.05    -0.10  -0.16  -0.04    -0.17  -0.26  -0.07
  22   1    -0.03   0.16  -0.03    -0.15   0.38  -0.09    -0.12   0.39  -0.08
  23   1    -0.07   0.30  -0.09    -0.01   0.12  -0.04    -0.14   0.26  -0.05
  24   1    -0.06   0.04   0.01     0.05   0.01   0.05    -0.25   0.07  -0.09
  25   1    -0.16  -0.01  -0.09     0.37  -0.05   0.19    -0.11  -0.02  -0.07
                     43                     44                     45
                        a                      a                      a 
 Frequencies --  1354.6914              1365.8556              1378.4656
 Red. masses --     4.5364                 4.4591                 2.7873
 Frc consts  --     0.0000                 0.0000                 0.0000
 IR Inten    --     4.0422                10.4188               157.3475
 Raman Activ --     0.0000                 0.0000                 0.0000
 Depolar     --     0.0000                 0.0000                 0.0000
 Atom AN      X      Y      Z        X      Y      Z        X      Y      Z
   1   7    -0.02  -0.01   0.04     0.07   0.01  -0.05     0.22   0.05  -0.24
   2   6    -0.03   0.01   0.02    -0.01  -0.01   0.08    -0.10   0.06   0.02
   3   6     0.05   0.07  -0.02    -0.21   0.18  -0.08     0.04  -0.01  -0.04
   4   6    -0.02  -0.13  -0.06     0.15  -0.32   0.08    -0.05   0.09  -0.03
   5   6     0.32   0.05   0.12    -0.03   0.08  -0.06     0.05  -0.02   0.05
   6   6    -0.27  -0.22  -0.09     0.01  -0.06  -0.02    -0.02   0.01   0.00
   7   6     0.10  -0.08   0.12    -0.05   0.05  -0.04     0.01  -0.01   0.01
   8   6    -0.10   0.02  -0.04     0.21  -0.06   0.11    -0.03   0.00  -0.01
   9  17     0.00   0.00  -0.00     0.00  -0.00   0.00     0.00  -0.01  -0.00
  10   1     0.03   0.02  -0.03    -0.02  -0.01   0.02    -0.19  -0.20   0.27
  11   1     0.02  -0.03  -0.04    -0.12   0.06   0.02    -0.33   0.32   0.35
  12   1     0.02   0.01  -0.05    -0.09  -0.09   0.12    -0.27  -0.30   0.31
  13   1     0.05  -0.03  -0.03     0.06  -0.04  -0.02     0.15  -0.06  -0.01
  14   1     0.04  -0.01  -0.02     0.07  -0.03  -0.02     0.10  -0.11  -0.02
  15   1    -0.07  -0.13  -0.04     0.18  -0.21   0.14     0.02  -0.01  -0.01
  16   1    -0.10   0.18  -0.04    -0.13   0.31  -0.05     0.01  -0.07   0.02
  17   1     0.03   0.06  -0.00    -0.19   0.43  -0.12     0.07  -0.18   0.04
  18   1    -0.39   0.04  -0.20     0.12  -0.04   0.05    -0.10   0.01  -0.05
  19   1    -0.21   0.07  -0.06    -0.04   0.04   0.01    -0.02  -0.01  -0.02
  20   1     0.12   0.22   0.02     0.03   0.03   0.00    -0.01  -0.01  -0.01
  21   1     0.26   0.33   0.12     0.00   0.07  -0.01     0.01   0.01   0.01
  22   1    -0.07   0.07  -0.02     0.06  -0.13   0.03    -0.01   0.01  -0.00
  23   1    -0.02   0.20  -0.06    -0.02   0.01  -0.00     0.00   0.00  -0.00
  24   1     0.02   0.01   0.03    -0.19   0.02  -0.08     0.01   0.00   0.02
  25   1     0.18   0.00   0.09    -0.25   0.07  -0.13     0.05   0.02   0.03
                     46                     47                     48
                        a                      a                      a 
 Frequencies --  1408.7304              1448.2976              1482.0472
 Red. masses --     1.5611                 1.8929                 1.8710
 Frc consts  --     0.0000                 0.0000                 0.0000
 IR Inten    --    62.3400                90.0131                16.0834
 Raman Activ --     0.0000                 0.0000                 0.0000
 Depolar     --     0.0000                 0.0000                 0.0000
 Atom AN      X      Y      Z        X      Y      Z        X      Y      Z
   1   7     0.12  -0.01   0.14     0.07  -0.20  -0.14    -0.02   0.03   0.01
   2   6     0.08  -0.03   0.02    -0.02  -0.02  -0.01    -0.06   0.10  -0.25
   3   6    -0.01   0.00  -0.01    -0.01   0.01  -0.02     0.00  -0.00  -0.01
   4   6    -0.03   0.02  -0.01    -0.01  -0.01   0.01     0.00  -0.02   0.01
   5   6     0.02  -0.02   0.02     0.00   0.00   0.00     0.00  -0.00  -0.00
   6   6     0.01   0.02   0.01    -0.00   0.00   0.00     0.00  -0.00   0.00
   7   6    -0.01   0.00   0.01     0.00  -0.01   0.01     0.00  -0.00  -0.00
   8   6    -0.02   0.02  -0.00    -0.01   0.00  -0.01     0.01  -0.00   0.01
   9  17     0.01   0.00   0.01     0.00  -0.00  -0.00    -0.00   0.00   0.00
  10   1     0.17   0.34  -0.33    -0.45   0.48   0.02     0.08  -0.04  -0.04
  11   1    -0.55   0.00  -0.47     0.01  -0.04  -0.04     0.02  -0.02  -0.05
  12   1    -0.21  -0.27   0.15     0.20   0.42   0.51    -0.01  -0.04  -0.08
  13   1    -0.05   0.02   0.01     0.03   0.02   0.10     0.31   0.15   0.58
  14   1    -0.07   0.05   0.04     0.02  -0.08   0.02    -0.13  -0.51   0.40
  15   1     0.02   0.02   0.01     0.02  -0.01   0.01    -0.00   0.01  -0.01
  16   1     0.03  -0.00  -0.03     0.02   0.01  -0.03    -0.01   0.03  -0.01
  17   1     0.07  -0.07   0.04     0.03   0.00   0.01    -0.01   0.01  -0.00
  18   1    -0.03   0.01  -0.01    -0.00  -0.00  -0.00     0.00   0.02   0.00
  19   1    -0.02  -0.00  -0.02     0.00  -0.00  -0.00    -0.01   0.01   0.01
  20   1    -0.02  -0.03  -0.01     0.00   0.00  -0.00     0.00   0.00  -0.00
  21   1    -0.02  -0.03  -0.01    -0.00   0.00  -0.00    -0.01   0.00  -0.00
  22   1     0.00   0.01   0.00    -0.01   0.02  -0.00    -0.01  -0.01  -0.00
  23   1     0.01  -0.02   0.00     0.01   0.00  -0.01    -0.01   0.00   0.01
  24   1     0.03  -0.02  -0.03    -0.00   0.01   0.02    -0.02   0.01  -0.01
  25   1     0.03  -0.05   0.02     0.05   0.01   0.02    -0.01   0.01  -0.00
                     49                     50                     51
                        a                      a                      a 
 Frequencies --  1490.7338              1504.5148              1510.5331
 Red. masses --     1.9773                 1.9484                 1.9753
 Frc consts  --     0.0000                 0.0000                 0.0000
 IR Inten    --    32.8752                 3.4832                 0.5906
 Raman Activ --     0.0000                 0.0000                 0.0000
 Depolar     --     0.0000                 0.0000                 0.0000
 Atom AN      X      Y      Z        X      Y      Z        X      Y      Z
   1   7    -0.01   0.01  -0.00     0.00  -0.00   0.02     0.00  -0.00  -0.00
   2   6     0.00  -0.00   0.00     0.00   0.00  -0.00     0.00   0.00  -0.00
   3   6    -0.03  -0.01  -0.01     0.02  -0.03   0.00    -0.02  -0.01  -0.01
   4   6    -0.25  -0.09   0.06     0.06   0.05  -0.02     0.02   0.00   0.01
   5   6    -0.01   0.01   0.01    -0.01   0.05   0.04    -0.03   0.18   0.10
   6   6     0.00   0.03  -0.02     0.05  -0.06   0.12    -0.02   0.03  -0.05
   7   6     0.02  -0.00  -0.01     0.05   0.01  -0.01     0.17   0.04  -0.03
   8   6     0.03  -0.08  -0.04     0.03  -0.18  -0.12    -0.00   0.07   0.04
   9  17     0.00  -0.00  -0.00     0.00   0.00   0.00     0.00  -0.00   0.00
  10   1     0.02  -0.04   0.01     0.02   0.02  -0.03    -0.01   0.00   0.00
  11   1     0.02   0.00   0.03    -0.02  -0.01  -0.04     0.00  -0.00  -0.00
  12   1    -0.00  -0.01  -0.02    -0.00  -0.01  -0.01     0.00   0.00   0.00
  13   1    -0.00   0.00  -0.00    -0.02   0.01  -0.00     0.00   0.00   0.01
  14   1     0.01  -0.00  -0.00    -0.01   0.01  -0.00     0.00  -0.01   0.00
  15   1     0.01   0.01   0.01    -0.01   0.01  -0.01     0.01   0.01   0.01
  16   1     0.41   0.05  -0.47    -0.10  -0.02   0.12    -0.03   0.01   0.03
  17   1     0.50   0.28   0.26    -0.12  -0.09  -0.06    -0.04  -0.00  -0.02
  18   1     0.01  -0.06   0.01    -0.02  -0.16   0.01    -0.06  -0.49   0.02
  19   1     0.01  -0.02  -0.05     0.07  -0.06  -0.13     0.18  -0.17  -0.42
  20   1    -0.02  -0.02   0.07     0.07   0.05  -0.33    -0.02  -0.00   0.14
  21   1     0.04  -0.06   0.02    -0.25   0.21  -0.11     0.10  -0.08   0.05
  22   1    -0.04  -0.02  -0.02    -0.10  -0.05  -0.06    -0.33  -0.14  -0.18
  23   1    -0.04  -0.00   0.04    -0.08  -0.02   0.09    -0.28  -0.02   0.29
  24   1    -0.09   0.08   0.18    -0.19   0.18   0.45     0.07  -0.05  -0.14
  25   1     0.01   0.21  -0.01     0.08   0.51   0.00    -0.02  -0.17  -0.00
                     52                     53                     54
                        a                      a                      a 
 Frequencies --  1512.7720              1521.5234              2861.6732
 Red. masses --     1.8847                 2.0002                 1.7485
 Frc consts  --     0.0000                 0.0000                 0.0000
 IR Inten    --     3.2393                 0.1964                23.8259
 Raman Activ --     0.0000                 0.0000                 0.0000
 Depolar     --     0.0000                 0.0000                 0.0000
 Atom AN      X      Y      Z        X      Y      Z        X      Y      Z
   1   7     0.00  -0.00   0.01    -0.00   0.00  -0.01     0.00   0.00  -0.00
   2   6     0.00  -0.00   0.01     0.00  -0.00   0.01    -0.01   0.00   0.00
   3   6     0.00  -0.01  -0.00    -0.01   0.01  -0.01    -0.13   0.03   0.22
   4   6     0.05   0.01  -0.02    -0.05  -0.02   0.01    -0.00  -0.01  -0.01
   5   6     0.01  -0.11  -0.08     0.01  -0.11  -0.06     0.00   0.00  -0.01
   6   6    -0.05   0.08  -0.14     0.07  -0.09   0.13    -0.00   0.00   0.00
   7   6     0.13   0.04  -0.04     0.16   0.06  -0.02    -0.00  -0.00  -0.01
   8   6     0.03  -0.08  -0.05    -0.01   0.09   0.05     0.01   0.01  -0.01
   9  17     0.00   0.00   0.00    -0.00  -0.00  -0.00    -0.00  -0.00   0.00
  10   1     0.00   0.02  -0.02    -0.01  -0.01   0.02     0.00   0.00   0.00
  11   1    -0.02  -0.00  -0.02     0.01   0.00   0.02    -0.01  -0.02   0.01
  12   1    -0.00  -0.00   0.01     0.00   0.00   0.00    -0.00   0.00  -0.00
  13   1    -0.01  -0.00  -0.01    -0.00  -0.01  -0.01    -0.01  -0.02   0.01
  14   1    -0.00   0.01  -0.00     0.01   0.00  -0.01     0.01   0.01   0.01
  15   1     0.01  -0.01   0.00     0.02  -0.01   0.01     0.47  -0.08  -0.83
  16   1    -0.08  -0.02   0.09     0.07   0.00  -0.08     0.02   0.01   0.02
  17   1    -0.10  -0.06  -0.05     0.10   0.05   0.05    -0.03   0.00   0.05
  18   1     0.05   0.32  -0.01     0.05   0.28  -0.01    -0.01   0.00   0.02
  19   1    -0.12   0.12   0.28    -0.09   0.10   0.25    -0.01  -0.02   0.00
  20   1    -0.08  -0.07   0.39     0.08   0.06  -0.38     0.01  -0.01   0.00
  21   1     0.29  -0.25   0.12    -0.29   0.25  -0.13     0.00   0.00  -0.01
  22   1    -0.28  -0.13  -0.16    -0.32  -0.15  -0.17    -0.01  -0.00   0.03
  23   1    -0.24  -0.03   0.25    -0.26  -0.03   0.28     0.02   0.01   0.02
  24   1    -0.09   0.08   0.20     0.10  -0.07  -0.19    -0.01  -0.05   0.01
  25   1     0.03   0.23  -0.01    -0.02  -0.23   0.00    -0.03   0.01   0.05
                     55                     56                     57
                        a                      a                      a 
 Frequencies --  2889.0867              2901.4964              2903.2629
 Red. masses --     1.9840                 1.9402                 1.9195
 Frc consts  --     0.0000                 0.0000                 0.0000
 IR Inten    --  1388.3776                31.9711                53.3014
 Raman Activ --     0.0000                 0.0000                 0.0000
 Depolar     --     0.0000                 0.0000                 0.0000
 Atom AN      X      Y      Z        X      Y      Z        X      Y      Z
   1   7    -0.08  -0.24   0.09    -0.00  -0.00   0.00    -0.01  -0.02   0.01
   2   6     0.01   0.04  -0.01     0.00   0.00   0.00     0.00   0.01   0.00
   3   6    -0.00   0.00   0.00    -0.00  -0.00   0.00     0.00  -0.00  -0.01
   4   6    -0.00  -0.00  -0.01    -0.00   0.00   0.01    -0.00   0.00   0.01
   5   6    -0.01  -0.01   0.02     0.05   0.06  -0.08     0.08   0.10  -0.14
   6   6     0.01  -0.01  -0.00     0.01   0.00  -0.01    -0.16   0.09   0.09
   7   6     0.00   0.00   0.01     0.07   0.08   0.25    -0.01  -0.02  -0.07
   8   6    -0.00  -0.02   0.00     0.01   0.01  -0.02    -0.01  -0.01   0.01
   9  17     0.00   0.01  -0.01     0.00  -0.00  -0.00     0.00   0.00  -0.00
  10   1     0.02   0.00   0.03    -0.00   0.00   0.00     0.00   0.00   0.00
  11   1     0.30   0.82  -0.34     0.00   0.01  -0.00     0.03   0.07  -0.03
  12   1    -0.04   0.01  -0.00     0.00  -0.00   0.00    -0.00   0.00  -0.00
  13   1    -0.04  -0.14   0.05    -0.00  -0.01   0.00    -0.01  -0.02   0.01
  14   1    -0.01  -0.00  -0.02    -0.00  -0.00  -0.00    -0.00  -0.00  -0.01
  15   1     0.01  -0.00  -0.02     0.01  -0.00  -0.02    -0.01   0.00   0.03
  16   1     0.02   0.01   0.02     0.00   0.00   0.01    -0.00  -0.00  -0.00
  17   1    -0.01   0.00   0.02     0.02  -0.00  -0.04     0.02  -0.00  -0.04
  18   1     0.02  -0.01  -0.05    -0.11   0.03   0.23    -0.20   0.05   0.42
  19   1     0.02   0.06  -0.02    -0.06  -0.24   0.07    -0.10  -0.38   0.10
  20   1    -0.03   0.02  -0.00     0.00  -0.00  -0.00     0.44  -0.31   0.04
  21   1    -0.00  -0.00   0.01    -0.03  -0.00   0.06     0.15   0.01  -0.38
  22   1     0.00   0.00  -0.00     0.24  -0.00  -0.40    -0.09  -0.00   0.15
  23   1    -0.02  -0.01  -0.02    -0.48  -0.29  -0.49     0.10   0.06   0.10
  24   1     0.02   0.06  -0.02    -0.00  -0.02  -0.00     0.01   0.05  -0.01
  25   1    -0.00  -0.00   0.00    -0.05   0.01   0.09     0.01  -0.00  -0.03
                     58                     59                     60
                        a                      a                      a 
 Frequencies --  2904.5111              2907.4406              2927.4576
 Red. masses --     1.9192                 1.8773                 1.8135
 Frc consts  --     0.0000                 0.0000                 0.0000
 IR Inten    --    69.3015                92.0599                34.6248
 Raman Activ --     0.0000                 0.0000                 0.0000
 Depolar     --     0.0000                 0.0000                 0.0000
 Atom AN      X      Y      Z        X      Y      Z        X      Y      Z
   1   7    -0.00  -0.01   0.00    -0.01  -0.02   0.01    -0.00  -0.01   0.00
   2   6    -0.00  -0.01  -0.00    -0.00  -0.00   0.00    -0.01  -0.01  -0.00
   3   6     0.01   0.01  -0.02     0.01   0.00  -0.01    -0.00   0.00   0.02
   4   6     0.00   0.00   0.01    -0.00   0.01   0.03     0.10   0.09   0.21
   5   6    -0.03  -0.05   0.05     0.07   0.11  -0.11     0.01  -0.08  -0.04
   6   6    -0.08   0.04   0.03     0.14  -0.09  -0.04     0.01  -0.00  -0.02
   7   6    -0.01   0.01   0.02    -0.05  -0.03  -0.06    -0.00  -0.00   0.00
   8   6     0.10   0.19  -0.15     0.03   0.08  -0.05    -0.00  -0.01   0.00
   9  17     0.00   0.00  -0.00     0.00   0.00  -0.00     0.00   0.00  -0.00
  10   1     0.00   0.00   0.00     0.00   0.00   0.00     0.00  -0.00   0.00
  11   1     0.01   0.04  -0.02     0.02   0.05  -0.02     0.01   0.03  -0.01
  12   1    -0.00   0.00  -0.00    -0.00   0.00   0.00    -0.00   0.00  -0.00
  13   1     0.01   0.02  -0.01     0.00   0.01  -0.00     0.00   0.01  -0.01
  14   1     0.01   0.00   0.01    -0.00   0.00   0.00     0.02   0.01   0.02
  15   1    -0.03   0.00   0.05    -0.02   0.00   0.03     0.02  -0.00  -0.04
  16   1    -0.02  -0.01  -0.02    -0.03  -0.01  -0.02    -0.53  -0.32  -0.52
  17   1     0.00  -0.00  -0.00     0.04  -0.00  -0.08     0.16  -0.00  -0.26
  18   1     0.05  -0.02  -0.10    -0.13   0.04   0.28    -0.13   0.01   0.26
  19   1     0.05   0.19  -0.06    -0.12  -0.44   0.13     0.09   0.28  -0.10
  20   1     0.23  -0.16   0.02    -0.47   0.33  -0.03    -0.00   0.00  -0.00
  21   1     0.05   0.00  -0.13    -0.05  -0.01   0.16    -0.02   0.00   0.05
  22   1     0.04  -0.00  -0.07    -0.01  -0.01  -0.01     0.01  -0.00  -0.02
  23   1    -0.01  -0.00  -0.00     0.19   0.12   0.21     0.01   0.01   0.01
  24   1    -0.20  -0.73   0.20    -0.09  -0.33   0.09     0.02   0.05  -0.02
  25   1    -0.16   0.05   0.32    -0.04   0.02   0.09    -0.00  -0.00   0.00
                     61                     62                     63
                        a                      a                      a 
 Frequencies --  2938.0303              2938.5789              2943.2799
 Red. masses --     1.5610                 1.5116                 1.5778
 Frc consts  --     0.0000                 0.0000                 0.0000
 IR Inten    --    69.4892                36.9223                57.3446
 Raman Activ --     0.0000                 0.0000                 0.0000
 Depolar     --     0.0000                 0.0000                 0.0000
 Atom AN      X      Y      Z        X      Y      Z        X      Y      Z
   1   7    -0.00  -0.01   0.00     0.00   0.00  -0.00    -0.00  -0.01   0.00
   2   6    -0.01  -0.02  -0.00    -0.00  -0.01  -0.00    -0.01  -0.01  -0.00
   3   6    -0.00   0.00   0.00     0.00  -0.00  -0.00    -0.00   0.00   0.00
   4   6     0.05   0.04   0.07    -0.04  -0.02  -0.04    -0.02  -0.01  -0.01
   5   6    -0.02   0.12   0.08     0.02  -0.09  -0.06     0.02  -0.01  -0.05
   6   6     0.00   0.00   0.01     0.04  -0.05   0.08     0.01   0.05  -0.18
   7   6     0.12   0.03  -0.06     0.12   0.03  -0.05     0.05   0.01  -0.05
   8   6     0.01   0.02  -0.01     0.00   0.03   0.01    -0.02   0.06   0.06
   9  17     0.00   0.00  -0.00     0.00   0.00   0.00     0.00   0.00  -0.00
  10   1     0.00  -0.00   0.00    -0.00  -0.00  -0.00    -0.00  -0.00  -0.00
  11   1     0.01   0.02  -0.01    -0.01  -0.01   0.00     0.01   0.03  -0.01
  12   1    -0.00   0.00  -0.00     0.00  -0.00   0.00    -0.00   0.00  -0.00
  13   1     0.02   0.06  -0.02     0.01   0.02  -0.01     0.01   0.03  -0.01
  14   1     0.03   0.02   0.04     0.01   0.00   0.01     0.02   0.01   0.03
  15   1     0.00   0.00  -0.00    -0.01   0.00   0.01     0.00  -0.00   0.00
  16   1    -0.22  -0.13  -0.21     0.14   0.08   0.14     0.08   0.05   0.08
  17   1     0.03   0.00  -0.05    -0.00  -0.00  -0.01     0.01  -0.00  -0.03
  18   1     0.22  -0.02  -0.44    -0.16   0.01   0.33    -0.09   0.01   0.19
  19   1    -0.13  -0.40   0.15     0.10   0.32  -0.12     0.01   0.03  -0.02
  20   1    -0.01   0.01   0.00    -0.29   0.20  -0.00     0.28  -0.19  -0.01
  21   1     0.02   0.00  -0.04     0.15  -0.01  -0.30    -0.31   0.02   0.65
  22   1    -0.23   0.02   0.46    -0.23   0.02   0.45    -0.13   0.01   0.26
  23   1    -0.20  -0.13  -0.25    -0.21  -0.14  -0.26    -0.05  -0.04  -0.08
  24   1    -0.02  -0.07   0.02    -0.03  -0.11   0.04    -0.06  -0.20   0.07
  25   1    -0.01   0.00   0.01     0.04   0.00  -0.08     0.15  -0.00  -0.29
                     64                     65                     66
                        a                      a                      a 
 Frequencies --  2946.8272              2950.1950              2965.1017
 Red. masses --     1.9469                 1.6136                 1.6321
 Frc consts  --     0.0000                 0.0000                 0.0000
 IR Inten    --     2.7936                91.5816                 1.0977
 Raman Activ --     0.0000                 0.0000                 0.0000
 Depolar     --     0.0000                 0.0000                 0.0000
 Atom AN      X      Y      Z        X      Y      Z        X      Y      Z
   1   7     0.01   0.04  -0.02    -0.00  -0.01   0.00     0.00   0.00  -0.00
   2   6     0.15   0.24   0.03    -0.03  -0.06   0.00     0.01   0.02   0.01
   3   6     0.01   0.01  -0.00     0.00  -0.01  -0.01     0.01   0.00  -0.02
   4   6    -0.01   0.00   0.02    -0.02  -0.01  -0.01     0.16   0.02  -0.16
   5   6    -0.00   0.00  -0.00     0.01  -0.01  -0.03     0.02  -0.00  -0.04
   6   6     0.01   0.00  -0.02     0.02   0.01  -0.06     0.01  -0.00  -0.01
   7   6     0.02   0.00  -0.02     0.03  -0.00  -0.06     0.01   0.00  -0.01
   8   6     0.02  -0.01  -0.04     0.07  -0.09  -0.16     0.01   0.00  -0.01
   9  17    -0.00  -0.00   0.00     0.00   0.00   0.00     0.00   0.00  -0.00
  10   1     0.00   0.01   0.00     0.00   0.01   0.01    -0.00   0.00  -0.00
  11   1    -0.04  -0.12   0.05     0.00   0.01  -0.01    -0.01  -0.01   0.01
  12   1     0.01  -0.00   0.00    -0.00   0.00   0.00    -0.00  -0.00   0.00
  13   1    -0.22  -0.65   0.28     0.06   0.18  -0.08    -0.01  -0.04   0.02
  14   1    -0.30  -0.20  -0.37     0.05   0.03   0.06    -0.04  -0.02  -0.04
  15   1    -0.01   0.00   0.01    -0.02   0.00   0.03    -0.02   0.00   0.04
  16   1     0.00   0.00   0.01     0.07   0.04   0.07    -0.18  -0.12  -0.22
  17   1     0.04  -0.01  -0.09     0.01  -0.00  -0.02    -0.39   0.04   0.81
  18   1     0.00   0.00  -0.00    -0.05   0.01   0.11    -0.06   0.01   0.13
  19   1    -0.00  -0.00   0.00     0.01   0.04  -0.02     0.00  -0.00  -0.00
  20   1     0.02  -0.01  -0.00     0.05  -0.03  -0.01    -0.01   0.01  -0.00
  21   1    -0.04   0.00   0.08    -0.11   0.00   0.23    -0.02   0.00   0.05
  22   1    -0.06   0.00   0.11    -0.11   0.01   0.21    -0.02   0.00   0.04
  23   1    -0.02  -0.01  -0.03     0.00  -0.00  -0.01    -0.01  -0.01  -0.02
  24   1     0.01   0.02  -0.01     0.10   0.29  -0.12    -0.00  -0.02   0.00
  25   1    -0.08   0.01   0.16    -0.36   0.02   0.71    -0.02   0.00   0.04
                     67                     68                     69
                        a                      a                      a 
 Frequencies --  2975.0475              3168.6733              3203.8616
 Red. masses --     1.5280                 1.8600                 1.6558
 Frc consts  --     0.0000                 0.0000                 0.0000
 IR Inten    --     8.0167                49.4176                33.7234
 Raman Activ --     0.0000                 0.0000                 0.0000
 Depolar     --     0.0000                 0.0000                 0.0000
 Atom AN      X      Y      Z        X      Y      Z        X      Y      Z
   1   7     0.01   0.02  -0.01    -0.22   0.11  -0.08     0.10   0.12   0.16
   2   6    -0.08   0.03  -0.20    -0.01   0.00  -0.00     0.00   0.00   0.01
   3   6    -0.00   0.00  -0.01     0.00  -0.00   0.00    -0.00  -0.00   0.00
   4   6     0.00  -0.00  -0.01     0.00  -0.00   0.00     0.00  -0.00   0.00
   5   6     0.00   0.00  -0.00    -0.00   0.00   0.00    -0.00   0.00   0.00
   6   6     0.00  -0.00  -0.00     0.00   0.00  -0.00    -0.00   0.00  -0.00
   7   6     0.00  -0.00  -0.00    -0.00   0.00   0.00    -0.00  -0.00  -0.00
   8   6     0.00  -0.00  -0.01    -0.00  -0.00   0.00     0.00  -0.00  -0.00
   9  17    -0.00  -0.00   0.00    -0.00   0.00  -0.00    -0.00  -0.00   0.00
  10   1    -0.02  -0.01  -0.02     0.08   0.10   0.12    -0.54  -0.42  -0.66
  11   1    -0.02  -0.06   0.02    -0.01   0.05  -0.02     0.03   0.06  -0.01
  12   1     0.00   0.00  -0.00     0.75  -0.55   0.19     0.16  -0.09   0.05
  13   1    -0.19  -0.48   0.17     0.00   0.00  -0.00     0.00   0.01  -0.00
  14   1     0.47   0.36   0.54     0.00   0.00   0.00    -0.02  -0.01  -0.02
  15   1    -0.02   0.00   0.03     0.00  -0.00  -0.00     0.00  -0.00  -0.00
  16   1     0.01   0.01   0.01    -0.00  -0.00  -0.00     0.00   0.00   0.00
  17   1    -0.01  -0.00   0.02    -0.00  -0.00   0.00     0.00   0.00  -0.00
  18   1    -0.00   0.00   0.01     0.00  -0.00  -0.00     0.00  -0.00  -0.00
  19   1    -0.00  -0.00   0.00    -0.00  -0.00   0.00    -0.00  -0.00   0.00
  20   1    -0.00   0.00  -0.00     0.00  -0.00   0.00     0.00  -0.00  -0.00
  21   1    -0.00  -0.00   0.01    -0.00   0.00   0.00    -0.00  -0.00  -0.00
  22   1    -0.00   0.00   0.01     0.00  -0.00  -0.00    -0.00   0.00   0.00
  23   1     0.00   0.00   0.00     0.00   0.00   0.00     0.00   0.00   0.00
  24   1     0.00   0.01  -0.00    -0.00   0.00  -0.00     0.00   0.00  -0.00
  25   1    -0.02   0.00   0.04     0.00   0.00  -0.00    -0.01  -0.00   0.01
