 Entering Gaussian System
 *********************************************
 Gaussian 98:
 frequency output generated by the xtb code
 *********************************************
                         Standard orientation:
 --------------------------------------------------------------------
  Center     Atomic     Atomic              Coordinates (Angstroms)
  Number     Number      Type              X           Y           Z
 --------------------------------------------------------------------
    1          7             0       -1.856401    0.038799   -0.233804
    2          6             0       -0.542588    0.001704    0.479452
    3          6             0        0.653328    0.004386   -0.469552
    4          6             0        1.995321   -0.049410    0.252633
    5          1             0       -1.958277   -0.775861   -0.844232
    6          1             0       -1.929628    0.880659   -0.810565
    7          1             0       -2.635359    0.038715    0.429629
    8          1             0       -0.506151   -0.888455    1.118543
    9          1             0       -0.478211    0.859355    1.159500
   10          1             0        0.606841    0.896995   -1.104664
   11          1             0        0.567212   -0.843615   -1.159211
   12          1             0        2.120278    0.805841    0.918331
   13          1             0        2.832988   -0.045466   -0.447490
   14          1             0        2.080798   -0.951129    0.860784
 --------------------------------------------------------------------
     1 basis functions        1 primitive gaussians
     1 alpha electrons        1 beta electrons

 Harmonic frequencies (cm**-1), IR intensities (km*mol⁻¹),
 Raman scattering activities (A**4/amu), Raman depolarization ratios,
 reduced masses (AMU), force constants (mDyne/A) and normal coordinates:
                      1                      2                      3
                        a                      a                      a 
 Frequencies --  -103.4424               116.1574               255.3097
 Red. masses --     1.4906                 7.4944                 8.1589
 Frc consts  --     0.0000                 0.0000                 0.0000
 IR Inten    --     0.0892                 6.9740                10.9742
 Raman Activ --     0.0000                 0.0000                 0.0000
 Depolar     --     0.0000                 0.0000                 0.0000
 Atom AN      X      Y      Z        X      Y      Z        X      Y      Z
   1   7    -0.00  -0.06  -0.00    -0.00  -0.35  -0.01     0.19   0.00  -0.30
   2   6    -0.00  -0.07  -0.00     0.01   0.45   0.01    -0.20  -0.01   0.39
   3   6     0.00   0.18   0.01     0.01   0.34   0.01    -0.20   0.00   0.38
   4   6    -0.00  -0.05  -0.00    -0.01  -0.36  -0.01     0.17   0.00  -0.31
   5   1    -0.24  -0.28   0.39     0.16  -0.11  -0.00     0.17  -0.00  -0.10
   6   1     0.23  -0.27  -0.41    -0.16  -0.11  -0.00     0.18  -0.00  -0.10
   7   1     0.01   0.52   0.01    -0.00  -0.24  -0.01    -0.08   0.01  -0.24
   8   1     0.01  -0.04  -0.02     0.08   0.20   0.11    -0.11  -0.01   0.11
   9   1    -0.01  -0.04   0.02    -0.08   0.21  -0.10    -0.11   0.00   0.11
  10   1     0.00   0.11   0.09     0.09   0.15   0.07    -0.11   0.00   0.11
  11   1     0.00   0.12  -0.08    -0.08   0.15  -0.06    -0.11   0.00   0.11
  12   1    -0.02  -0.10   0.11     0.07  -0.19   0.09     0.17   0.01  -0.12
  13   1     0.00   0.09   0.00    -0.00  -0.09  -0.00    -0.07  -0.02  -0.23
  14   1     0.02  -0.09  -0.12    -0.08  -0.18  -0.10     0.14   0.01  -0.09
                      4                      5                      6
                        a                      a                      a 
 Frequencies --   269.1856               407.0945               783.1148
 Red. masses --     1.9987                 9.4599                 1.6665
 Frc consts  --     0.0000                 0.0000                 0.0000
 IR Inten    --     0.2174                 7.2668                36.2841
 Raman Activ --     0.0000                 0.0000                 0.0000
 Depolar     --     0.0000                 0.0000                 0.0000
 Atom AN      X      Y      Z        X      Y      Z        X      Y      Z
   1   7     0.01   0.06  -0.01     0.51  -0.01   0.02     0.00  -0.05   0.00
   2   6    -0.01   0.13   0.02     0.22  -0.01   0.19    -0.00  -0.17  -0.00
   3   6    -0.01  -0.26   0.01    -0.26   0.01  -0.23    -0.00  -0.16  -0.01
   4   6     0.01   0.05  -0.01    -0.51   0.01   0.01    -0.00  -0.02  -0.00
   5   1     0.04   0.03  -0.03     0.22  -0.00  -0.01    -0.19   0.11  -0.13
   6   1    -0.03   0.03   0.02     0.22  -0.01  -0.01     0.19   0.10   0.14
   7   1    -0.00  -0.03  -0.01     0.04   0.00  -0.10     0.00   0.07   0.00
   8   1    -0.03   0.09   0.08     0.10  -0.01   0.05    -0.03   0.23   0.38
   9   1     0.02   0.09  -0.07     0.10  -0.00   0.05     0.04   0.25  -0.37
  10   1    -0.02  -0.13  -0.08    -0.10   0.01  -0.06     0.00   0.21   0.35
  11   1     0.00  -0.14   0.08    -0.10  -0.00  -0.06     0.01   0.24  -0.34
  12   1    -0.26  -0.23   0.36    -0.22   0.00   0.02    -0.12   0.08  -0.08
  13   1     0.01   0.56   0.01    -0.06  -0.00   0.11     0.00   0.06   0.00
  14   1     0.26  -0.22  -0.38    -0.22   0.01   0.02     0.12   0.07   0.09
                      7                      8                      9
                        a                      a                      a 
 Frequencies --   830.8777               857.1796               937.7853
 Red. masses --     2.1882                 5.7461                 2.2698
 Frc consts  --     0.0000                 0.0000                 0.0000
 IR Inten    --     7.4222                29.7517                12.3658
 Raman Activ --     0.0000                 0.0000                 0.0000
 Depolar     --     0.0000                 0.0000                 0.0000
 Atom AN      X      Y      Z        X      Y      Z        X      Y      Z
   1   7    -0.00  -0.17  -0.00    -0.34   0.00   0.13    -0.00  -0.17  -0.01
   2   6    -0.00  -0.11  -0.00    -0.06  -0.01   0.28     0.01   0.22   0.01
   3   6     0.01   0.24   0.01     0.14   0.01  -0.35    -0.00   0.01   0.00
   4   6     0.00   0.07   0.00     0.22  -0.00  -0.01    -0.00  -0.18  -0.01
   5   1    -0.35   0.15  -0.21     0.24   0.01  -0.03    -0.23   0.08  -0.13
   6   1     0.35   0.13   0.21     0.24  -0.02  -0.03     0.23   0.07   0.13
   7   1     0.00   0.15   0.00    -0.44   0.02  -0.38     0.00   0.09   0.00
   8   1     0.19   0.08   0.14     0.04  -0.00   0.07     0.26  -0.08  -0.20
   9   1    -0.19   0.10  -0.14     0.04  -0.01   0.07    -0.27  -0.08   0.20
  10   1    -0.13  -0.14  -0.27     0.02   0.00  -0.09     0.34  -0.01  -0.04
  11   1     0.12  -0.16   0.26     0.02   0.00  -0.09    -0.34   0.00   0.04
  12   1     0.21  -0.12   0.13    -0.08  -0.00   0.03    -0.28   0.13  -0.16
  13   1    -0.00  -0.11  -0.00     0.23  -0.01   0.20     0.00   0.15   0.01
  14   1    -0.22  -0.10  -0.14    -0.08   0.01   0.03     0.29   0.10   0.17
                     10                     11                     12
                        a                      a                      a 
 Frequencies --   967.7906               990.9065              1085.0072
 Red. masses --     4.4534                10.3109                 9.1397
 Frc consts  --     0.0000                 0.0000                 0.0000
 IR Inten    --    38.4338                19.8302                 5.6668
 Raman Activ --     0.0000                 0.0000                 0.0000
 Depolar     --     0.0000                 0.0000                 0.0000
 Atom AN      X      Y      Z        X      Y      Z        X      Y      Z
   1   7     0.03  -0.01   0.30    -0.42   0.01  -0.27    -0.02   0.00  -0.06
   2   6    -0.11   0.01  -0.35     0.64  -0.02   0.23     0.19  -0.00  -0.09
   3   6    -0.00  -0.00   0.08     0.07  -0.01   0.13    -0.62   0.02  -0.18
   4   6    -0.20  -0.00   0.17    -0.25   0.01   0.01     0.39  -0.02   0.35
   5   1     0.26   0.01   0.02    -0.11   0.00  -0.07    -0.01   0.00  -0.02
   6   1     0.26  -0.02   0.02    -0.11   0.00  -0.07    -0.01  -0.00  -0.01
   7   1    -0.25   0.01  -0.22    -0.11   0.00  -0.08     0.00   0.00  -0.00
   8   1     0.11   0.01  -0.10     0.17  -0.01   0.04     0.14  -0.01  -0.05
   9   1     0.10  -0.01  -0.09     0.18   0.01   0.04     0.14   0.01  -0.05
  10   1     0.18  -0.00   0.00     0.04   0.01   0.05    -0.24   0.00  -0.05
  11   1     0.18  -0.00   0.00     0.04  -0.01   0.05    -0.23   0.01  -0.05
  12   1     0.24   0.01  -0.04     0.05   0.01  -0.03     0.21  -0.01   0.07
  13   1    -0.36   0.02  -0.33    -0.21   0.01  -0.16     0.03  -0.00  -0.01
  14   1     0.24  -0.02  -0.04     0.05  -0.01  -0.03     0.21  -0.01   0.07
                     13                     14                     15
                        a                      a                      a 
 Frequencies --  1146.4357              1170.0371              1233.6321
 Red. masses --     7.7028                 6.0622                 3.2445
 Frc consts  --     0.0000                 0.0000                 0.0000
 IR Inten    --     2.0337                 6.3052                11.7339
 Raman Activ --     0.0000                 0.0000                 0.0000
 Depolar     --     0.0000                 0.0000                 0.0000
 Atom AN      X      Y      Z        X      Y      Z        X      Y      Z
   1   7    -0.09  -0.00   0.13     0.00   0.24   0.01    -0.00  -0.21  -0.00
   2   6     0.22   0.00  -0.42    -0.01  -0.42  -0.01     0.00   0.14   0.00
   3   6    -0.14  -0.01   0.51     0.01   0.39   0.01     0.01   0.26   0.01
   4   6     0.07   0.00  -0.27    -0.01  -0.26  -0.01    -0.01  -0.25  -0.01
   5   1     0.12   0.02  -0.01     0.17  -0.05   0.12    -0.12   0.03  -0.10
   6   1     0.12  -0.02  -0.02    -0.17  -0.04  -0.12     0.12   0.03   0.10
   7   1    -0.15   0.00  -0.12    -0.00  -0.08  -0.00     0.00   0.06   0.00
   8   1     0.11  -0.00  -0.12     0.15   0.08   0.24    -0.50  -0.02  -0.05
   9   1     0.11   0.00  -0.12    -0.15   0.09  -0.24     0.50  -0.04   0.05
  10   1    -0.12  -0.00   0.13     0.02  -0.07  -0.23    -0.23  -0.03  -0.12
  11   1    -0.13   0.00   0.14    -0.02  -0.09   0.23     0.23  -0.04   0.12
  12   1    -0.24  -0.02   0.02    -0.22   0.08  -0.14    -0.17   0.07  -0.13
  13   1     0.24  -0.01   0.21     0.00   0.13   0.00     0.00   0.12   0.00
  14   1    -0.23   0.03   0.02     0.22   0.06   0.15     0.18   0.05   0.13
                     16                     17                     18
                        a                      a                      a 
 Frequencies --  1267.9538              1299.6832              1345.2492
 Red. masses --     1.8234                 3.5125                 4.1623
 Frc consts  --     0.0000                 0.0000                 0.0000
 IR Inten    --     7.1504                18.4160                15.3702
 Raman Activ --     0.0000                 0.0000                 0.0000
 Depolar     --     0.0000                 0.0000                 0.0000
 Atom AN      X      Y      Z        X      Y      Z        X      Y      Z
   1   7     0.00   0.04  -0.00    -0.06   0.01  -0.18    -0.09   0.00  -0.11
   2   6     0.00   0.18   0.01    -0.31  -0.00   0.15    -0.25   0.01  -0.01
   3   6    -0.00  -0.10  -0.00    -0.22   0.00   0.08     0.43  -0.01   0.02
   4   6    -0.00  -0.17  -0.01     0.02   0.00  -0.12    -0.06  -0.00   0.10
   5   1     0.02   0.00   0.01     0.05  -0.06   0.04     0.11  -0.09   0.08
   6   1    -0.02   0.00  -0.01     0.05   0.06   0.04     0.11   0.08   0.08
   7   1     0.00   0.01   0.00     0.16  -0.01   0.15     0.09  -0.00   0.10
   8   1     0.34  -0.02  -0.11     0.47  -0.02  -0.02     0.30   0.01  -0.02
   9   1    -0.33  -0.01   0.11     0.48   0.00  -0.02     0.30  -0.02  -0.02
  10   1    -0.55   0.03   0.11     0.34  -0.01  -0.01    -0.47  -0.03  -0.01
  11   1     0.55   0.02  -0.11     0.34  -0.00  -0.01    -0.47   0.05  -0.01
  12   1    -0.11   0.04  -0.08    -0.02  -0.03   0.02     0.01   0.05  -0.04
  13   1     0.00   0.04   0.00     0.12  -0.01   0.10    -0.09   0.00  -0.06
  14   1     0.11   0.02   0.08    -0.02   0.03   0.02     0.01  -0.04  -0.05
                     19                     20                     21
                        a                      a                      a 
 Frequencies --  1365.6090              1419.9346              1424.4270
 Red. masses --     2.9638                 1.6269                 1.6691
 Frc consts  --     0.0000                 0.0000                 0.0000
 IR Inten    --   186.0653                87.2918                77.0347
 Raman Activ --     0.0000                 0.0000                 0.0000
 Depolar     --     0.0000                 0.0000                 0.0000
 Atom AN      X      Y      Z        X      Y      Z        X      Y      Z
   1   7     0.34  -0.01   0.11     0.00   0.22   0.00    -0.08  -0.00   0.19
   2   6    -0.15   0.00   0.05     0.00   0.03   0.00    -0.06   0.00   0.05
   3   6     0.07  -0.00   0.03    -0.00  -0.00  -0.00     0.05  -0.00  -0.02
   4   6    -0.02   0.00  -0.01     0.00  -0.01  -0.00    -0.01  -0.00   0.01
   5   1    -0.47   0.11  -0.07    -0.39  -0.08   0.21     0.07   0.39  -0.52
   6   1    -0.47  -0.09  -0.07     0.39  -0.08  -0.21     0.06  -0.37  -0.54
   7   1    -0.32   0.01  -0.40    -0.01  -0.74  -0.02     0.16  -0.01   0.22
   8   1     0.22  -0.03  -0.05    -0.03  -0.00  -0.02     0.07  -0.01  -0.01
   9   1     0.22   0.03  -0.05     0.03  -0.00   0.02     0.07   0.01  -0.01
  10   1    -0.05  -0.01   0.00    -0.01   0.00   0.00    -0.03   0.01   0.02
  11   1    -0.05   0.01   0.00     0.01   0.00  -0.00    -0.03  -0.01   0.01
  12   1     0.01   0.00  -0.00     0.00   0.00  -0.00     0.01   0.01  -0.01
  13   1     0.01  -0.00   0.01     0.00   0.01   0.00    -0.00   0.00  -0.00
  14   1     0.01  -0.00  -0.00    -0.00   0.00   0.00     0.01  -0.01  -0.02
                     22                     23                     24
                        a                      a                      a 
 Frequencies --  1439.5029              1480.1826              1493.8541
 Red. masses --     3.0407                 1.8710                 1.5038
 Frc consts  --     0.0000                 0.0000                 0.0000
 IR Inten    --     8.9235                 9.2756                14.0853
 Raman Activ --     0.0000                 0.0000                 0.0000
 Depolar     --     0.0000                 0.0000                 0.0000
 Atom AN      X      Y      Z        X      Y      Z        X      Y      Z
   1   7    -0.01   0.00   0.01     0.01   0.00  -0.01     0.00   0.00   0.00
   2   6     0.02   0.00  -0.02    -0.01   0.01  -0.28     0.00   0.00   0.00
   3   6     0.05  -0.00  -0.00    -0.03  -0.00   0.01    -0.00  -0.05  -0.00
   4   6    -0.39   0.01  -0.17    -0.00  -0.00   0.02    -0.00  -0.21  -0.01
   5   1     0.02  -0.00   0.00    -0.04   0.02  -0.02     0.01   0.00  -0.00
   6   1     0.02   0.00   0.00    -0.04  -0.01  -0.02    -0.00   0.00   0.00
   7   1    -0.00  -0.00   0.00    -0.02   0.00  -0.02     0.00   0.01   0.00
   8   1    -0.03  -0.00  -0.01     0.08   0.40   0.53     0.02  -0.00  -0.01
   9   1    -0.03   0.00  -0.01     0.06  -0.42   0.51    -0.02   0.00  -0.00
  10   1    -0.06   0.02   0.03     0.01  -0.01  -0.01     0.02  -0.00   0.02
  11   1    -0.06  -0.02   0.03     0.01   0.01  -0.01    -0.02   0.00  -0.02
  12   1     0.48  -0.14   0.07     0.01   0.05  -0.07     0.43   0.07  -0.19
  13   1     0.33  -0.02   0.43     0.03   0.00   0.04     0.02   0.71   0.02
  14   1     0.49   0.12   0.08     0.01  -0.05  -0.07    -0.43   0.07   0.19
                     25                     26                     27
                        a                      a                      a 
 Frequencies --  1497.4102              1511.4698              2932.9099
 Red. masses --     1.5077                 1.9936                 1.9338
 Frc consts  --     0.0000                 0.0000                 0.0000
 IR Inten    --     6.9738                 5.3233                15.9475
 Raman Activ --     0.0000                 0.0000                 0.0000
 Depolar     --     0.0000                 0.0000                 0.0000
 Atom AN      X      Y      Z        X      Y      Z        X      Y      Z
   1   7    -0.00   0.00   0.00    -0.01   0.00   0.01    -0.00  -0.00   0.00
   2   6    -0.01   0.00  -0.02     0.04  -0.00   0.03     0.00   0.07   0.00
   3   6     0.05  -0.00   0.04    -0.02  -0.01   0.29    -0.01  -0.28  -0.01
   4   6     0.05   0.01  -0.20    -0.03  -0.00   0.04     0.00   0.02   0.00
   5   1    -0.00   0.01  -0.02    -0.00   0.01  -0.02     0.00   0.00   0.01
   6   1    -0.00  -0.01  -0.02     0.00  -0.01  -0.02    -0.00   0.00  -0.00
   7   1     0.00  -0.00   0.00     0.00  -0.00   0.00     0.00  -0.00  -0.00
   8   1     0.01   0.05   0.07    -0.04  -0.02  -0.02     0.01  -0.14   0.10
   9   1     0.01  -0.05   0.07    -0.04   0.03  -0.02    -0.01  -0.13  -0.11
  10   1    -0.04  -0.11  -0.16     0.01  -0.38  -0.52    -0.02   0.53  -0.39
  11   1    -0.04   0.12  -0.15     0.02   0.41  -0.50     0.04   0.49   0.42
  12   1    -0.04  -0.39   0.49     0.03   0.10  -0.13    -0.01  -0.05  -0.04
  13   1    -0.17   0.01  -0.21     0.06  -0.01   0.09    -0.00   0.01   0.00
  14   1    -0.03   0.35   0.52     0.03  -0.09  -0.14     0.01  -0.05   0.04
                     28                     29                     30
                        a                      a                      a 
 Frequencies --  2961.9205              2963.9448              2985.7737
 Red. masses --     1.4902                 2.0063                 1.5381
 Frc consts  --     0.0000                 0.0000                 0.0000
 IR Inten    --    15.5049                 3.8596                 6.6617
 Raman Activ --     0.0000                 0.0000                 0.0000
 Depolar     --     0.0000                 0.0000                 0.0000
 Atom AN      X      Y      Z        X      Y      Z        X      Y      Z
   1   7    -0.00  -0.00   0.00    -0.00  -0.00  -0.00    -0.00   0.00   0.00
   2   6     0.01  -0.00   0.04     0.00   0.29   0.01    -0.02   0.01  -0.21
   3   6    -0.01   0.01  -0.20     0.00   0.08   0.00    -0.00   0.00  -0.05
   4   6    -0.01  -0.00   0.02    -0.00  -0.01  -0.00    -0.02  -0.00   0.04
   5   1     0.00   0.01   0.00     0.00   0.01   0.01    -0.00  -0.01  -0.01
   6   1     0.00  -0.01   0.00     0.00   0.01  -0.01    -0.00   0.01  -0.01
   7   1     0.00  -0.00  -0.00    -0.00  -0.00   0.00     0.00   0.00  -0.00
   8   1    -0.01   0.14  -0.09     0.02  -0.52   0.39     0.03  -0.56   0.36
   9   1    -0.01  -0.14  -0.10    -0.04  -0.51  -0.41     0.04   0.54   0.38
  10   1     0.01  -0.56   0.35     0.00  -0.13   0.10     0.00  -0.13   0.08
  11   1     0.04   0.54   0.39    -0.01  -0.13  -0.11     0.01   0.13   0.09
  12   1    -0.01  -0.05  -0.04     0.00   0.02   0.02    -0.01  -0.06  -0.04
  13   1     0.04   0.00  -0.03     0.00  -0.00  -0.00     0.07   0.00  -0.06
  14   1    -0.01   0.06  -0.03    -0.00   0.03  -0.02    -0.01   0.07  -0.04
                     31                     32                     33
                        a                      a                      a 
 Frequencies --  3008.9367              3011.2620              3023.0059
 Red. masses --     1.9208                 1.9514                 1.3009
 Frc consts  --     0.0000                 0.0000                 0.0000
 IR Inten    --     9.3358                20.6715                13.9587
 Raman Activ --     0.0000                 0.0000                 0.0000
 Depolar     --     0.0000                 0.0000                 0.0000
 Atom AN      X      Y      Z        X      Y      Z        X      Y      Z
   1   7    -0.00  -0.00   0.00    -0.00   0.00   0.00    -0.00   0.00  -0.00
   2   6    -0.00   0.00  -0.02    -0.00  -0.01  -0.00     0.00  -0.00   0.01
   3   6     0.00   0.00  -0.03    -0.00  -0.04  -0.00     0.00  -0.00   0.02
   4   6     0.16   0.01  -0.23    -0.00  -0.29  -0.02     0.11  -0.00   0.12
   5   1     0.00  -0.00  -0.00     0.00   0.00   0.00    -0.00   0.00   0.00
   6   1     0.00   0.00  -0.00    -0.00   0.00  -0.00    -0.00  -0.00   0.00
   7   1     0.00   0.00  -0.00     0.00  -0.00  -0.00     0.00  -0.00  -0.00
   8   1     0.00  -0.07   0.04     0.00   0.01  -0.01     0.00   0.02  -0.02
   9   1     0.00   0.06   0.05    -0.00   0.01   0.01    -0.00  -0.02  -0.02
  10   1     0.00  -0.07   0.04    -0.00   0.05  -0.04    -0.00   0.04  -0.03
  11   1     0.00   0.06   0.04     0.00   0.06   0.04    -0.00  -0.04  -0.03
  12   1     0.05   0.21   0.13     0.07   0.52   0.43    -0.05  -0.51  -0.37
  13   1    -0.65  -0.00   0.56    -0.03  -0.04   0.02    -0.31  -0.00   0.29
  14   1     0.04  -0.26   0.14    -0.04   0.54  -0.39    -0.03   0.52  -0.33
                     34                     35                     36
                        a                      a                      a 
 Frequencies --  3302.3671              3302.5962              3315.6208
 Red. masses --     2.0540                 2.0524                 1.2592
 Frc consts  --     0.0000                 0.0000                 0.0000
 IR Inten    --    83.7342                85.6267                28.6925
 Raman Activ --     0.0000                 0.0000                 0.0000
 Depolar     --     0.0000                 0.0000                 0.0000
 Atom AN      X      Y      Z        X      Y      Z        X      Y      Z
   1   7    -0.06  -0.26   0.09    -0.12   0.11   0.23    -0.12   0.00  -0.07
   2   6    -0.00  -0.01   0.00    -0.00   0.00   0.01    -0.01   0.00  -0.01
   3   6     0.00   0.00  -0.00     0.00  -0.00  -0.00     0.00  -0.00   0.00
   4   6    -0.00  -0.00   0.00    -0.00   0.00   0.00     0.00  -0.00  -0.00
   5   1     0.03   0.36   0.29    -0.06  -0.51  -0.36     0.04   0.47   0.34
   6   1    -0.05   0.65  -0.44    -0.02   0.08  -0.03     0.02  -0.47   0.31
   7   1     0.23  -0.03  -0.20     0.54   0.01  -0.47     0.42   0.00  -0.39
   8   1     0.00   0.01  -0.01     0.00   0.00  -0.00     0.00  -0.01   0.01
   9   1     0.00   0.01   0.00     0.00  -0.01  -0.01     0.00   0.01   0.01
  10   1     0.00  -0.00   0.00     0.00   0.00  -0.00    -0.00   0.00  -0.00
  11   1    -0.00  -0.00  -0.00     0.00  -0.00  -0.00    -0.00  -0.00  -0.00
  12   1     0.00   0.00  -0.00    -0.00   0.00   0.00     0.00   0.00   0.00
  13   1     0.00   0.00  -0.00     0.00  -0.00  -0.00     0.00   0.00  -0.00
  14   1    -0.00  -0.00   0.00    -0.00  -0.00  -0.00     0.00  -0.00   0.00
