      -----------------------------------------------------------      
     |                   =====================                   |     
     |                           x T B                           |     
     |                   =====================                   |     
     |                         S. Grimme                         |     
     |          Mulliken Center for Theoretical Chemistry        |     
     |                    University of Bonn                     |     
      -----------------------------------------------------------      

   * xtb version 6.5.1 (fef0646) compiled by 'conda@b96dff2e9fd6' on 2023-01-04

   xtb is free software: you can redistribute it and/or modify it under
   the terms of the GNU Lesser General Public License as published by
   the Free Software Foundation, either version 3 of the License, or
   (at your option) any later version.
   
   xtb is distributed in the hope that it will be useful,
   but WITHOUT ANY WARRANTY; without even the implied warranty of
   MERCHANTABILITY or FITNESS FOR A PARTICULAR PURPOSE.  See the
   GNU Lesser General Public License for more details.
   
   Cite this work as:
   * C. Bannwarth, E. Caldeweyher, S. Ehlert, A. Hansen, P. Pracht,
     J. Seibert, S. Spicher, S. Grimme, WIREs Comput. Mol. Sci., 2020, 11,
     e01493. DOI: 10.1002/wcms.1493
   
   for GFN2-xTB:
   * C. Bannwarth, S. Ehlert and S. Grimme., J. Chem. Theory Comput., 2019,
     15, 1652-1671. DOI: 10.1021/acs.jctc.8b01176
   for GFN1-xTB:
   * S. Grimme, C. Bannwarth, P. Shushkov, J. Chem. Theory Comput., 2017,
     13, 1989-2009. DOI: 10.1021/acs.jctc.7b00118
   for GFN0-xTB:
   * P. Pracht, E. Caldeweyher, S. Ehlert, S. Grimme, ChemRxiv, 2019, preprint.
     DOI: 10.26434/chemrxiv.8326202.v1
   for GFN-FF:
   * S. Spicher and S. Grimme, Angew. Chem. Int. Ed., 2020, 59, 15665-15673.
     DOI: 10.1002/anie.202004239
   
   for ALPB and GBSA implicit solvation:
   * S. Ehlert, M. Stahn, S. Spicher, S. Grimme, J. Chem. Theory Comput.,
     2021, 17, 4250-4261. DOI: 10.1021/acs.jctc.1c00471
   
   for DFT-D4:
   * E. Caldeweyher, C. Bannwarth and S. Grimme, J. Chem. Phys., 2017,
     147, 034112. DOI: 10.1063/1.4993215
   * E. Caldeweyher, S. Ehlert, A. Hansen, H. Neugebauer, S. Spicher,
     C. Bannwarth and S. Grimme, J. Chem. Phys., 2019, 150, 154122.
     DOI: 10.1063/1.5090222
   * E. Caldeweyher, J.-M. Mewes, S. Ehlert and S. Grimme, Phys. Chem. Chem. Phys.
     2020, 22, 8499-8512. DOI: 10.1039/D0CP00502A
   
   for sTDA-xTB:
   * S. Grimme and C. Bannwarth, J. Chem. Phys., 2016, 145, 054103.
     DOI: 10.1063/1.4959605
   
   in the mass-spec context:
   * V. Asgeirsson, C. Bauer and S. Grimme, Chem. Sci., 2017, 8, 4879.
     DOI: 10.1039/c7sc00601b
   * J. Koopman and S. Grimme, ACS Omega 2019, 4, 12, 15120-15133.
     DOI: 10.1021/acsomega.9b02011
   
   for metadynamics refer to:
   * S. Grimme, J. Chem. Theory Comput., 2019, 155, 2847-2862
     DOI: 10.1021/acs.jctc.9b00143
   
   for SPH calculations refer to:
   * S. Spicher and S. Grimme, J. Chem. Theory Comput., 2021, 17, 1701-1714
     DOI: 10.1021/acs.jctc.0c01306
   
   with help from (in alphabetical order)
   P. Atkinson, C. Bannwarth, F. Bohle, G. Brandenburg, E. Caldeweyher
   M. Checinski, S. Dohm, S. Ehlert, S. Ehrlich, I. Gerasimov, C. Hölzer
   A. Katbashev, J. Koopman, C. Lavigne, S. Lehtola, F. März, M. Müller,
   F. Musil, H. Neugebauer, J. Pisarek, C. Plett, P. Pracht, F. Pultar,
   J. Seibert, P. Shushkov, S. Spicher, M. Stahn, M. Steiner, T. Strunk,
   J. Stückrath, T. Rose, and J. Unsleber
   
 * started run on 2023/01/24 at 16:48:26.321     

           -------------------------------------------------
          |                Calculation Setup                |
           -------------------------------------------------

          program call               : xtb init.xyz --opt -c 0 -u 0 -P 16 --alpb water
          hostname                   : gpg-woodward
          coordinate file            : init.xyz
          omp threads                :                    16

   ID    Z sym.   atoms
    1    7 N      1
    2    6 C      2, 3, 5-24
    3    8 O      4
    4   17 Cl     25
    5    1 H      26-43

molecular fragmentation (1/2 indicates fragments):
1111111111111111111111112111111111111111111
# atoms in fragment 1/2:    42     1
 fragment masses (1/2) :      312.39       35.45
CMA distance (Bohr)    :  16.242
constraining FC (au)   :  0.0500

           -------------------------------------------------
          |                 G F N 2 - x T B                 |
           -------------------------------------------------

        Reference                      10.1021/acs.jctc.8b01176
      * Hamiltonian:
        H0-scaling (s, p, d)           1.850000    2.230000    2.230000
        zeta-weighting                 0.500000
      * Dispersion:
        s8                             2.700000
        a1                             0.520000
        a2                             5.000000
        s9                             5.000000
      * Repulsion:
        kExp                           1.500000    1.000000
        rExp                           1.000000
      * Coulomb:
        alpha                          2.000000
        third order                    shell-resolved
        anisotropic                    true
        a3                             3.000000
        a5                             4.000000
        cn-shift                       1.200000
        cn-exp                         4.000000
        max-rad                        5.000000

      * Solvation model:               ALPB
        Solvent                        water
        Parameter file                 internal GFN2-xTB/ALPB
        Dielectric constant                8.0200E+01
        Reference state                gsolv [1 M gas/solution]
        Free energy shift                  1.0808E-03 Eh       6.7819E-01 kcal/mol
        Temperature                        2.9815E+02 K
        Density                            1.0000E+00 kg/L
        Solvent mass                       1.8000E+01 g/mol
        Interaction kernel             P16
        Born radius scaling (c1)           1.4744E+00
        Born radii integrator          GBOBC
        Born offset                        0.0000E+00 a0       0.0000E+00 AA
        H-bond correction              true
        Ion screening                  false
        Surface tension                    1.0000E-05 Eh       1.5569E+01 dyn/cm
        Grid points                               230 per atom

          ...................................................
          :                      SETUP                      :
          :.................................................:
          :  # basis functions                 124          :
          :  # atomic orbitals                 123          :
          :  # shells                           69          :
          :  # electrons                       124          :
          :  max. iterations                   250          :
          :  Hamiltonian                  GFN2-xTB          :
          :  restarted?                      false          :
          :  GBSA solvation                   true          :
          :  PC potential                    false          :
          :  electronic temp.          300.0000000     K    :
          :  accuracy                    1.0000000          :
          :  -> integral cutoff          0.2500000E+02      :
          :  -> integral neglect         0.1000000E-07      :
          :  -> SCF convergence          0.1000000E-05 Eh   :
          :  -> wf. convergence          0.1000000E-03 e    :
          :  Broyden damping             0.4000000          :
          ...................................................

 iter      E             dE          RMSdq      gap      omega  full diag
   1    -68.8408256 -0.688408E+02  0.420E+00    1.62       0.0  T
   2    -68.9350589 -0.942333E-01  0.241E+00    1.61       1.0  T
   3    -68.9271652  0.789375E-02  0.113E+00    1.63       1.0  T
   4    -68.9405017 -0.133365E-01  0.526E-01    1.60       1.0  T
   5    -68.9480094 -0.750770E-02  0.232E-01    1.61       1.0  T
   6    -68.9485377 -0.528291E-03  0.177E-01    1.60       1.0  T
   7    -68.9488891 -0.351407E-03  0.932E-02    1.60       1.0  T
   8    -68.9490367 -0.147682E-03  0.498E-02    1.60       1.0  T
   9    -68.9490657 -0.289501E-04  0.247E-02    1.60       1.0  T
  10    -68.9490742 -0.847304E-05  0.910E-03    1.60       1.7  T
  11    -68.9490750 -0.854130E-06  0.377E-03    1.60       4.0  T
  12    -68.9490752 -0.156051E-06  0.165E-03    1.60       9.3  T
  13    -68.9490752 -0.246381E-07  0.875E-04    1.60      17.4  T
  14    -68.9490752 -0.607569E-08  0.512E-04    1.60      29.8  T

   *** convergence criteria satisfied after 14 iterations ***

         #    Occupation            Energy/Eh            Energy/eV
      -------------------------------------------------------------
         1        2.0000           -1.0069117             -27.3995
       ...           ...                  ...                  ...
        56        2.0000           -0.4028180             -10.9612
        57        2.0000           -0.4022859             -10.9468
        58        2.0000           -0.3987010             -10.8492
        59        2.0000           -0.3972826             -10.8106
        60        2.0000           -0.3945001             -10.7349
        61        2.0000           -0.3892865             -10.5930
        62        2.0000           -0.3444316              -9.3725 (HOMO)
        63                         -0.2855115              -7.7692 (LUMO)
        64                         -0.2273439              -6.1863
        65                         -0.2240768              -6.0974
        66                         -0.2228424              -6.0638
        67                         -0.2210482              -6.0150
       ...                                ...                  ...
       123                          0.7204565              19.6046
      -------------------------------------------------------------
                  HL-Gap            0.0589201 Eh            1.6033 eV
             Fermi-level           -0.3149715 Eh           -8.5708 eV

 SCC (total)                   0 d,  0 h,  0 min,  0.159 sec
 SCC setup                      ...        0 min,  0.001 sec (  0.427%)
 Dispersion                     ...        0 min,  0.001 sec (  0.557%)
 classical contributions        ...        0 min,  0.000 sec (  0.048%)
 integral evaluation            ...        0 min,  0.003 sec (  2.054%)
 iterations                     ...        0 min,  0.146 sec ( 91.668%)
 molecular gradient             ...        0 min,  0.007 sec (  4.494%)
 printout                       ...        0 min,  0.001 sec (  0.505%)

         :::::::::::::::::::::::::::::::::::::::::::::::::::::
         ::                     SUMMARY                     ::
         :::::::::::::::::::::::::::::::::::::::::::::::::::::
         :: total energy             -67.880089102182 Eh    ::
         :: total w/o Gsasa/hb       -67.871102584903 Eh    ::
         :: gradient norm              0.093249819450 Eh/a0 ::
         :: HOMO-LUMO gap              1.603297485808 eV    ::
         ::.................................................::
         :: SCC energy               -68.949075211079 Eh    ::
         :: -> isotropic ES            0.130221758405 Eh    ::
         :: -> anisotropic ES         -0.024290439867 Eh    ::
         :: -> anisotropic XC          0.022946169236 Eh    ::
         :: -> dispersion             -0.051665632198 Eh    ::
         :: -> Gsolv                  -0.070675607454 Eh    ::
         ::    -> Gelec               -0.061689090175 Eh    ::
         ::    -> Gsasa               -0.003361570403 Eh    ::
         ::    -> Ghb                 -0.006705706574 Eh    ::
         ::    -> Gshift               0.001080759698 Eh    ::
         :: repulsion energy           1.069043593879 Eh    ::
         :: add. restraining           0.000000000000 Eh    ::
         :: total charge               0.000000000000 e     ::
         :::::::::::::::::::::::::::::::::::::::::::::::::::::

      ----------------------------------------------------------- 
     |                   =====================                   |
     |                        A N C O P T                        |
     |                   =====================                   |
     |               Approximate Normal Coordinate               |
     |                Rational Function Optimizer                |
      ----------------------------------------------------------- 

          ...................................................
          :                      SETUP                      :
          :.................................................:
          :   optimization level            normal          :
          :   max. optcycles                   200          :
          :   ANC micro-cycles                  20          :
          :   degrees of freedom               123          :
          :.................................................:
          :   RF solver                   davidson          :
          :   write xtbopt.log                true          :
          :   linear?                        false          :
          :   energy convergence         0.5000000E-05 Eh   :
          :   grad. convergence          0.1000000E-02 Eh/α :
          :   maximium RF displ.         1.0000000          :
          :   Hlow (freq-cutoff)         0.1000000E-01      :
          :   Hmax (freq-cutoff)         5.0000000          :
          :   S6 in model hess.         20.0000000          :
          ...................................................

generating ANC from model Hessian ...
Using Lindh-Hessian (1995)
 Shifting diagonal of input Hessian by    1.1309101871969771E-002
 Lowest  eigenvalues of input Hessian
    0.010000    0.000000    0.000000    0.000000    0.000000    0.000000
    0.000000    0.011603    0.011705    0.012052    0.012827    0.013163
    0.013795    0.015032    0.017239    0.017302    0.017741    0.019685
 Highest eigenvalues
    1.928976    1.956533    2.017158    2.044157    2.107165    2.129589


........................................................................
.............................. CYCLE    1 ..............................
........................................................................
   1    -68.9490752 -0.689491E+02  0.166E-04    1.60       0.0  T
   2    -68.9490752 -0.214143E-09  0.118E-04    1.60     129.0  T
   3    -68.9490752 -0.878799E-10  0.908E-05    1.60     168.0  T
     SCC iter.                  ...        0 min,  0.032 sec
     gradient                   ...        0 min,  0.007 sec
 * total energy  :   -67.8800891 Eh     change       -0.3722704E-08 Eh
   gradient norm :     0.0932489 Eh/α   predicted     0.0000000E+00 (-100.00%)
   displ. norm   :     0.4259051 α      lambda       -0.1346143E-01
   maximum displ.:     0.2658579 α      in ANC's #1, #13, #14, ...

........................................................................
.............................. CYCLE    2 ..............................
........................................................................
   1    -68.9830066 -0.689830E+02  0.169E-01    1.74       0.0  T
   2    -68.9830820 -0.754195E-04  0.101E-01    1.74       1.0  T
   3    -68.9830523  0.296878E-04  0.400E-02    1.74       1.0  T
   4    -68.9830973 -0.450064E-04  0.159E-02    1.74       1.0  T
   5    -68.9831017 -0.440651E-05  0.882E-03    1.74       1.7  T
   6    -68.9831025 -0.725370E-06  0.663E-03    1.74       2.3  T
   7    -68.9831030 -0.551129E-06  0.302E-03    1.74       5.1  T
   8    -68.9831031 -0.127360E-06  0.160E-03    1.74       9.5  T
   9    -68.9831032 -0.280058E-07  0.735E-04    1.74      20.8  T
  10    -68.9831032 -0.105256E-07  0.265E-04    1.74      57.6  T
     SCC iter.                  ...        0 min,  0.103 sec
     gradient                   ...        0 min,  0.007 sec
 * total energy  :   -67.8888726 Eh     change       -0.8783467E-02 Eh
   gradient norm :     0.0475029 Eh/α   predicted    -0.7972133E-02 (  -9.24%)
   displ. norm   :     0.2389328 α      lambda       -0.4768267E-02
   maximum displ.:     0.0918612 α      in ANC's #5, #7, #23, ...

........................................................................
.............................. CYCLE    3 ..............................
........................................................................
   1    -69.0051084 -0.690051E+02  0.141E-01    1.87       0.0  T
   2    -69.0051341 -0.256205E-04  0.840E-02    1.87       1.0  T
   3    -69.0051092  0.248569E-04  0.302E-02    1.87       1.0  T
   4    -69.0051430 -0.337990E-04  0.775E-03    1.87       2.0  T
   5    -69.0051439 -0.906720E-06  0.465E-03    1.87       3.3  T
   6    -69.0051441 -0.173159E-06  0.304E-03    1.87       5.0  T
   7    -69.0051442 -0.109717E-06  0.168E-03    1.87       9.1  T
   8    -69.0051442 -0.287527E-07  0.107E-03    1.87      14.3  T
   9    -69.0051442 -0.149358E-07  0.438E-04    1.87      34.8  T
  10    -69.0051442 -0.294104E-08  0.172E-04    1.87      88.8  T
     SCC iter.                  ...        0 min,  0.099 sec
     gradient                   ...        0 min,  0.007 sec
 * total energy  :   -67.8912039 Eh     change       -0.2331309E-02 Eh
   gradient norm :     0.0119500 Eh/α   predicted    -0.2520290E-02 (   8.11%)
   displ. norm   :     0.1933999 α      lambda       -0.6998152E-03
   maximum displ.:     0.1323974 α      in ANC's #1, #5, #7, ...

........................................................................
.............................. CYCLE    4 ..............................
........................................................................
   1    -69.0012063 -0.690012E+02  0.429E-02    1.87       0.0  T
   2    -69.0012077 -0.140167E-05  0.261E-02    1.87       1.0  T
   3    -69.0012071  0.580459E-06  0.678E-03    1.87       2.2  T
   4    -69.0012085 -0.144733E-05  0.394E-03    1.87       3.9  T
   5    -69.0012086 -0.123072E-06  0.270E-03    1.87       5.7  T
   6    -69.0012087 -0.714359E-07  0.145E-03    1.87      10.5  T
   7    -69.0012088 -0.414631E-07  0.576E-04    1.87      26.5  T
   8    -69.0012088 -0.357693E-08  0.292E-04    1.87      52.3  T
     SCC iter.                  ...        0 min,  0.080 sec
     gradient                   ...        0 min,  0.007 sec
 * total energy  :   -67.8917596 Eh     change       -0.5557524E-03 Eh
   gradient norm :     0.0065247 Eh/α   predicted    -0.3630059E-03 ( -34.68%)
   displ. norm   :     0.4271480 α      lambda       -0.9485644E-03
   maximum displ.:     0.2675807 α      in ANC's #1, #5, #7, ...

........................................................................
.............................. CYCLE    5 ..............................
........................................................................
   1    -68.9963917 -0.689964E+02  0.812E-02    1.86       0.0  T
   2    -68.9963954 -0.376844E-05  0.494E-02    1.86       1.0  T
   3    -68.9963959 -0.504965E-06  0.123E-02    1.86       1.2  T
   4    -68.9963990 -0.309302E-05  0.853E-03    1.86       1.8  T
   5    -68.9963997 -0.625291E-06  0.495E-03    1.86       3.1  T
   6    -68.9964000 -0.351586E-06  0.219E-03    1.86       7.0  T
   7    -68.9964001 -0.691663E-07  0.101E-03    1.86      15.0  T
   8    -68.9964001 -0.880479E-08  0.433E-04    1.86      35.2  T
   9    -68.9964001 -0.239359E-08  0.133E-04    1.86     114.6  T
     SCC iter.                  ...        0 min,  0.089 sec
     gradient                   ...        0 min,  0.007 sec
 * total energy  :   -67.8923886 Eh     change       -0.6289883E-03 Eh
   gradient norm :     0.0072780 Eh/α   predicted    -0.5608239E-03 ( -10.84%)
   displ. norm   :     0.3408240 α      lambda       -0.5009436E-03
   maximum displ.:     0.1892652 α      in ANC's #5, #1, #7, ...

........................................................................
.............................. CYCLE    6 ..............................
........................................................................
   1    -68.9953595 -0.689954E+02  0.624E-02    1.86       0.0  T
   2    -68.9953613 -0.180219E-05  0.379E-02    1.86       1.0  T
   3    -68.9953626 -0.131194E-05  0.861E-03    1.86       1.8  T
   4    -68.9953634 -0.780372E-06  0.678E-03    1.86       2.2  T
   5    -68.9953639 -0.493731E-06  0.351E-03    1.86       4.3  T
   6    -68.9953641 -0.197784E-06  0.136E-03    1.86      11.2  T
   7    -68.9953641 -0.282591E-07  0.570E-04    1.86      26.7  T
   8    -68.9953641 -0.272826E-08  0.281E-04    1.86      54.4  T
     SCC iter.                  ...        0 min,  0.073 sec
     gradient                   ...        0 min,  0.006 sec
 * total energy  :   -67.8928327 Eh     change       -0.4440735E-03 Eh
   gradient norm :     0.0091437 Eh/α   predicted    -0.2795691E-03 ( -37.04%)
   displ. norm   :     0.6769750 α      lambda       -0.1180348E-02
   maximum displ.:     0.3668929 α      in ANC's #5, #1, #3, ...

........................................................................
.............................. CYCLE    7 ..............................
........................................................................
   1    -68.9953773 -0.689954E+02  0.122E-01    1.84       0.0  T
   2    -68.9953866 -0.929105E-05  0.748E-02    1.84       1.0  T
   3    -68.9953935 -0.691453E-05  0.191E-02    1.84       1.0  T
   4    -68.9953968 -0.326620E-05  0.152E-02    1.84       1.0  T
   5    -68.9953995 -0.275549E-05  0.869E-03    1.84       1.8  T
   6    -68.9954006 -0.105968E-05  0.311E-03    1.84       4.9  T
   7    -68.9954008 -0.201730E-06  0.101E-03    1.84      15.1  T
   8    -68.9954008 -0.526428E-08  0.548E-04    1.84      27.8  T
   9    -68.9954008 -0.195300E-08  0.175E-04    1.84      87.2  T
     SCC iter.                  ...        0 min,  0.079 sec
     gradient                   ...        0 min,  0.006 sec
 * total energy  :   -67.8938733 Eh     change       -0.1040623E-02 Eh
   gradient norm :     0.0101076 Eh/α   predicted    -0.8606484E-03 ( -17.29%)
   displ. norm   :     0.6767185 α      lambda       -0.1473146E-02
   maximum displ.:     0.3601483 α      in ANC's #5, #13, #1, ...

........................................................................
.............................. CYCLE    8 ..............................
........................................................................
   1    -68.9981437 -0.689981E+02  0.127E-01    1.83       0.0  T
   2    -68.9981600 -0.162576E-04  0.791E-02    1.83       1.0  T
   3    -68.9981676 -0.765267E-05  0.236E-02    1.83       1.0  T
   4    -68.9981739 -0.626999E-05  0.182E-02    1.83       1.0  T
   5    -68.9981777 -0.376969E-05  0.120E-02    1.83       1.3  T
   6    -68.9981794 -0.167909E-05  0.470E-03    1.83       3.2  T
   7    -68.9981799 -0.536144E-06  0.107E-03    1.83      14.2  T
   8    -68.9981799 -0.830444E-08  0.618E-04    1.83      24.7  T
   9    -68.9981799 -0.237570E-08  0.277E-04    1.83      55.1  T
     SCC iter.                  ...        0 min,  0.078 sec
     gradient                   ...        0 min,  0.006 sec
 * total energy  :   -67.8950973 Eh     change       -0.1224008E-02 Eh
   gradient norm :     0.0100860 Eh/α   predicted    -0.1073887E-02 ( -12.26%)
   displ. norm   :     0.5742838 α      lambda       -0.1349174E-02
   maximum displ.:     0.3341143 α      in ANC's #13, #5, #3, ...

........................................................................
.............................. CYCLE    9 ..............................
........................................................................
   1    -69.0032595 -0.690033E+02  0.117E-01    1.83       0.0  T
   2    -69.0032862 -0.267343E-04  0.730E-02    1.83       1.0  T
   3    -69.0032922 -0.594539E-05  0.262E-02    1.83       1.0  T
   4    -69.0032989 -0.672012E-05  0.188E-02    1.83       1.0  T
   5    -69.0033036 -0.475397E-05  0.130E-02    1.83       1.2  T
   6    -69.0033052 -0.159266E-05  0.584E-03    1.83       2.6  T
   7    -69.0033061 -0.834067E-06  0.119E-03    1.83      12.8  T
   8    -69.0033061 -0.129397E-07  0.677E-04    1.83      22.5  T
   9    -69.0033061 -0.467870E-08  0.330E-04    1.83      46.3  T
     SCC iter.                  ...        0 min,  0.079 sec
     gradient                   ...        0 min,  0.006 sec
 * total energy  :   -67.8960486 Eh     change       -0.9512862E-03 Eh
   gradient norm :     0.0099985 Eh/α   predicted    -0.8970672E-03 (  -5.70%)
   displ. norm   :     0.7214145 α      lambda       -0.1025396E-02
   maximum displ.:     0.3747129 α      in ANC's #5, #1, #13, ...

........................................................................
.............................. CYCLE   10 ..............................
........................................................................
   1    -69.0001534 -0.690002E+02  0.132E-01    1.84       0.0  T
   2    -69.0001743 -0.208808E-04  0.843E-02    1.84       1.0  T
   3    -69.0001933 -0.189753E-04  0.297E-02    1.84       1.0  T
   4    -69.0001997 -0.644970E-05  0.234E-02    1.84       1.0  T
   5    -69.0002064 -0.666657E-05  0.123E-02    1.84       1.2  T
   6    -69.0002083 -0.193068E-05  0.387E-03    1.84       3.9  T
   7    -69.0002087 -0.383606E-06  0.109E-03    1.84      14.0  T
   8    -69.0002087 -0.820755E-08  0.561E-04    1.84      27.2  T
   9    -69.0002087 -0.230740E-08  0.199E-04    1.84      76.8  T
     SCC iter.                  ...        0 min,  0.078 sec
     gradient                   ...        0 min,  0.006 sec
 * total energy  :   -67.8966144 Eh     change       -0.5657775E-03 Eh
   gradient norm :     0.0085673 Eh/α   predicted    -0.7795261E-03 (  37.78%)
   displ. norm   :     0.2717226 α      lambda       -0.5345155E-03
   maximum displ.:     0.1815854 α      in ANC's #13, #3, #5, ...

........................................................................
.............................. CYCLE   11 ..............................
........................................................................
   1    -69.0029988 -0.690030E+02  0.520E-02    1.85       0.0  T
   2    -69.0030027 -0.395910E-05  0.322E-02    1.85       1.0  T
   3    -69.0030046 -0.188797E-05  0.105E-02    1.85       1.5  T
   4    -69.0030054 -0.797607E-06  0.793E-03    1.85       1.9  T
   5    -69.0030061 -0.678809E-06  0.536E-03    1.85       2.8  T
   6    -69.0030064 -0.311758E-06  0.199E-03    1.85       7.7  T
   7    -69.0030065 -0.106503E-06  0.542E-04    1.85      28.2  T
   8    -69.0030065 -0.883205E-09  0.269E-04    1.85      56.6  T
     SCC iter.                  ...        0 min,  0.071 sec
     gradient                   ...        0 min,  0.006 sec
 * total energy  :   -67.8970014 Eh     change       -0.3870258E-03 Eh
   gradient norm :     0.0058867 Eh/α   predicted    -0.2869976E-03 ( -25.85%)
   displ. norm   :     0.3779081 α      lambda       -0.3931106E-03
   maximum displ.:     0.2256875 α      in ANC's #13, #3, #5, ...

........................................................................
.............................. CYCLE   12 ..............................
........................................................................
   1    -69.0020950 -0.690021E+02  0.672E-02    1.85       0.0  T
   2    -69.0020992 -0.415182E-05  0.423E-02    1.85       1.0  T
   3    -69.0021034 -0.424183E-05  0.125E-02    1.85       1.2  T
   4    -69.0021044 -0.955729E-06  0.968E-03    1.85       1.6  T
   5    -69.0021055 -0.110323E-05  0.484E-03    1.85       3.2  T
   6    -69.0021058 -0.341060E-06  0.153E-03    1.85      10.0  T
   7    -69.0021059 -0.620820E-07  0.536E-04    1.85      28.4  T
   8    -69.0021059 -0.278875E-08  0.259E-04    1.85      58.8  T
     SCC iter.                  ...        0 min,  0.068 sec
     gradient                   ...        0 min,  0.006 sec
 * total energy  :   -67.8972719 Eh     change       -0.2704993E-03 Eh
   gradient norm :     0.0055824 Eh/α   predicted    -0.2246458E-03 ( -16.95%)
   displ. norm   :     0.4132770 α      lambda       -0.2519892E-03
   maximum displ.:     0.2279315 α      in ANC's #3, #13, #5, ...

........................................................................
.............................. CYCLE   13 ..............................
........................................................................
   1    -69.0024194 -0.690024E+02  0.671E-02    1.84       0.0  T
   2    -69.0024241 -0.473807E-05  0.432E-02    1.84       1.0  T
   3    -69.0024300 -0.587555E-05  0.144E-02    1.84       1.1  T
   4    -69.0024312 -0.114860E-05  0.113E-02    1.84       1.4  T
   5    -69.0024329 -0.172528E-05  0.419E-03    1.84       3.6  T
   6    -69.0024332 -0.314580E-06  0.138E-03    1.84      11.0  T
   7    -69.0024332 -0.429832E-07  0.442E-04    1.84      34.5  T
   8    -69.0024332 -0.904322E-09  0.206E-04    1.84      74.0  T
     SCC iter.                  ...        0 min,  0.070 sec
     gradient                   ...        0 min,  0.006 sec
 * total energy  :   -67.8974457 Eh     change       -0.1737709E-03 Eh
   gradient norm :     0.0062280 Eh/α   predicted    -0.1475182E-03 ( -15.11%)
   displ. norm   :     0.2906268 α      lambda       -0.2239598E-03
   maximum displ.:     0.1832817 α      in ANC's #3, #13, #5, ...

........................................................................
.............................. CYCLE   14 ..............................
........................................................................
   1    -69.0037506 -0.690038E+02  0.469E-02    1.84       0.0  T
   2    -69.0037534 -0.275924E-05  0.290E-02    1.84       1.0  T
   3    -69.0037536 -0.260467E-06  0.107E-02    1.84       1.4  T
   4    -69.0037555 -0.187480E-05  0.697E-03    1.84       2.2  T
   5    -69.0037560 -0.454562E-06  0.466E-03    1.84       3.3  T
   6    -69.0037562 -0.205772E-06  0.241E-03    1.84       6.3  T
   7    -69.0037563 -0.120136E-06  0.495E-04    1.84      30.8  T
   8    -69.0037563 -0.510767E-09  0.280E-04    1.84      54.5  T
     SCC iter.                  ...        0 min,  0.070 sec
     gradient                   ...        0 min,  0.006 sec
 * total energy  :   -67.8975954 Eh     change       -0.1497277E-03 Eh
   gradient norm :     0.0048143 Eh/α   predicted    -0.1214389E-03 ( -18.89%)
   displ. norm   :     0.3223770 α      lambda       -0.1754201E-03
   maximum displ.:     0.2262253 α      in ANC's #3, #13, #5, ...

........................................................................
.............................. CYCLE   15 ..............................
........................................................................
   1    -69.0036164 -0.690036E+02  0.521E-02    1.84       0.0  T
   2    -69.0036187 -0.230032E-05  0.326E-02    1.84       1.0  T
   3    -69.0036206 -0.192253E-05  0.106E-02    1.84       1.4  T
   4    -69.0036217 -0.114082E-05  0.816E-03    1.84       1.9  T
   5    -69.0036225 -0.750345E-06  0.362E-03    1.84       4.2  T
   6    -69.0036227 -0.227360E-06  0.126E-03    1.84      12.2  T
   7    -69.0036227 -0.299260E-07  0.479E-04    1.84      31.8  T
   8    -69.0036227 -0.101363E-08  0.225E-04    1.84      67.9  T
     SCC iter.                  ...        0 min,  0.069 sec
     gradient                   ...        0 min,  0.006 sec
 * total energy  :   -67.8977290 Eh     change       -0.1336082E-03 Eh
   gradient norm :     0.0044905 Eh/α   predicted    -0.9682960E-04 ( -27.53%)
   displ. norm   :     0.2886490 α      lambda       -0.2356566E-03
   maximum displ.:     0.1991284 α      in ANC's #3, #10, #6, ...

........................................................................
.............................. CYCLE   16 ..............................
........................................................................
   1    -69.0041973 -0.690042E+02  0.594E-02    1.84       0.0  T
   2    -69.0041990 -0.176082E-05  0.350E-02    1.84       1.0  T
   3    -69.0041985  0.572454E-06  0.751E-03    1.84       2.0  T
   4    -69.0041998 -0.136795E-05  0.390E-03    1.84       3.9  T
   5    -69.0042000 -0.136029E-06  0.276E-03    1.84       5.5  T
   6    -69.0042000 -0.598421E-07  0.174E-03    1.84       8.8  T
   7    -69.0042001 -0.490895E-07  0.677E-04    1.84      22.5  T
   8    -69.0042001 -0.438145E-08  0.340E-04    1.84      44.8  T
     SCC iter.                  ...        0 min,  0.070 sec
     gradient                   ...        0 min,  0.006 sec
 * total energy  :   -67.8978891 Eh     change       -0.1600472E-03 Eh
   gradient norm :     0.0071576 Eh/α   predicted    -0.1276469E-03 ( -20.24%)
   displ. norm   :     0.4015311 α      lambda       -0.2143033E-03
   maximum displ.:     0.3115257 α      in ANC's #3, #10, #6, ...

........................................................................
.............................. CYCLE   17 ..............................
........................................................................
   1    -69.0031278 -0.690031E+02  0.691E-02    1.84       0.0  T
   2    -69.0031302 -0.239105E-05  0.417E-02    1.84       1.0  T
   3    -69.0031321 -0.190305E-05  0.949E-03    1.84       1.6  T
   4    -69.0031327 -0.670965E-06  0.752E-03    1.84       2.0  T
   5    -69.0031333 -0.598356E-06  0.424E-03    1.84       3.6  T
   6    -69.0031336 -0.229291E-06  0.167E-03    1.84       9.1  T
   7    -69.0031336 -0.586196E-07  0.628E-04    1.84      24.3  T
   8    -69.0031336 -0.381208E-08  0.280E-04    1.84      54.4  T
     SCC iter.                  ...        0 min,  0.069 sec
     gradient                   ...        0 min,  0.006 sec
 * total energy  :   -67.8980453 Eh     change       -0.1561869E-03 Eh
   gradient norm :     0.0074465 Eh/α   predicted    -0.1244287E-03 ( -20.33%)
   displ. norm   :     0.1646694 α      lambda       -0.1411334E-03
   maximum displ.:     0.1227850 α      in ANC's #3, #4, #7, ...

........................................................................
.............................. CYCLE   18 ..............................
........................................................................
   1    -69.0030343 -0.690030E+02  0.299E-02    1.84       0.0  T
   2    -69.0030346 -0.255628E-06  0.175E-02    1.84       1.0  T
   3    -69.0030344  0.193578E-06  0.313E-03    1.84       4.9  T
   4    -69.0030347 -0.328423E-06  0.127E-03    1.84      12.0  T
   5    -69.0030347 -0.971775E-08  0.851E-04    1.84      17.9  T
   6    -69.0030347 -0.746778E-08  0.527E-04    1.84      28.9  T
     SCC iter.                  ...        0 min,  0.053 sec
     gradient                   ...        0 min,  0.006 sec
 * total energy  :   -67.8981652 Eh     change       -0.1199388E-03 Eh
   gradient norm :     0.0048790 Eh/α   predicted    -0.7248563E-04 ( -39.56%)
   displ. norm   :     0.2555297 α      lambda       -0.2052818E-03
   maximum displ.:     0.1869057 α      in ANC's #3, #4, #7, ...

........................................................................
.............................. CYCLE   19 ..............................
........................................................................
   1    -69.0028440 -0.690028E+02  0.447E-02    1.84       0.0  T
   2    -69.0028447 -0.723601E-06  0.261E-02    1.84       1.0  T
   3    -69.0028444  0.288970E-06  0.498E-03    1.84       3.1  T
   4    -69.0028451 -0.695224E-06  0.239E-03    1.84       6.4  T
   5    -69.0028451 -0.356421E-07  0.162E-03    1.84       9.4  T
   6    -69.0028452 -0.286590E-07  0.960E-04    1.84      15.9  T
   7    -69.0028452 -0.116527E-07  0.508E-04    1.84      30.0  T
     SCC iter.                  ...        0 min,  0.062 sec
     gradient                   ...        0 min,  0.007 sec
 * total energy  :   -67.8983183 Eh     change       -0.1530650E-03 Eh
   gradient norm :     0.0035640 Eh/α   predicted    -0.1093459E-03 ( -28.56%)
   displ. norm   :     0.2614134 α      lambda       -0.1315406E-03
   maximum displ.:     0.1982038 α      in ANC's #3, #4, #7, ...

........................................................................
.............................. CYCLE   20 ..............................
........................................................................
   1    -69.0025771 -0.690026E+02  0.411E-02    1.84       0.0  T
   2    -69.0025776 -0.519017E-06  0.242E-02    1.84       1.0  T
   3    -69.0025780 -0.339498E-06  0.369E-03    1.84       4.1  T
   4    -69.0025781 -0.107280E-06  0.288E-03    1.84       5.3  T
   5    -69.0025782 -0.872039E-07  0.144E-03    1.84      10.6  T
   6    -69.0025782 -0.278406E-07  0.790E-04    1.84      19.3  T
   7    -69.0025782 -0.768610E-08  0.343E-04    1.84      44.5  T
     SCC iter.                  ...        0 min,  0.063 sec
     gradient                   ...        0 min,  0.006 sec
 * total energy  :   -67.8984256 Eh     change       -0.1073776E-03 Eh
   gradient norm :     0.0053494 Eh/α   predicted    -0.7026754E-04 ( -34.56%)
   displ. norm   :     0.2690363 α      lambda       -0.1290860E-03
   maximum displ.:     0.2063511 α      in ANC's #3, #4, #7, ...
 * RMSD in coord.:     0.8417582 α      energy gain  -0.1833654E-01 Eh

generating ANC from model Hessian ...
Using Lindh-Hessian (1995)
 Shifting diagonal of input Hessian by    9.9896912276701173E-003
 Lowest  eigenvalues of input Hessian
    0.000000    0.000000    0.000000    0.000000    0.000000    0.000000
    0.010000    0.010192    0.010607    0.010703    0.011364    0.011904
    0.012696    0.013874    0.015989    0.016578    0.016954    0.018446
 Highest eigenvalues
    1.981590    1.998455    2.050226    2.077174    2.131411    2.149082


........................................................................
.............................. CYCLE   21 ..............................
........................................................................
   1    -69.0028129 -0.690028E+02  0.397E-02    1.84       0.0  T
   2    -69.0028135 -0.620957E-06  0.238E-02    1.84       1.0  T
   3    -69.0028140 -0.537750E-06  0.484E-03    1.84       3.1  T
   4    -69.0028142 -0.177851E-06  0.389E-03    1.84       3.9  T
   5    -69.0028144 -0.196775E-06  0.141E-03    1.84      10.8  T
   6    -69.0028145 -0.317737E-07  0.733E-04    1.84      20.8  T
   7    -69.0028145 -0.447292E-08  0.215E-04    1.84      70.9  T
     SCC iter.                  ...        0 min,  0.063 sec
     gradient                   ...        0 min,  0.006 sec
 * total energy  :   -67.8985372 Eh     change       -0.1116028E-03 Eh
   gradient norm :     0.0053805 Eh/α   predicted     0.0000000E+00 (-100.00%)
   displ. norm   :     0.0481309 α      lambda       -0.4514661E-04
   maximum displ.:     0.0249123 α      in ANC's #4, #1, #3, ...

........................................................................
.............................. CYCLE   22 ..............................
........................................................................
   1    -69.0036940 -0.690037E+02  0.109E-02    1.84       0.0  T
   2    -69.0036941 -0.122130E-06  0.652E-03    1.84       2.3  T
   3    -69.0036940  0.118511E-06  0.242E-03    1.84       6.3  T
   4    -69.0036942 -0.179422E-06  0.923E-04    1.84      16.5  T
   5    -69.0036942 -0.663304E-08  0.666E-04    1.84      22.9  T
     SCC iter.                  ...        0 min,  0.045 sec
     gradient                   ...        0 min,  0.006 sec
 * total energy  :   -67.8985826 Eh     change       -0.4540660E-04 Eh
   gradient norm :     0.0027853 Eh/α   predicted    -0.2730066E-04 ( -39.88%)
   displ. norm   :     0.1472775 α      lambda       -0.1005067E-03
   maximum displ.:     0.0743427 α      in ANC's #1, #4, #3, ...

........................................................................
.............................. CYCLE   23 ..............................
........................................................................
   1    -69.0046931 -0.690047E+02  0.295E-02    1.84       0.0  T
   2    -69.0046936 -0.487191E-06  0.176E-02    1.84       1.0  T
   3    -69.0046930  0.559039E-06  0.555E-03    1.84       2.7  T
   4    -69.0046940 -0.924867E-06  0.241E-03    1.84       6.3  T
   5    -69.0046940 -0.337813E-07  0.174E-03    1.84       8.8  T
   6    -69.0046940 -0.365045E-07  0.930E-04    1.84      16.4  T
   7    -69.0046940 -0.125572E-07  0.370E-04    1.84      41.3  T
     SCC iter.                  ...        0 min,  0.062 sec
     gradient                   ...        0 min,  0.007 sec
 * total energy  :   -67.8986500 Eh     change       -0.6732681E-04 Eh
   gradient norm :     0.0025136 Eh/α   predicted    -0.5134514E-04 ( -23.74%)
   displ. norm   :     0.1240942 α      lambda       -0.4424588E-04
   maximum displ.:     0.0698928 α      in ANC's #1, #4, #3, ...

........................................................................
.............................. CYCLE   24 ..............................
........................................................................
   1    -69.0046710 -0.690047E+02  0.229E-02    1.84       0.0  T
   2    -69.0046711 -0.159951E-06  0.136E-02    1.84       1.1  T
   3    -69.0046711  0.451241E-07  0.290E-03    1.84       5.3  T
   4    -69.0046713 -0.195246E-06  0.170E-03    1.84       9.0  T
   5    -69.0046713 -0.204885E-07  0.106E-03    1.84      14.3  T
   6    -69.0046713 -0.162936E-07  0.508E-04    1.84      30.0  T
   7    -69.0046713 -0.380356E-08  0.214E-04    1.84      71.4  T
     SCC iter.                  ...        0 min,  0.062 sec
     gradient                   ...        0 min,  0.007 sec
 * total energy  :   -67.8986879 Eh     change       -0.3788902E-04 Eh
   gradient norm :     0.0041350 Eh/α   predicted    -0.2262778E-04 ( -40.28%)
   displ. norm   :     0.1743405 α      lambda       -0.6552564E-04
   maximum displ.:     0.0999919 α      in ANC's #1, #4, #3, ...

........................................................................
.............................. CYCLE   25 ..............................
........................................................................
   1    -69.0041820 -0.690042E+02  0.320E-02    1.84       0.0  T
   2    -69.0041823 -0.232125E-06  0.191E-02    1.84       1.0  T
   3    -69.0041824 -0.142250E-06  0.286E-03    1.84       5.3  T
   4    -69.0041825 -0.922206E-07  0.216E-03    1.84       7.0  T
   5    -69.0041825 -0.417092E-07  0.114E-03    1.84      13.4  T
   6    -69.0041826 -0.219656E-07  0.548E-04    1.84      27.8  T
   7    -69.0041826 -0.299497E-08  0.242E-04    1.84      63.1  T
     SCC iter.                  ...        0 min,  0.063 sec
     gradient                   ...        0 min,  0.006 sec
 * total energy  :   -67.8987469 Eh     change       -0.5906780E-04 Eh
   gradient norm :     0.0042301 Eh/α   predicted    -0.3375948E-04 ( -42.85%)
   displ. norm   :     0.2875015 α      lambda       -0.1080104E-03
   maximum displ.:     0.1675927 α      in ANC's #1, #3, #4, ...

........................................................................
.............................. CYCLE   26 ..............................
........................................................................
   1    -69.0033208 -0.690033E+02  0.522E-02    1.84       0.0  T
   2    -69.0033213 -0.586286E-06  0.310E-02    1.84       1.0  T
   3    -69.0033218 -0.424977E-06  0.427E-03    1.84       3.6  T
   4    -69.0033219 -0.158362E-06  0.335E-03    1.84       4.5  T
   5    -69.0033220 -0.117982E-06  0.156E-03    1.84       9.8  T
   6    -69.0033221 -0.417619E-07  0.865E-04    1.84      17.6  T
   7    -69.0033221 -0.665464E-08  0.305E-04    1.84      50.0  T
     SCC iter.                  ...        0 min,  0.062 sec
     gradient                   ...        0 min,  0.006 sec
 * total energy  :   -67.8988389 Eh     change       -0.9200648E-04 Eh
   gradient norm :     0.0029229 Eh/α   predicted    -0.5847378E-04 ( -36.45%)
   displ. norm   :     0.3446582 α      lambda       -0.1071341E-03
   maximum displ.:     0.2065175 α      in ANC's #1, #3, #4, ...

........................................................................
.............................. CYCLE   27 ..............................
........................................................................
   1    -69.0025644 -0.690026E+02  0.607E-02    1.84       0.0  T
   2    -69.0025652 -0.799577E-06  0.359E-02    1.84       1.0  T
   3    -69.0025658 -0.638335E-06  0.484E-03    1.84       3.2  T
   4    -69.0025660 -0.142865E-06  0.384E-03    1.84       4.0  T
   5    -69.0025662 -0.191885E-06  0.163E-03    1.84       9.4  T
   6    -69.0025662 -0.355090E-07  0.978E-04    1.84      15.6  T
   7    -69.0025662 -0.106160E-07  0.281E-04    1.84      54.3  T
     SCC iter.                  ...        0 min,  0.062 sec
     gradient                   ...        0 min,  0.007 sec
 * total energy  :   -67.8989238 Eh     change       -0.8486437E-04 Eh
   gradient norm :     0.0019552 Eh/α   predicted    -0.5993158E-04 ( -29.38%)
   displ. norm   :     0.4161485 α      lambda       -0.7012644E-04
   maximum displ.:     0.2608477 α      in ANC's #1, #3, #4, ...

........................................................................
.............................. CYCLE   28 ..............................
........................................................................
   1    -69.0024034 -0.690024E+02  0.699E-02    1.84       0.0  T
   2    -69.0024045 -0.114437E-05  0.414E-02    1.84       1.0  T
   3    -69.0024055 -0.947133E-06  0.571E-03    1.84       2.7  T
   4    -69.0024056 -0.147733E-06  0.455E-03    1.84       3.4  T
   5    -69.0024059 -0.288960E-06  0.203E-03    1.84       7.5  T
   6    -69.0024060 -0.507241E-07  0.111E-03    1.84      13.8  T
   7    -69.0024060 -0.121629E-07  0.457E-04    1.84      33.3  T
   8    -69.0024060 -0.275216E-08  0.149E-04    1.84     102.5  T
     SCC iter.                  ...        0 min,  0.071 sec
     gradient                   ...        0 min,  0.006 sec
 * total energy  :   -67.8989995 Eh     change       -0.7573460E-04 Eh
   gradient norm :     0.0028626 Eh/α   predicted    -0.3776428E-04 ( -50.14%)
   displ. norm   :     0.1355104 α      lambda       -0.4067172E-04
   maximum displ.:     0.0943082 α      in ANC's #1, #3, #4, ...

........................................................................
.............................. CYCLE   29 ..............................
........................................................................
   1    -69.0033855 -0.690034E+02  0.211E-02    1.84       0.0  T
   2    -69.0033856 -0.156280E-06  0.126E-02    1.84       1.2  T
   3    -69.0033857 -0.966072E-07  0.227E-03    1.84       6.7  T
   4    -69.0033858 -0.502520E-07  0.177E-03    1.84       8.6  T
   5    -69.0033858 -0.288559E-07  0.103E-03    1.84      14.8  T
   6    -69.0033858 -0.152671E-07  0.455E-04    1.84      33.5  T
   7    -69.0033858 -0.288337E-08  0.192E-04    1.84      79.5  T
     SCC iter.                  ...        0 min,  0.063 sec
     gradient                   ...        0 min,  0.007 sec
 * total energy  :   -67.8990350 Eh     change       -0.3551114E-04 Eh
   gradient norm :     0.0024033 Eh/α   predicted    -0.2071041E-04 ( -41.68%)
   displ. norm   :     0.1761945 α      lambda       -0.5393032E-04
   maximum displ.:     0.1262296 α      in ANC's #1, #3, #4, ...

........................................................................
.............................. CYCLE   30 ..............................
........................................................................
   1    -69.0044537 -0.690045E+02  0.279E-02    1.84       0.0  T
   2    -69.0044540 -0.274658E-06  0.167E-02    1.84       1.0  T
   3    -69.0044542 -0.219840E-06  0.299E-03    1.84       5.1  T
   4    -69.0044543 -0.664038E-07  0.238E-03    1.84       6.4  T
   5    -69.0044544 -0.588796E-07  0.118E-03    1.84      13.0  T
   6    -69.0044544 -0.221706E-07  0.535E-04    1.84      28.5  T
   7    -69.0044544 -0.324724E-08  0.253E-04    1.84      60.2  T
     SCC iter.                  ...        0 min,  0.063 sec
     gradient                   ...        0 min,  0.006 sec
 * total energy  :   -67.8990793 Eh     change       -0.4424833E-04 Eh
   gradient norm :     0.0015608 Eh/α   predicted    -0.2780403E-04 ( -37.16%)
   displ. norm   :     0.2759029 α      lambda       -0.4253898E-04
   maximum displ.:     0.2005386 α      in ANC's #1, #3, #4, ...

........................................................................
.............................. CYCLE   31 ..............................
........................................................................
   1    -69.0048105 -0.690048E+02  0.436E-02    1.84       0.0  T
   2    -69.0048112 -0.654081E-06  0.261E-02    1.84       1.0  T
   3    -69.0048118 -0.595501E-06  0.482E-03    1.84       3.2  T
   4    -69.0048119 -0.145740E-06  0.387E-03    1.84       3.9  T
   5    -69.0048121 -0.176119E-06  0.174E-03    1.84       8.8  T
   6    -69.0048122 -0.528892E-07  0.751E-04    1.84      20.3  T
   7    -69.0048122 -0.389640E-08  0.372E-04    1.84      41.0  T
     SCC iter.                  ...        0 min,  0.063 sec
     gradient                   ...        0 min,  0.007 sec
 * total energy  :   -67.8991252 Eh     change       -0.4586059E-04 Eh
   gradient norm :     0.0014043 Eh/α   predicted    -0.2200016E-04 ( -52.03%)
   displ. norm   :     0.1305435 α      lambda       -0.1576411E-04
   maximum displ.:     0.0995481 α      in ANC's #1, #4, #3, ...

........................................................................
.............................. CYCLE   32 ..............................
........................................................................
   1    -69.0045956 -0.690046E+02  0.203E-02    1.84       0.0  T
   2    -69.0045958 -0.175537E-06  0.123E-02    1.84       1.2  T
   3    -69.0045959 -0.762480E-07  0.307E-03    1.84       5.0  T
   4    -69.0045960 -0.144132E-06  0.221E-03    1.84       6.9  T
   5    -69.0045961 -0.443118E-07  0.110E-03    1.84      13.8  T
   6    -69.0045961 -0.261540E-07  0.346E-04    1.84      44.1  T
   7    -69.0045961 -0.823576E-09  0.143E-04    1.84     106.4  T
     SCC iter.                  ...        0 min,  0.063 sec
     gradient                   ...        0 min,  0.007 sec
 * total energy  :   -67.8991456 Eh     change       -0.2041109E-04 Eh
   gradient norm :     0.0010481 Eh/α   predicted    -0.7941953E-05 ( -61.09%)
   displ. norm   :     0.0924178 α      lambda       -0.1372067E-04
   maximum displ.:     0.0702390 α      in ANC's #1, #7, #4, ...

........................................................................
.............................. CYCLE   33 ..............................
........................................................................
   1    -69.0044868 -0.690045E+02  0.170E-02    1.84       0.0  T
   2    -69.0044869 -0.114995E-06  0.103E-02    1.84       1.5  T
   3    -69.0044870 -0.321094E-07  0.260E-03    1.84       5.9  T
   4    -69.0044871 -0.114878E-06  0.180E-03    1.84       8.5  T
   5    -69.0044871 -0.276838E-07  0.956E-04    1.84      15.9  T
   6    -69.0044871 -0.193138E-07  0.274E-04    1.84      55.7  T
     SCC iter.                  ...        0 min,  0.054 sec
     gradient                   ...        0 min,  0.007 sec
 * total energy  :   -67.8991634 Eh     change       -0.1781798E-04 Eh
   gradient norm :     0.0006525 Eh/α   predicted    -0.6890463E-05 ( -61.33%)
   displ. norm   :     0.1100396 α      lambda       -0.1423970E-04
   maximum displ.:     0.0804602 α      in ANC's #1, #5, #7, ...

........................................................................
.............................. CYCLE   34 ..............................
........................................................................
   1    -69.0042779 -0.690043E+02  0.225E-02    1.84       0.0  T
   2    -69.0042780 -0.162845E-06  0.135E-02    1.84       1.1  T
   3    -69.0042782 -0.179220E-06  0.270E-03    1.84       5.7  T
   4    -69.0042783 -0.454018E-07  0.219E-03    1.84       7.0  T
   5    -69.0042783 -0.639535E-07  0.691E-04    1.84      22.1  T
   6    -69.0042783 -0.110125E-07  0.269E-04    1.84      56.8  T
     SCC iter.                  ...        0 min,  0.054 sec
     gradient                   ...        0 min,  0.007 sec
 * total energy  :   -67.8991809 Eh     change       -0.1748722E-04 Eh
   gradient norm :     0.0005474 Eh/α   predicted    -0.7158914E-05 ( -59.06%)
   displ. norm   :     0.1127238 α      lambda       -0.1056786E-04
   maximum displ.:     0.0815522 α      in ANC's #1, #5, #4, ...

........................................................................
.............................. CYCLE   35 ..............................
........................................................................
   1    -69.0042092 -0.690042E+02  0.235E-02    1.84       0.0  T
   2    -69.0042094 -0.183566E-06  0.142E-02    1.84       1.1  T
   3    -69.0042096 -0.221364E-06  0.278E-03    1.84       5.5  T
   4    -69.0042096 -0.335887E-07  0.210E-03    1.84       7.3  T
   5    -69.0042097 -0.757248E-07  0.597E-04    1.84      25.5  T
   6    -69.0042097 -0.549248E-08  0.270E-04    1.84      56.4  T
     SCC iter.                  ...        0 min,  0.054 sec
     gradient                   ...        0 min,  0.007 sec
 * total energy  :   -67.8991936 Eh     change       -0.1273307E-04 Eh
   gradient norm :     0.0005424 Eh/α   predicted    -0.5315070E-05 ( -58.26%)
   displ. norm   :     0.1047177 α      lambda       -0.7590134E-05
   maximum displ.:     0.0749784 α      in ANC's #1, #5, #4, ...

........................................................................
.............................. CYCLE   36 ..............................
........................................................................
   1    -69.0041160 -0.690041E+02  0.214E-02    1.84       0.0  T
   2    -69.0041161 -0.160396E-06  0.129E-02    1.84       1.2  T
   3    -69.0041163 -0.174027E-06  0.267E-03    1.84       5.7  T
   4    -69.0041163 -0.396119E-07  0.219E-03    1.84       7.0  T
   5    -69.0041164 -0.731160E-07  0.582E-04    1.84      26.2  T
   6    -69.0041164 -0.474658E-08  0.269E-04    1.84      56.7  T
     SCC iter.                  ...        0 min,  0.054 sec
     gradient                   ...        0 min,  0.007 sec
 * total energy  :   -67.8992033 Eh     change       -0.9703911E-05 Eh
   gradient norm :     0.0005402 Eh/α   predicted    -0.3814020E-05 ( -60.70%)
   displ. norm   :     0.1285804 α      lambda       -0.8681937E-05
   maximum displ.:     0.0910898 α      in ANC's #1, #5, #4, ...

........................................................................
.............................. CYCLE   37 ..............................
........................................................................
   1    -69.0041328 -0.690041E+02  0.260E-02    1.84       0.0  T
   2    -69.0041330 -0.239822E-06  0.157E-02    1.84       1.0  T
   3    -69.0041333 -0.224727E-06  0.332E-03    1.84       4.6  T
   4    -69.0041333 -0.883049E-07  0.268E-03    1.84       5.7  T
   5    -69.0041334 -0.958492E-07  0.917E-04    1.84      16.6  T
   6    -69.0041335 -0.143995E-07  0.356E-04    1.84      42.8  T
     SCC iter.                  ...        0 min,  0.054 sec
     gradient                   ...        0 min,  0.007 sec
 * total energy  :   -67.8992147 Eh     change       -0.1138524E-04 Eh
   gradient norm :     0.0005565 Eh/α   predicted    -0.4377548E-05 ( -61.55%)
   displ. norm   :     0.2724396 α      lambda       -0.1627707E-04
   maximum displ.:     0.1898364 α      in ANC's #1, #5, #4, ...

........................................................................
.............................. CYCLE   38 ..............................
........................................................................
   1    -69.0038902 -0.690039E+02  0.545E-02    1.84       0.0  T
   2    -69.0038912 -0.975942E-06  0.327E-02    1.84       1.0  T
   3    -69.0038922 -0.979941E-06  0.653E-03    1.84       2.3  T
   4    -69.0038925 -0.281491E-06  0.533E-03    1.84       2.9  T
   5    -69.0038929 -0.398194E-06  0.172E-03    1.84       8.9  T
   6    -69.0038929 -0.509536E-07  0.719E-04    1.84      21.2  T
   7    -69.0038929 -0.385884E-08  0.327E-04    1.84      46.6  T
     SCC iter.                  ...        0 min,  0.063 sec
     gradient                   ...        0 min,  0.007 sec
 * total energy  :   -67.8992314 Eh     change       -0.1669859E-04 Eh
   gradient norm :     0.0008900 Eh/α   predicted    -0.8407664E-05 ( -49.65%)
   displ. norm   :     0.1706832 α      lambda       -0.7529151E-05
   maximum displ.:     0.1145203 α      in ANC's #1, #5, #4, ...

........................................................................
.............................. CYCLE   39 ..............................
........................................................................
   1    -69.0040393 -0.690040E+02  0.344E-02    1.84       0.0  T
   2    -69.0040396 -0.317413E-06  0.206E-02    1.84       1.0  T
   3    -69.0040399 -0.306057E-06  0.355E-03    1.84       4.3  T
   4    -69.0040400 -0.788212E-07  0.289E-03    1.84       5.3  T
   5    -69.0040401 -0.119672E-06  0.999E-04    1.84      15.3  T
   6    -69.0040401 -0.166310E-07  0.461E-04    1.84      33.1  T
     SCC iter.                  ...        0 min,  0.054 sec
     gradient                   ...        0 min,  0.007 sec
 * total energy  :   -67.8992397 Eh     change       -0.8340389E-05 Eh
   gradient norm :     0.0008463 Eh/α   predicted    -0.3813993E-05 ( -54.27%)
   displ. norm   :     0.1751523 α      lambda       -0.8034405E-05
   maximum displ.:     0.1085614 α      in ANC's #1, #4, #5, ...

........................................................................
.............................. CYCLE   40 ..............................
........................................................................
   1    -69.0042704 -0.690043E+02  0.362E-02    1.84       0.0  T
   2    -69.0042706 -0.266077E-06  0.214E-02    1.84       1.0  T
   3    -69.0042709 -0.250120E-06  0.291E-03    1.84       5.2  T
   4    -69.0042709 -0.428197E-07  0.227E-03    1.84       6.7  T
   5    -69.0042710 -0.663255E-07  0.994E-04    1.84      15.3  T
   6    -69.0042710 -0.151421E-07  0.496E-04    1.84      30.8  T
     SCC iter.                  ...        0 min,  0.055 sec
     gradient                   ...        0 min,  0.007 sec
 * total energy  :   -67.8992480 Eh     change       -0.8275306E-05 Eh
   gradient norm :     0.0006095 Eh/α   predicted    -0.4074365E-05 ( -50.76%)
   displ. norm   :     0.1169477 α      lambda       -0.5151509E-05
   maximum displ.:     0.0653037 α      in ANC's #4, #1, #5, ...

........................................................................
.............................. CYCLE   41 ..............................
........................................................................
   1    -69.0044404 -0.690044E+02  0.257E-02    1.84       0.0  T
   2    -69.0044405 -0.904429E-07  0.151E-02    1.84       1.0  T
   3    -69.0044405 -0.527501E-07  0.143E-03    1.84      10.7  T
   4    -69.0044406 -0.177401E-07  0.110E-03    1.84      13.9  T
   5    -69.0044406 -0.108202E-07  0.618E-04    1.84      24.7  T
   6    -69.0044406 -0.499982E-08  0.353E-04    1.84      43.3  T
     SCC iter.                  ...        0 min,  0.054 sec
     gradient                   ...        0 min,  0.007 sec
 * total energy  :   -67.8992524 Eh     change       -0.4405265E-05 Eh
   gradient norm :     0.0004502 Eh/α   predicted    -0.2592313E-05 ( -41.15%)
   displ. norm   :     0.1157943 α      lambda        0.4120549E-05
   maximum displ.:     0.0645988 α      in ANC's #4, #1, #5, ...

   *** GEOMETRY OPTIMIZATION CONVERGED AFTER 41 ITERATIONS ***

------------------------------------------------------------------------
 total energy gain   :        -0.0191633 Eh      -12.0252 kcal/mol
 total RMSD          :         1.2351383 a0        0.6536 Å
 total power (kW/mol):        -1.2271530 (step)  -15.6301 (real)
------------------------------------------------------------------------

 ANCopt (total)                0 d,  0 h,  0 min,  3.219 sec
 optimizer setup                ...        0 min,  0.000 sec (  0.005%)
 model hessian                  ...        0 min,  0.025 sec (  0.767%)
 ANC generation                 ...        0 min,  0.017 sec (  0.525%)
 coordinate transformation      ...        0 min,  0.002 sec (  0.073%)
 single point calculation       ...        0 min,  3.155 sec ( 98.018%)
 optimization log               ...        0 min,  0.007 sec (  0.202%)
 hessian update                 ...        0 min,  0.002 sec (  0.064%)
 rational function              ...        0 min,  0.006 sec (  0.174%)

================
 final structure:
================
43
 xtb: 6.5.1 (fef0646)
N            1.79603534286077       -0.44329986944651        1.01638113815999
C            2.33367503842500       -1.60550457261009        0.28646513077063
C            3.69313413569996       -1.25520004457539       -0.32239404147504
O            4.65264126215246       -0.93961164988119        0.67516503403064
C            5.36617470492466       -1.93162257521830        1.27608750904805
C            5.16520743943368       -3.27839653822419        1.09394025101623
C            5.96496809471685       -4.20358453957165        1.76163946311801
C            6.96966232753756       -3.82891949936912        2.63436154155108
C            7.18333273265679       -2.44103086226989        2.85578624746771
C            8.18065718161487       -1.97994563980757        3.75716150132717
C            8.37954702635180       -0.61589194023192        3.89229231325596
C            7.61631965814918        0.30993446823372        3.18492023388528
C            6.62932971273424       -0.11464480185644        2.33808577233091
C            6.39256537590917       -1.49005005652639        2.16022618319408
C            7.80707277881069       -4.80099972425505        3.32327948730777
C            7.69344268491905       -6.16351774350784        3.10242653598491
C            8.48616430651061       -7.08726148087625        3.78249246420802
C            9.40397019020224       -6.66333464814058        4.70293821852326
C            9.56710067662469       -5.28799018682014        4.96023195445644
C           10.50882610493812       -4.84430719568183        5.90924539587692
C           10.65840572116669       -3.50838393373215        6.15877440129255
C            9.89424125992505       -2.57318555902434        5.46146850932379
C            8.96538411439151       -2.95406257476857        4.50758448794905
C            8.77423819914718       -4.34027564258472        4.25778665902530
Cl          -0.64368808149742       -1.37352081337968        2.55859810992597
H            0.93140080576483       -0.72022688402755        1.55260104128411
H            1.54685827546750        0.31847948204047        0.38066454816739
H            2.48986891862056       -0.10803822140047        1.69112915200518
H            1.63718003724219       -1.89569959612101       -0.49798446573405
H            2.42743535019028       -2.43254562931828        0.99028876295042
H            3.61458745224940       -0.34278111473596       -0.91804338871112
H            4.04726826426914       -2.06302313408378       -0.96704161040843
H            4.39601850205139       -3.65448684425820        0.43948069620959
H            5.76275642858753       -5.24585028448923        1.57803071061878
H            9.14397945877589       -0.23790841462728        4.55109991579597
H            7.80938775602603        1.36397580813845        3.31514197611915
H            6.03014569335909        0.59099349408874        1.78672932410973
H            6.98084497190203       -6.54592902589908        2.39011162803311
H            8.36206958151065       -8.14099503166982        3.57890083982172
H           10.01568990143589       -7.37014371502622        5.24417585626861
H           11.10262156285021       -5.57758447229900        6.43491747911709
H           11.37158477908257       -3.16504870482410        6.89357918327225
H           10.04749427231909       -1.53187008733358        5.69289384948160

 Bond Distances (Angstroems)
 ---------------------------
N1-C2=1.4740         N1-H26=1.0544        N1-H27=1.0230        N1-H28=1.0243        C2-N1=1.4740         C2-C3=1.5302         
C2-H29=1.0884        C2-H30=1.0900        C3-C2=1.5302         C3-O4=1.4196         C3-H31=1.0925        C3-H32=1.0925        
O4-C3=1.4196         O4-C5=1.3617         C5-O4=1.3617         C5-C6=1.3738         C5-C14=1.4248        C6-C5=1.3738         
C6-C7=1.3933         C6-H33=1.0777        C7-C6=1.3933         C7-C8=1.3825         C7-H34=1.0775        C8-C7=1.3825         
C8-C9=1.4216         C8-C15=1.4563        C9-C8=1.4216         C9-C10=1.4212        C9-C14=1.4190        C10-C9=1.4212        
C10-C11=1.3851       C10-C23=1.4587       C11-C10=1.3851       C11-C12=1.3929       C11-H35=1.0776       C12-C11=1.3929       
C12-C13=1.3680       C12-H36=1.0795       C13-C12=1.3680       C13-C14=1.4069       C13-H37=1.0775       C14-C5=1.4248        
C14-C9=1.4190        C14-C13=1.4069       C15-C8=1.4563        C15-C16=1.3850       C15-C24=1.4216       C16-C15=1.3850       
C16-C17=1.3943       C16-H38=1.0777       C17-C16=1.3943       C17-C18=1.3672       C17-H39=1.0804       C18-C17=1.3672       
C18-C19=1.4087       C18-H40=1.0801       C19-C18=1.4087       C19-C20=1.4087       C19-C24=1.4213       C20-C19=1.4087       
C20-C21=1.3672       C20-H41=1.0801       C21-C20=1.3672       C21-C22=1.3946       C21-H42=1.0800       C22-C21=1.3946       
C22-C23=1.3848       C22-H43=1.0777       C23-C10=1.4587       C23-C22=1.3848       C23-C24=1.4215       C24-C15=1.4216       
C24-C19=1.4213       C24-C23=1.4215       H26-N1=1.0544        H27-N1=1.0230        H28-N1=1.0243        H29-C2=1.0884        
H30-C2=1.0900        H31-C3=1.0925        H32-C3=1.0925        H33-C6=1.0777        H34-C7=1.0775        H35-C11=1.0776       
H36-C12=1.0795       H37-C13=1.0775       H38-C16=1.0777       H39-C17=1.0804       H40-C18=1.0801       H41-C20=1.0801       
H42-C21=1.0800       H43-C22=1.0777       
 C  H  Rav=1.0819 sigma=0.0055  Rmin=1.0775  Rmax=1.0925    15
 C  C  Rav=1.4084 sigma=0.0348  Rmin=1.3672  Rmax=1.5302    25
 N  H  Rav=1.0339 sigma=0.0145  Rmin=1.0230  Rmax=1.0544     3
 N  C  Rav=1.4740 sigma=0.0000  Rmin=1.4740  Rmax=1.4740     1
 O  C  Rav=1.3907 sigma=0.0290  Rmin=1.3617  Rmax=1.4196     2

 selected bond angles (degree)
 --------------------
H26-N1-C2=110.11               H27-N1-C2=111.61               H27-N1-H26=108.17              H28-N1-C2=109.71               
H28-N1-H26=107.84              H28-N1-H27=109.31              C3-C2-N1=109.91                H29-C2-N1=109.49               
H29-C2-C3=110.05               H30-C2-N1=108.05               H30-C2-C3=110.74               H30-C2-H29=108.55              
O4-C3-C2=111.82                H31-C3-C2=110.14               H31-C3-O4=104.24               H32-C3-C2=110.70               
H32-C3-O4=111.10               H32-C3-H31=108.61              C5-O4-C3=120.15                C6-C5-O4=125.38                
C14-C5-O4=115.18               C14-C5-C6=119.44               C7-C6-C5=120.23                H33-C6-C5=121.81               
H33-C6-C7=117.97               C8-C7-C6=122.66                H34-C7-C6=116.93               H34-C7-C8=120.40               
C9-C8-C7=118.17                C15-C8-C7=122.38               C15-C8-C9=119.44               C10-C9-C8=121.40               
C14-C9-C8=119.62               C14-C9-C10=118.98              C11-C10-C9=118.83              C23-C10-C9=119.15              
C23-C10-C11=122.02             

 selected dihedral angles (degree)
 ---------------------------------
C3-C2-N1-H26=188.20           C3-C2-N1-H27= 68.05           C3-C2-N1-H28=306.74           H29-C2-N1-H26= 67.20          
H29-C2-N1-H27=307.05          H29-C2-N1-H28=185.74          H30-C2-N1-H26=309.15          H30-C2-N1-H27=189.00          
H30-C2-N1-H28= 67.69          O4-C3-C2-N1= 62.48            O4-C3-C2-H29=183.14           O4-C3-C2-H30=303.16           
H31-C3-C2-N1=307.06           H31-C3-C2-H29= 67.73          H31-C3-C2-H30=187.75          H32-C3-C2-N1=186.93           
H32-C3-C2-H29=307.60          H32-C3-C2-H30= 67.62          C5-O4-C3-C2= 85.46            C5-O4-C3-H31=204.42           
C5-O4-C3-H32=321.22           C6-C5-O4-C3=353.72            C14-C5-O4-C3=173.89           C7-C6-C5-O4=179.73            
C7-C6-C5-C14=359.56           H33-C6-C5-O4=359.77           H33-C6-C5-C14=179.60          C8-C7-C6-C5=  0.75            
C8-C7-C6-H33=180.71           H34-C7-C6-C5=180.14           H34-C7-C6-H33=  0.11          C9-C8-C7-C6=  0.24            
C9-C8-C7-H34=180.87           C15-C8-C7-C6=180.36           C15-C8-C7-H34=  0.98          C10-C9-C8-C7=178.83           
C10-C9-C8-C15=358.72          C14-C9-C8-C7=358.49           C14-C9-C8-C15=178.38          C11-C10-C9-C8=177.44          
C11-C10-C9-C14=357.78         C23-C10-C9-C8=357.63          C23-C10-C9-C14=177.97         

 CMA Distance (Angstroems)
 ---------------------------
R(CMA):  7.8458
           -------------------------------------------------
          |                Final Singlepoint                |
           -------------------------------------------------

          ...................................................
          :                      SETUP                      :
          :.................................................:
          :  # basis functions                 124          :
          :  # atomic orbitals                 123          :
          :  # shells                           69          :
          :  # electrons                       124          :
          :  max. iterations                   250          :
          :  Hamiltonian                  GFN2-xTB          :
          :  restarted?                      false          :
          :  GBSA solvation                   true          :
          :  PC potential                    false          :
          :  electronic temp.          300.0000000     K    :
          :  accuracy                    1.0000000          :
          :  -> integral cutoff          0.2500000E+02      :
          :  -> integral neglect         0.1000000E-07      :
          :  -> SCF convergence          0.1000000E-05 Eh   :
          :  -> wf. convergence          0.1000000E-03 e    :
          :  Broyden damping             0.4000000          :
          ...................................................

 iter      E             dE          RMSdq      gap      omega  full diag
   1    -69.0044406 -0.690044E+02  0.173E-04    1.84       0.0  T
   2    -69.0044406 -0.163070E-09  0.124E-04    1.84     123.0  T
   3    -69.0044406 -0.689369E-10  0.945E-05    1.84     161.4  T

   *** convergence criteria satisfied after 3 iterations ***

         #    Occupation            Energy/Eh            Energy/eV
      -------------------------------------------------------------
         1        2.0000           -1.0067727             -27.3957
       ...           ...                  ...                  ...
        56        2.0000           -0.4004405             -10.8965
        57        2.0000           -0.4003167             -10.8932
        58        2.0000           -0.4003004             -10.8927
        59        2.0000           -0.3986230             -10.8471
        60        2.0000           -0.3970978             -10.8056
        61        2.0000           -0.3906809             -10.6310
        62        2.0000           -0.3486604              -9.4875 (HOMO)
        63                         -0.2810779              -7.6485 (LUMO)
        64                         -0.2269117              -6.1746
        65                         -0.2227971              -6.0626
        66                         -0.2213671              -6.0237
        67                         -0.2184875              -5.9453
       ...                                ...                  ...
       123                          0.7413780              20.1739
      -------------------------------------------------------------
                  HL-Gap            0.0675824 Eh            1.8390 eV
             Fermi-level           -0.3148692 Eh           -8.5680 eV

 SCC (total)                   0 d,  0 h,  0 min,  0.039 sec
 SCC setup                      ...        0 min,  0.000 sec (  0.958%)
 Dispersion                     ...        0 min,  0.001 sec (  1.831%)
 classical contributions        ...        0 min,  0.000 sec (  0.148%)
 integral evaluation            ...        0 min,  0.003 sec (  6.541%)
 iterations                     ...        0 min,  0.028 sec ( 71.439%)
 molecular gradient             ...        0 min,  0.006 sec ( 16.188%)
 printout                       ...        0 min,  0.001 sec (  2.176%)

         :::::::::::::::::::::::::::::::::::::::::::::::::::::
         ::                     SUMMARY                     ::
         :::::::::::::::::::::::::::::::::::::::::::::::::::::
         :: total energy             -67.899252416953 Eh    ::
         :: total w/o Gsasa/hb       -67.889537548271 Eh    ::
         :: gradient norm              0.000450388215 Eh/a0 ::
         :: HOMO-LUMO gap              1.839011155188 eV    ::
         ::.................................................::
         :: SCC energy               -69.004440580170 Eh    ::
         :: -> isotropic ES            0.135385364148 Eh    ::
         :: -> anisotropic ES         -0.024182023809 Eh    ::
         :: -> anisotropic XC          0.021192884294 Eh    ::
         :: -> dispersion             -0.051870548821 Eh    ::
         :: -> Gsolv                  -0.077019736820 Eh    ::
         ::    -> Gelec               -0.067304868138 Eh    ::
         ::    -> Gsasa               -0.003525701118 Eh    ::
         ::    -> Ghb                 -0.007269927263 Eh    ::
         ::    -> Gshift               0.001080759698 Eh    ::
         :: repulsion energy           1.105221103080 Eh    ::
         :: add. restraining           0.000000000000 Eh    ::
         :: total charge              -0.000000000000 e     ::
         :::::::::::::::::::::::::::::::::::::::::::::::::::::

           -------------------------------------------------
          |                Property Printout                |
           -------------------------------------------------

    * Orbital Energies and Occupations

         #    Occupation            Energy/Eh            Energy/eV
      -------------------------------------------------------------
         1        2.0000           -1.0067727             -27.3957
       ...           ...                  ...                  ...
        50        2.0000           -0.4307222             -11.7205
        51        2.0000           -0.4292647             -11.6809
        52        2.0000           -0.4227201             -11.5028
        53        2.0000           -0.4041176             -10.9966
        54        2.0000           -0.4026840             -10.9576
        55        2.0000           -0.4011680             -10.9163
        56        2.0000           -0.4004405             -10.8965
        57        2.0000           -0.4003167             -10.8932
        58        2.0000           -0.4003004             -10.8927
        59        2.0000           -0.3986230             -10.8471
        60        2.0000           -0.3970978             -10.8056
        61        2.0000           -0.3906809             -10.6310
        62        2.0000           -0.3486604              -9.4875 (HOMO)
        63                         -0.2810779              -7.6485 (LUMO)
        64                         -0.2269117              -6.1746
        65                         -0.2227971              -6.0626
        66                         -0.2213671              -6.0237
        67                         -0.2184875              -5.9453
        68                         -0.1530271              -4.1641
        69                         -0.1515571              -4.1241
        70                         -0.1128165              -3.0699
        71                         -0.0711083              -1.9350
        72                         -0.0290896              -0.7916
        73                         -0.0188611              -0.5132
       ...                                ...                  ...
       123                          0.7413780              20.1739
      -------------------------------------------------------------
                  HL-Gap            0.0675824 Eh            1.8390 eV
             Fermi-level           -0.3148692 Eh           -8.5680 eV

     #   Z          covCN         q      C6AA      α(0)
     1   7 N        3.484    -0.163    24.519     7.354
     2   6 C        3.730    -0.031    21.226     6.577
     3   6 C        3.689     0.046    19.992     6.399
     4   8 O        1.704    -0.275    18.567     5.818
     5   6 C        2.859     0.132    25.103     8.212
     6   6 C        2.910    -0.078    29.957     8.975
     7   6 C        2.923    -0.043    29.060     8.840
     8   6 C        2.972    -0.009    28.232     8.716
     9   6 C        2.994     0.000    28.010     8.682
    10   6 C        2.974     0.003    27.953     8.672
    11   6 C        2.923    -0.040    28.989     8.829
    12   6 C        2.913    -0.038    28.941     8.822
    13   6 C        2.921    -0.039    28.978     8.828
    14   6 C        2.986    -0.010    28.254     8.719
    15   6 C        2.973     0.003    27.942     8.671
    16   6 C        2.923    -0.045    29.106     8.847
    17   6 C        2.913    -0.037    28.920     8.818
    18   6 C        2.921    -0.045    29.107     8.847
    19   6 C        2.986     0.008    27.837     8.655
    20   6 C        2.921    -0.043    29.076     8.843
    21   6 C        2.913    -0.037    28.922     8.819
    22   6 C        2.923    -0.043    29.069     8.842
    23   6 C        2.973     0.002    27.966     8.674
    24   6 C        2.995     0.000    28.011     8.682
    25  17 Cl       0.067    -0.943   124.726    16.997
    26   1 H        0.923     0.300     0.710     1.318
    27   1 H        0.859     0.303     0.704     1.314
    28   1 H        0.859     0.296     0.727     1.335
    29   1 H        0.925     0.116     1.649     2.008
    30   1 H        0.925     0.103     1.761     2.075
    31   1 H        0.924     0.104     1.748     2.068
    32   1 H        0.924     0.076     2.019     2.222
    33   1 H        0.926     0.053     2.287     2.365
    34   1 H        0.926     0.039     2.460     2.453
    35   1 H        0.926     0.035     2.513     2.479
    36   1 H        0.926     0.039     2.457     2.451
    37   1 H        0.926     0.061     2.191     2.314
    38   1 H        0.926     0.035     2.513     2.479
    39   1 H        0.926     0.032     2.558     2.501
    40   1 H        0.926     0.031     2.569     2.507
    41   1 H        0.926     0.032     2.554     2.499
    42   1 H        0.926     0.033     2.543     2.494
    43   1 H        0.926     0.036     2.506     2.476

 Mol. C6AA /au·bohr⁶  :      25992.793309
 Mol. C8AA /au·bohr⁸  :     679291.386731
 Mol. α(0) /au        :        257.495997


Wiberg/Mayer (AO) data.
largest (>0.10) Wiberg bond orders for each atom

 ---------------------------------------------------------------------------
     #   Z sym  total        # sym  WBO       # sym  WBO       # sym  WBO
 ---------------------------------------------------------------------------
     1   7 N    3.646 --     2 C    0.977    28 H    0.896    27 H    0.893
                            26 H    0.824
     2   6 C    3.933 --     3 C    1.000     1 N    0.977    30 H    0.964
                            29 H    0.963
     3   6 C    3.931 --     2 C    1.000     4 O    0.962    32 H    0.961
                            31 H    0.959
     4   8 O    2.226 --     5 C    1.068     3 C    0.962
     5   6 C    3.918 --     6 C    1.450    14 C    1.207     4 O    1.068
     6   6 C    3.984 --     5 C    1.450     7 C    1.365    33 H    0.962
     7   6 C    3.971 --     8 C    1.443     6 C    1.365    34 H    0.962
     8   6 C    3.987 --     7 C    1.443     9 C    1.239    15 C    1.103
     9   6 C    3.989 --    14 C    1.268    10 C    1.251     8 C    1.239
    10   6 C    3.988 --    11 C    1.441     9 C    1.251    23 C    1.099
                            13 C    0.101
    11   6 C    3.973 --    10 C    1.441    12 C    1.369    35 H    0.962
    12   6 C    3.990 --    13 C    1.516    11 C    1.369    36 H    0.970
    13   6 C    3.965 --    12 C    1.516    14 C    1.297    37 H    0.965
                            10 C    0.101
    14   6 C    3.987 --    13 C    1.297     9 C    1.268     5 C    1.207
    15   6 C    3.988 --    16 C    1.442    24 C    1.248     8 C    1.103
                            18 C    0.101
    16   6 C    3.967 --    15 C    1.442    17 C    1.361    38 H    0.962
    17   6 C    3.991 --    18 C    1.526    16 C    1.361    39 H    0.970
    18   6 C    3.963 --    17 C    1.526    19 C    1.280    40 H    0.968
                            15 C    0.101
    19   6 C    3.989 --    20 C    1.280    18 C    1.280    24 C    1.257
    20   6 C    3.964 --    21 C    1.527    19 C    1.280    41 H    0.968
                            23 C    0.101
    21   6 C    3.991 --    20 C    1.527    22 C    1.361    42 H    0.970
    22   6 C    3.969 --    23 C    1.444    21 C    1.361    43 H    0.962
    23   6 C    3.988 --    22 C    1.444    24 C    1.250    10 C    1.099
                            20 C    0.101
    24   6 C    3.988 --    19 C    1.257    23 C    1.250    15 C    1.248
    25  17 Cl   0.110
    26   1 H    0.910 --     1 N    0.824
    27   1 H    0.908 --     1 N    0.893
    28   1 H    0.913 --     1 N    0.896
    29   1 H    0.986 --     2 C    0.963
    30   1 H    0.989 --     2 C    0.964
    31   1 H    0.988 --     3 C    0.959
    32   1 H    0.993 --     3 C    0.961
    33   1 H    0.996 --     6 C    0.962
    34   1 H    0.998 --     7 C    0.962
    35   1 H    0.998 --    11 C    0.962
    36   1 H    0.997 --    12 C    0.970
    37   1 H    0.995 --    13 C    0.965
    38   1 H    0.998 --    16 C    0.962
    39   1 H    0.998 --    17 C    0.970
    40   1 H    0.998 --    18 C    0.968
    41   1 H    0.998 --    20 C    0.968
    42   1 H    0.998 --    21 C    0.970
    43   1 H    0.998 --    22 C    0.962
 ---------------------------------------------------------------------------

Topologies differ in total number of bonds
Writing topology from bond orders to xtbtopo.mol

molecular dipole:
                 x           y           z       tot (Debye)
 q only:        3.694       1.675      -3.559
   full:        3.192       1.352      -3.056      11.746
molecular quadrupole (traceless):
                xx          xy          yy          xz          yz          zz
 q only:        9.698      -0.527       7.445       6.948      22.639     -17.143
  q+dip:        6.636      -0.731      11.840      13.074      18.589     -18.477
   full:        8.404      -1.082       7.606       7.260      18.335     -16.010

           -------------------------------------------------
          |                Geometry Summary                 |
           -------------------------------------------------

      molecular mass/u    :      347.8381690
   center of mass at/Å    :        6.2521241      -2.7763615       2.9151954
  moments of inertia/u·Å² :        0.1379447E+04   0.5352177E+04   0.5872036E+04
rotational constants/cm⁻¹ :        0.1222058E-01   0.3149678E-02   0.2870833E-02

 * 44 selected distances

     #   Z          #   Z                                           value/Å
     1   7 N        2   6 C                                       1.4739586
     2   6 C        3   6 C                                       1.5302131 (max)
     3   6 C        4   8 O                                       1.4196388
     4   8 O        5   6 C                                       1.3617356
     5   6 C        6   6 C                                       1.3738144
     6   6 C        7   6 C                                       1.3933458
     7   6 C        8   6 C                                       1.3825442
     8   6 C        9   6 C                                       1.4215904
     9   6 C       10   6 C                                       1.4211732
    10   6 C       11   6 C                                       1.3850850
    11   6 C       12   6 C                                       1.3928554
    12   6 C       13   6 C                                       1.3680445
     5   6 C       14   6 C                                       1.4248388
     9   6 C       14   6 C                                       1.4189721
    13   6 C       14   6 C                                       1.4069227
    15   6 C       16   6 C                                       1.3849706
    16   6 C       17   6 C                                       1.3943458
    17   6 C       18   6 C                                       1.3672243
    18   6 C       19   6 C                                       1.4086818
    19   6 C       20   6 C                                       1.4086619
    20   6 C       21   6 C                                       1.3672345
    21   6 C       22   6 C                                       1.3945534
    22   6 C       23   6 C                                       1.3848242
    15   6 C       24   6 C                                       1.4216116
    19   6 C       24   6 C                                       1.4213457
    23   6 C       24   6 C                                       1.4214509
     1   7 N       26   1 H                                       1.0544256
     1   7 N       27   1 H                                       1.0230018 (min)
     1   7 N       28   1 H                                       1.0242512
     2   6 C       29   1 H                                       1.0884300
     2   6 C       30   1 H                                       1.0900256
     3   6 C       31   1 H                                       1.0924634
     3   6 C       32   1 H                                       1.0925016
     6   6 C       33   1 H                                       1.0776888
     7   6 C       34   1 H                                       1.0774599
    11   6 C       35   1 H                                       1.0776160
    12   6 C       36   1 H                                       1.0794611
    13   6 C       37   1 H                                       1.0774697
    16   6 C       38   1 H                                       1.0776951
    17   6 C       39   1 H                                       1.0803720
    18   6 C       40   1 H                                       1.0801474
    20   6 C       41   1 H                                       1.0801018
    21   6 C       42   1 H                                       1.0800193
    22   6 C       43   1 H                                       1.0776745

 * 5 distinct bonds (by element types)

   Z      Z             #   av. dist./Å        max./Å        min./Å
   1 H    6 C          15     1.0819417     1.0925016     1.0774599
   6 C    6 C          23     1.4041002     1.5302131     1.3672243
   1 H    7 N           3     1.0338929     1.0544256     1.0230018
   6 C    7 N           1     1.4739586     1.4739586     1.4739586
   6 C    8 O           2     1.3906872     1.4196388     1.3617356


optimized geometry written to: xtbopt.xyz


           -------------------------------------------------
          | TOTAL ENERGY              -67.899252416953 Eh   |
          | GRADIENT NORM               0.000450388215 Eh/α |
          | HOMO-LUMO GAP               1.839011155188 eV   |
           -------------------------------------------------

------------------------------------------------------------------------
 * finished run on 2023/01/24 at 16:48:29.763     
------------------------------------------------------------------------
 total:
 * wall-time:     0 d,  0 h,  0 min,  3.442 sec
 *  cpu-time:     0 d,  0 h,  7 min, 53.973 sec
 * ratio c/w:   137.703 speedup
 SCF:
 * wall-time:     0 d,  0 h,  0 min,  0.160 sec
 *  cpu-time:     0 d,  0 h,  0 min, 22.519 sec
 * ratio c/w:   140.627 speedup
 ANC optimizer:
 * wall-time:     0 d,  0 h,  0 min,  3.259 sec
 *  cpu-time:     0 d,  0 h,  7 min, 28.383 sec
 * ratio c/w:   137.587 speedup

