28
 energy: -40.297328124039 gnorm: 0.000870968986 xtb: 6.5.1 (fef0646)
N            1.05306513824828       -0.29649618148189        0.25179355563691
C            2.50916437230601       -0.34406688038127        0.18710247633732
C            3.18489679581609       -0.58220467765454        1.54764941669677
C            4.67755736950077       -0.62441998457701        1.38676694269666
C            5.43099172545975        0.51628620744818        1.47841350892301
C            6.82737025154714        0.49099159297024        1.28904511645665
C            7.61731787140972        1.65643659876963        1.37951948399699
C            8.96933177113702        1.59898791521672        1.19073213093552
C            9.59498759233090        0.37468327150688        0.90513068942811
C            8.85720014523054       -0.77171352543553        0.81069678085728
C            7.45963392618654       -0.74537166844552        0.99720628682542
C            6.66444390130334       -1.90658700336647        0.90405150374781
C            5.31348572041663       -1.84600653923897        1.09040318822935
Cl          -0.07119984517709        0.25813621109110       -2.41740020362867
H            0.44434880961512       -0.00306739433431       -1.18643363836554
H            0.74487067521703        0.44557442756906        0.87206309916481
H            0.67801199839959       -1.17581606400268        0.59270053688590
H            2.85564245282704        0.60342584349191       -0.23090824206448
H            2.78714913659918       -1.14072024086262       -0.50605206882872
H            2.82776889511773       -1.52724570882771        1.96527647577927
H            2.90565382521825        0.22391783191771        2.23086858909851
H            4.95902287555061        1.46298290892386        1.70381038759594
H            7.13129049776442        2.59653272896889        1.59986669280705
H            9.56876970603083        2.49507982065060        1.25970181472787
H           10.66524368629050        0.34916254627788        0.76035158665571
H            9.33332991733326       -1.71683569236591        0.59049063725369
H            7.14571494731847       -2.84839807656402        0.68167106516859
H            4.71407584100078       -2.74249826726420        1.01740218698190
