28
 energy: -40.341022328234 gnorm: 0.000365520521 xtb: 6.5.1 (fef0646)
N            0.93817202658598       -0.37380651726797        0.23519885613299
C            2.40959912004742       -0.44752473886421        0.33080543025356
C            2.96008012635310       -1.30492456532601       -0.80860584057472
C            4.45873457490550       -1.20849230723024       -0.85970516728322
C            5.25890275907374       -2.16600707678412       -0.29470692625139
C            6.66458445432766       -2.05580499365058       -0.31983452111696
C            7.50372125174917       -3.03365069923721        0.25442181344301
C            8.86329823574623       -2.89781507458411        0.21573442957690
C            9.44723064345136       -1.77904050470435       -0.39955159475670
C            8.66091403347693       -0.81470098274652       -0.96607789917067
C            7.25549060386592       -0.92516799988172       -0.94147647734916
C            6.41213662196591        0.04930179052485       -1.51701818074461
C            5.05483413752319       -0.08892862310628       -1.47463542076436
Cl           0.24156690601675        0.74662723870091       -2.52774319216747
H            0.54215955193254        0.22422284966175        0.96341177200188
H            0.52243533115029       -1.30692875616643        0.28755635540712
H            0.67071468993410        0.03006701778183       -0.69942412335312
H            2.69939163927539       -0.86957011630687        1.29367444989343
H            2.81563083894776        0.56022128783773        0.24612028186462
H            2.53634053013901       -0.93657111464735       -1.74497395097988
H            2.66287796187870       -2.34479528103476       -0.67519122527086
H            4.82242516772957       -3.03416672000968        0.17764977835837
H            7.05184819416210       -3.89416787606663        0.72603481981510
H            9.50029184287163       -3.64988691632201        0.65741118109336
H           10.52323769478002       -1.68783109479691       -0.42174137363053
H            9.10516823802297        0.04801481261331       -1.44217500113652
H            6.86278960481480        0.90726515351850       -1.99566755379367
H            4.41626321927138        0.65687180810078       -1.92646071949811
