18
 energy: -25.770069482651 gnorm: 0.000580024740 xtb: 6.5.1 (fef0646)
N            0.94342160026542        0.37204484402191        0.04268553622646
C            2.41433274578305        0.29307633743418       -0.03166446478823
C            3.03749431274338        1.68458010552126       -0.10558002312754
C            4.56315292532717        1.58682299103419       -0.16381851698616
C            5.18146059689525        2.97084316629760       -0.24639602085979
Br           7.16330585506603        2.86993799442736       -0.31305680223770
Cl          -0.17303865660797       -2.45178902470501        0.08905198721829
H            0.53231310850254       -0.59812866154348        0.07169206013550
H            0.55675293748692        0.84216837292212       -0.77941616023894
H            0.64079739126264        0.86105668852257        0.88870699182861
H            2.68452913745919       -0.29229208090260       -0.91030841529104
H            2.77672314026783       -0.24054221730013        0.84666983626565
H            2.75345750496022        2.26648896470748        0.77173283726828
H            2.68175785243883        2.20419615965131       -0.99569561835115
H            4.86426382339664        1.00167012757227       -1.03474174217363
H            4.93583269830097        1.07444431082653        0.72506004964976
H            4.95198215964018        3.57518748839410        0.62972848056022
H            4.88675086681125        3.49810443311806       -1.15238001509900
