28
 energy: -40.341319934906 gnorm: 0.000461168696 xtb: 6.5.1 (fef0646)
N            0.88103717347705        0.38958302960451        0.24584120020657
C            2.33738455468097        0.15319114537592        0.06714808714700
C            2.65603992006282        0.03689364893245       -1.41960573042767
C            2.74397611486195       -1.08434907002258        0.82908432935932
C            2.15814848790334       -2.32862504132586        0.52064043707565
C            2.51596112997131       -3.45773182728161        1.19874991596116
C            3.68696503750480       -1.01540665266505        1.81929663682292
C            4.07938995953307       -2.16193943912408        2.53920223500508
C            3.48140574334362       -3.40991243865057        2.22561463146654
C            3.86869979155045       -4.55576871757838        2.95049788612506
C            4.80339532584912       -4.46925201582582        3.94402860520487
C            5.39395871993334       -3.23413315767833        4.25643446591732
C            5.04199532724403       -2.10652034210379        3.56880431806305
Cl           0.23138543507497        0.81165842716495        3.18372892272821
H            0.65244600951417        0.53423913760819        1.26451974286948
H            0.34087892858084       -0.41772696007618       -0.07572074430419
H            0.57919485682825        1.22434325646654       -0.26262861930692
H            2.86194649217998        1.01063435217355        0.49512235915847
H            2.12650826794923       -0.79787794544467       -1.86781757057828
H            3.72027015482896       -0.13088824254012       -1.55178401313868
H            2.38966775481812        0.95145873936504       -1.94094092158162
H            1.42200991828902       -2.40151952346988       -0.26491402613050
H            2.06135878646552       -4.40868130681975        0.96246978188806
H            4.14182440014256       -0.06964935525907        2.07593488127660
H            3.41052437077229       -5.50398272234688        2.70834975727852
H            5.09447773874286       -5.34928489555951        4.49839449546586
H            6.12831779681432       -3.18386371812092        5.04691333544515
H            5.49174180308539       -1.15349836479411        3.80823560100010
