19
 energy: -26.258400537029 gnorm: 0.000524586453 xtb: 6.5.1 (fef0646)
N            1.06088266493833        0.14388692413721        0.44456517123285
C            2.53476435552443        0.06867960283517        0.49322711617210
C            2.99865446217061       -1.31297425375519        0.04871345552031
C            4.52001560643526       -1.38597266017483       -0.04803711410226
C            4.98070172108477       -2.77110534006531       -0.50433289831879
O            6.38729123828124       -2.89204116646105       -0.56079818827789
Cl           0.12105721919106       -0.47660571656436       -2.39928500571049
H            0.72206344470453        1.07456130584910        0.69827915691745
H            0.63878752906829       -0.55764742337506        1.05789846671513
H            0.72953734430246       -0.06175230527165       -0.53321879995438
H            2.87969516678459        0.27623504179435        1.50687257836033
H            2.94024404410027        0.81937633450236       -0.18456654628623
H            2.55942843585352       -1.52955497347332       -0.92715938427454
H            2.65018751191467       -2.07136825106667        0.75049588760006
H            4.97164652119633       -1.17240379084382        0.92235319861117
H            4.87696337797290       -0.63977775389665       -0.76125226388705
H            4.53800895769602       -3.00957529784083       -1.48183985521698
H            4.65788693789658       -3.53302260337786        0.20968537943335
H            6.73240346088495       -2.25190767295184       -1.19766035453358
