 Entering Gaussian System
 *********************************************
 Gaussian 98:
 frequency output generated by the xtb code
 *********************************************
                         Standard orientation:
 --------------------------------------------------------------------
  Center     Atomic     Atomic              Coordinates (Angstroms)
  Number     Number      Type              X           Y           Z
 --------------------------------------------------------------------
    1          7             0        3.753297   -1.272048    1.017779
    2          6             0        4.117548   -0.408362   -0.142744
    3          6             0        3.500105    0.990282   -0.069574
    4          6             0        2.022495    1.011809   -0.261339
    5          6             0        1.297968    2.020882   -0.862028
    6          6             0       -0.083194    1.800799   -0.892603
    7          6             0       -0.477878    0.599572   -0.306469
    8          6             0       -1.791690    0.105189   -0.176734
    9          6             0       -2.967049    0.715065   -0.611591
   10          6             0       -4.120262   -0.024019   -0.334786
   11          6             0       -3.874706   -1.208809    0.311836
   12         16             0       -2.199776   -1.411448    0.579340
   13         16             0        0.948900   -0.221595    0.259627
   14          1             0        4.166232   -2.214350    0.941489
   15          1             0        2.732987   -1.381703    1.086253
   16          1             0        4.080173   -0.859078    1.904287
   17          1             0        3.803602   -0.897312   -1.072862
   18          1             0        5.211718   -0.337488   -0.197848
   19          1             0        3.960826    1.643518   -0.820237
   20          1             0        3.735381    1.440982    0.900765
   21          1             0        1.761811    2.908389   -1.267801
   22          1             0       -0.781192    2.500922   -1.326232
   23          1             0       -2.985215    1.670124   -1.114743
   24          1             0       -5.114101    0.307346   -0.604513
   25          1             0       -4.620288   -1.921585    0.615290
 --------------------------------------------------------------------
     1 basis functions        1 primitive gaussians
     1 alpha electrons        1 beta electrons

 Harmonic frequencies (cm**-1), IR intensities (km*mol⁻¹),
 Raman scattering activities (A**4/amu), Raman depolarization ratios,
 reduced masses (AMU), force constants (mDyne/A) and normal coordinates:
                      1                      2                      3
                        a                      a                      a 
 Frequencies --    27.7285                45.0052                76.2021
 Red. masses --    20.1995                17.9583                13.1880
 Frc consts  --     0.0000                 0.0000                 0.0000
 IR Inten    --    11.5475                 4.1896                 1.4134
 Raman Activ --     0.0000                 0.0000                 0.0000
 Depolar     --     0.0000                 0.0000                 0.0000
 Atom AN      X      Y      Z        X      Y      Z        X      Y      Z
   1   7     0.01  -0.21  -0.37    -0.02   0.13   0.23    -0.09   0.01   0.12
   2   6     0.09   0.10  -0.10     0.02  -0.01   0.13    -0.27  -0.30  -0.18
   3   6    -0.02   0.04   0.15     0.00  -0.01  -0.06     0.03  -0.16  -0.27
   4   6     0.00  -0.01   0.02     0.01  -0.04  -0.10    -0.00   0.06   0.00
   5   6     0.03  -0.13  -0.20     0.01  -0.10  -0.20     0.01   0.06  -0.00
   6   6     0.03  -0.12  -0.20     0.01  -0.08  -0.17    -0.00   0.13   0.09
   7   6    -0.00  -0.00   0.02     0.00  -0.02  -0.04    -0.01   0.16   0.15
   8   6    -0.01   0.01   0.02    -0.01   0.03   0.06     0.01   0.08   0.08
   9   6     0.00   0.00  -0.01    -0.04   0.19   0.37    -0.01  -0.02   0.02
  10   6     0.00  -0.02  -0.06    -0.03   0.18   0.34     0.04  -0.17  -0.13
  11   6    -0.01  -0.03  -0.08    -0.00   0.01   0.02     0.12  -0.17  -0.17
  12  16    -0.02  -0.01  -0.02     0.05  -0.27  -0.52     0.19  -0.01  -0.06
  13  16    -0.07   0.29   0.62    -0.01   0.06   0.09    -0.05   0.27   0.30
  14   1     0.06  -0.03  -0.12     0.01   0.04   0.10    -0.15  -0.05   0.01
  15   1     0.00  -0.12  -0.17    -0.01   0.02   0.05    -0.03   0.13   0.18
  16   1    -0.08  -0.08  -0.06    -0.03   0.07   0.05     0.15  -0.00  -0.03
  17   1     0.07   0.08  -0.07     0.02  -0.03   0.05    -0.19  -0.12   0.00
  18   1     0.03   0.05   0.02     0.00  -0.00   0.05    -0.08  -0.15  -0.15
  19   1    -0.00   0.07   0.09     0.00  -0.03  -0.04     0.00  -0.10  -0.13
  20   1    -0.04  -0.05   0.08    -0.01   0.03  -0.03     0.09  -0.01  -0.11
  21   1     0.02  -0.06  -0.11     0.01  -0.04  -0.09     0.01   0.00  -0.03
  22   1     0.01  -0.06  -0.11     0.00  -0.04  -0.08     0.00   0.03   0.02
  23   1     0.00   0.01   0.01    -0.02   0.09   0.18    -0.02   0.00   0.02
  24   1     0.00  -0.01  -0.03    -0.02   0.08   0.16     0.01  -0.07  -0.06
  25   1    -0.00  -0.01  -0.03     0.00  -0.02  -0.03     0.05  -0.08  -0.08
                      4                      5                      6
                        a                      a                      a 
 Frequencies --    87.7896               128.6445               166.9596
 Red. masses --    16.1117                 5.8053                13.7476
 Frc consts  --     0.0000                 0.0000                 0.0000
 IR Inten    --     7.9112                 2.5766                 8.4860
 Raman Activ --     0.0000                 0.0000                 0.0000
 Depolar     --     0.0000                 0.0000                 0.0000
 Atom AN      X      Y      Z        X      Y      Z        X      Y      Z
   1   7    -0.40  -0.24  -0.03    -0.23   0.03  -0.01     0.36  -0.05   0.06
   2   6    -0.11  -0.07   0.16     0.17  -0.00   0.09     0.22   0.05   0.09
   3   6    -0.05  -0.04   0.20     0.05  -0.04  -0.27    -0.06  -0.07   0.11
   4   6    -0.02   0.05  -0.01     0.03  -0.09  -0.17    -0.04  -0.21  -0.16
   5   6     0.05   0.08  -0.04     0.00  -0.02  -0.03     0.05  -0.13  -0.14
   6   6     0.04   0.12  -0.14    -0.02   0.08   0.19     0.01   0.08  -0.00
   7   6    -0.02   0.12  -0.18    -0.01   0.08   0.19    -0.10   0.16   0.08
   8   6     0.02   0.07  -0.10    -0.01   0.07   0.18    -0.12   0.24   0.16
   9   6    -0.08  -0.05   0.00     0.01   0.04   0.09    -0.18   0.11   0.15
  10   6     0.02  -0.16   0.17     0.02  -0.07  -0.14    -0.08  -0.14  -0.07
  11   6     0.21  -0.11   0.19     0.01  -0.09  -0.19     0.07  -0.18  -0.18
  12  16     0.43   0.10   0.00    -0.02   0.02   0.09     0.11   0.23   0.06
  13  16    -0.14   0.11  -0.21     0.03  -0.01  -0.01    -0.26  -0.13  -0.14
  14   1    -0.08  -0.05  -0.00     0.21   0.11   0.20     0.00  -0.05  -0.07
  15   1    -0.11  -0.09  -0.10    -0.05  -0.26  -0.29     0.09   0.08   0.10
  16   1    -0.19  -0.08   0.03    -0.43   0.18   0.05     0.22  -0.09   0.01
  17   1     0.01   0.02   0.01     0.17  -0.03  -0.00     0.10   0.01   0.02
  18   1    -0.03  -0.03   0.11     0.05   0.04   0.15     0.06   0.07   0.04
  19   1     0.03   0.00   0.10    -0.00  -0.06  -0.13    -0.01   0.03   0.08
  20   1    -0.05  -0.04   0.08     0.02   0.07  -0.12    -0.10  -0.04   0.06
  21   1     0.03   0.02   0.01     0.00  -0.01  -0.02     0.04  -0.05  -0.05
  22   1     0.02   0.04  -0.05    -0.01   0.04   0.09     0.02   0.05   0.01
  23   1    -0.06  -0.02  -0.01     0.00   0.02   0.04    -0.09   0.05   0.07
  24   1    -0.01  -0.08   0.08     0.01  -0.03  -0.07    -0.03  -0.09  -0.04
  25   1     0.09  -0.05   0.08     0.00  -0.05  -0.09     0.05  -0.10  -0.10
                      7                      8                      9
                        a                      a                      a 
 Frequencies --   184.3751               225.6471               256.8886
 Red. masses --    11.7412                 9.8601                16.1744
 Frc consts  --     0.0000                 0.0000                 0.0000
 IR Inten    --    20.4454                22.1451                11.0960
 Raman Activ --     0.0000                 0.0000                 0.0000
 Depolar     --     0.0000                 0.0000                 0.0000
 Atom AN      X      Y      Z        X      Y      Z        X      Y      Z
   1   7     0.37   0.03   0.07    -0.22   0.15  -0.11     0.21  -0.32   0.11
   2   6     0.02  -0.09  -0.12     0.33   0.11   0.06     0.16  -0.10   0.20
   3   6    -0.03  -0.12  -0.08     0.11   0.01  -0.24     0.06  -0.09  -0.05
   4   6    -0.07  -0.06   0.18     0.05  -0.18   0.04     0.07   0.10  -0.29
   5   6     0.02   0.01   0.18     0.08  -0.10   0.14    -0.03   0.16  -0.10
   6   6     0.02   0.07   0.02     0.06   0.04   0.14    -0.07   0.19   0.15
   7   6    -0.05   0.03  -0.11    -0.04   0.02   0.03    -0.05   0.12   0.07
   8   6    -0.06   0.03  -0.25    -0.04  -0.01  -0.17    -0.02  -0.10  -0.08
   9   6    -0.13  -0.05  -0.19    -0.08  -0.06  -0.16    -0.05  -0.17  -0.13
  10   6    -0.08  -0.03   0.10    -0.06  -0.02   0.07    -0.10  -0.04   0.05
  11   6     0.04   0.05   0.20     0.00   0.05   0.18    -0.15   0.02   0.18
  12  16     0.15   0.12  -0.19     0.06   0.03  -0.15    -0.20  -0.19  -0.07
  13  16    -0.26  -0.03   0.17    -0.17  -0.10   0.20     0.13   0.40  -0.06
  14   1     0.35   0.10   0.17    -0.30  -0.06  -0.11     0.04  -0.09  -0.04
  15   1     0.12  -0.25  -0.08    -0.09   0.30  -0.00     0.06  -0.07   0.04
  16   1    -0.10   0.20   0.01     0.08  -0.11  -0.01     0.08  -0.15   0.05
  17   1    -0.04  -0.06   0.00     0.23   0.02  -0.02     0.11  -0.04   0.04
  18   1     0.00   0.00  -0.10     0.10   0.06   0.16     0.05   0.02   0.11
  19   1    -0.05  -0.04  -0.06    -0.04  -0.04  -0.15     0.08  -0.06  -0.00
  20   1     0.05  -0.02  -0.04     0.07   0.10  -0.12    -0.03  -0.00  -0.01
  21   1     0.03  -0.00   0.07     0.04  -0.04   0.04    -0.03   0.05  -0.05
  22   1     0.02   0.03  -0.00     0.03   0.03   0.05    -0.03   0.07   0.08
  23   1    -0.06  -0.03  -0.08    -0.04  -0.03  -0.07    -0.01  -0.06  -0.07
  24   1    -0.04  -0.02   0.07    -0.02  -0.01   0.05    -0.03   0.01   0.03
  25   1     0.03   0.02   0.11     0.01   0.03   0.10    -0.05   0.03   0.09
                     10                     11                     12
                        a                      a                      a 
 Frequencies --   294.9444               328.6262               352.2175
 Red. masses --    13.1769                 9.6871                21.2765
 Frc consts  --     0.0000                 0.0000                 0.0000
 IR Inten    --     1.2301                16.1556                 0.8842
 Raman Activ --     0.0000                 0.0000                 0.0000
 Depolar     --     0.0000                 0.0000                 0.0000
 Atom AN      X      Y      Z        X      Y      Z        X      Y      Z
   1   7     0.00  -0.01  -0.02     0.12  -0.31   0.04     0.03   0.13  -0.02
   2   6     0.13  -0.07  -0.02     0.04   0.04   0.22     0.12  -0.04  -0.08
   3   6     0.27   0.00  -0.04    -0.13   0.03  -0.27     0.00  -0.11   0.03
   4   6     0.19   0.17   0.30    -0.19   0.13   0.15    -0.02  -0.08   0.08
   5   6     0.17   0.08   0.16    -0.22   0.12   0.14     0.14   0.04   0.06
   6   6     0.18  -0.08  -0.24    -0.16  -0.09  -0.16     0.11   0.22  -0.14
   7   6    -0.01  -0.04  -0.24     0.00  -0.13  -0.18    -0.04   0.20  -0.18
   8   6    -0.12   0.07   0.00     0.05  -0.04   0.00     0.14  -0.17   0.09
   9   6    -0.26  -0.01   0.19     0.12   0.12   0.09     0.25  -0.05   0.08
  10   6    -0.22  -0.16   0.05     0.12   0.10  -0.03     0.16   0.09  -0.03
  11   6    -0.16  -0.23  -0.10     0.11   0.03  -0.15    -0.02   0.04  -0.06
  12  16    -0.26   0.06   0.10     0.14   0.05   0.11    -0.10  -0.39   0.22
  13  16     0.12   0.14  -0.11    -0.11  -0.00   0.03    -0.50   0.17  -0.12
  14   1    -0.01  -0.01   0.02     0.02  -0.08  -0.11    -0.02   0.02   0.05
  15   1    -0.00   0.02  -0.03     0.04  -0.08   0.04     0.00   0.07  -0.03
  16   1    -0.02   0.01  -0.00     0.07  -0.19   0.05    -0.00   0.07  -0.02
  17   1     0.03  -0.02  -0.01     0.12  -0.02   0.04     0.05  -0.02  -0.02
  18   1     0.04  -0.05   0.00     0.01   0.09   0.14     0.03   0.00  -0.01
  19   1     0.04  -0.05  -0.08    -0.09  -0.14  -0.24    -0.02   0.00   0.03
  20   1     0.17   0.03  -0.05     0.07   0.19  -0.19     0.01  -0.06   0.02
  21   1     0.04   0.04   0.07    -0.07   0.05   0.07     0.09  -0.00   0.04
  22   1     0.08  -0.03  -0.13    -0.06  -0.06  -0.08     0.08   0.09  -0.06
  23   1    -0.11   0.01   0.08     0.05   0.05   0.05     0.13  -0.01   0.03
  24   1    -0.07  -0.06   0.01     0.04   0.03  -0.01     0.06   0.06  -0.02
  25   1    -0.02  -0.10  -0.05     0.02   0.01  -0.07    -0.04   0.04  -0.04
                     13                     14                     15
                        a                      a                      a 
 Frequencies --   412.6386               458.2695               489.5837
 Red. masses --    12.4569                10.4954                11.4356
 Frc consts  --     0.0000                 0.0000                 0.0000
 IR Inten    --     4.6462                 2.1991                 1.2084
 Raman Activ --     0.0000                 0.0000                 0.0000
 Depolar     --     0.0000                 0.0000                 0.0000
 Atom AN      X      Y      Z        X      Y      Z        X      Y      Z
   1   7    -0.03   0.13   0.02     0.01  -0.10   0.01     0.01   0.05  -0.02
   2   6     0.10  -0.09  -0.07    -0.24   0.17   0.10     0.22  -0.16  -0.08
   3   6    -0.04  -0.15   0.03     0.00   0.25  -0.06     0.08  -0.17   0.09
   4   6     0.01  -0.13  -0.38     0.03  -0.07   0.05    -0.03   0.26   0.36
   5   6    -0.09   0.13   0.18     0.21  -0.15  -0.20    -0.17  -0.12  -0.21
   6   6    -0.08   0.00   0.12     0.15   0.18   0.16    -0.19  -0.09   0.05
   7   6     0.03  -0.23  -0.31     0.05   0.12   0.02    -0.12   0.05   0.32
   8   6     0.01  -0.16  -0.33     0.08  -0.16  -0.34    -0.05  -0.13  -0.16
   9   6    -0.02   0.07   0.09     0.01  -0.07  -0.02     0.01  -0.00  -0.15
  10   6    -0.02   0.09   0.17    -0.04   0.09   0.27    -0.01   0.18   0.21
  11   6     0.04  -0.13  -0.26    -0.03  -0.18  -0.25     0.09  -0.05  -0.22
  12  16     0.01   0.16   0.18    -0.10   0.04   0.16     0.10   0.05   0.08
  13  16     0.06   0.11   0.19    -0.04  -0.10   0.02    -0.01   0.08  -0.18
  14   1    -0.05   0.01   0.07     0.07   0.01  -0.10    -0.05  -0.02   0.09
  15   1    -0.02   0.08  -0.01     0.02  -0.12   0.04    -0.01   0.09  -0.05
  16   1    -0.01   0.07  -0.01     0.01  -0.08   0.02    -0.02   0.06  -0.02
  17   1     0.06  -0.04  -0.02    -0.15   0.08   0.04     0.12  -0.06  -0.03
  18   1     0.03  -0.01   0.00    -0.07  -0.00  -0.04     0.06  -0.01   0.03
  19   1     0.05   0.05   0.13    -0.04  -0.02  -0.12     0.01  -0.01   0.05
  20   1    -0.13  -0.15   0.09     0.04   0.19  -0.08     0.09  -0.11   0.04
  21   1    -0.05   0.08   0.12     0.10  -0.09  -0.11    -0.09  -0.06  -0.16
  22   1    -0.04   0.01   0.08     0.06   0.10   0.09    -0.07  -0.05  -0.00
  23   1    -0.01   0.04   0.06    -0.01  -0.02  -0.00     0.02  -0.01  -0.06
  24   1    -0.01   0.04   0.09    -0.01   0.07   0.15    -0.01   0.07   0.13
  25   1     0.02  -0.06  -0.12    -0.00  -0.07  -0.10     0.02  -0.02  -0.08
                     16                     17                     18
                        a                      a                      a 
 Frequencies --   538.5284               561.8861               568.3444
 Red. masses --    10.2944                11.8725                13.0147
 Frc consts  --     0.0000                 0.0000                 0.0000
 IR Inten    --     0.1991                 0.5682                 2.4055
 Raman Activ --     0.0000                 0.0000                 0.0000
 Depolar     --     0.0000                 0.0000                 0.0000
 Atom AN      X      Y      Z        X      Y      Z        X      Y      Z
   1   7    -0.01   0.00  -0.00     0.01  -0.03   0.02    -0.00   0.05  -0.02
   2   6    -0.03   0.02   0.00    -0.01   0.01   0.02     0.04  -0.04  -0.04
   3   6    -0.09  -0.02  -0.05     0.21   0.12   0.03    -0.31  -0.21  -0.03
   4   6    -0.03  -0.10  -0.18     0.14  -0.01   0.01    -0.25   0.15   0.23
   5   6     0.02   0.18   0.25    -0.03  -0.17  -0.07     0.05   0.08  -0.25
   6   6     0.09  -0.10  -0.31    -0.08  -0.01   0.24     0.03   0.26   0.10
   7   6     0.03   0.17   0.24    -0.08  -0.29  -0.40     0.21  -0.04  -0.31
   8   6     0.02   0.16   0.27    -0.16   0.19   0.43     0.16   0.14   0.19
   9   6     0.05  -0.21  -0.32    -0.03  -0.04  -0.26     0.09  -0.15  -0.00
  10   6    -0.03   0.14   0.35    -0.04   0.15   0.12     0.04  -0.07   0.11
  11   6    -0.01  -0.15  -0.20     0.08   0.03  -0.13    -0.10  -0.14   0.02
  12  16    -0.05   0.02  -0.03     0.12  -0.11   0.01    -0.17   0.13  -0.11
  13  16     0.05  -0.07   0.03    -0.13   0.14  -0.02     0.19  -0.15   0.11
  14   1     0.01   0.00  -0.01     0.01   0.00  -0.01    -0.04  -0.01   0.03
  15   1     0.00  -0.01   0.01     0.00  -0.02  -0.00    -0.01   0.06   0.00
  16   1     0.00  -0.00  -0.00    -0.01  -0.02   0.01     0.02   0.03  -0.02
  17   1     0.01  -0.00  -0.00    -0.09   0.03   0.02     0.16  -0.07  -0.03
  18   1    -0.01   0.03   0.01    -0.00  -0.08  -0.06     0.01   0.12   0.09
  19   1    -0.01   0.00   0.01     0.06   0.01  -0.01    -0.11  -0.03   0.01
  20   1    -0.07  -0.01  -0.00     0.07   0.05  -0.00    -0.05  -0.09   0.00
  21   1     0.02   0.08   0.15    -0.04  -0.04  -0.03     0.07  -0.02  -0.11
  22   1     0.03  -0.08  -0.17    -0.02   0.07   0.18    -0.03   0.09   0.11
  23   1     0.01  -0.12  -0.21     0.03  -0.07  -0.19    -0.00  -0.07  -0.06
  24   1    -0.01   0.09   0.18    -0.02   0.03   0.06     0.03   0.01   0.01
  25   1    -0.00  -0.05  -0.06     0.02   0.01  -0.04    -0.02  -0.05   0.01
                     19                     20                     21
                        a                      a                      a 
 Frequencies --   634.7900               690.1504               726.7026
 Red. masses --    20.5382                17.1308                14.6322
 Frc consts  --     0.0000                 0.0000                 0.0000
 IR Inten    --     0.5320                24.3080                12.5471
 Raman Activ --     0.0000                 0.0000                 0.0000
 Depolar     --     0.0000                 0.0000                 0.0000
 Atom AN      X      Y      Z        X      Y      Z        X      Y      Z
   1   7     0.00  -0.02   0.01    -0.00  -0.06   0.04     0.01  -0.02   0.01
   2   6     0.04  -0.01   0.01     0.13  -0.08  -0.01     0.02  -0.02  -0.00
   3   6     0.20   0.09   0.04     0.34   0.17   0.03     0.04   0.03  -0.03
   4   6     0.10  -0.03  -0.04     0.06   0.15  -0.09     0.00   0.24  -0.09
   5   6    -0.13  -0.09   0.05    -0.21   0.10  -0.07     0.12   0.31  -0.15
   6   6    -0.12  -0.10   0.03    -0.30   0.32  -0.20     0.20  -0.18   0.12
   7   6     0.09  -0.09   0.06    -0.03   0.25  -0.13     0.10  -0.18   0.10
   8   6     0.22  -0.12   0.09     0.05   0.06  -0.03    -0.08   0.23  -0.13
   9   6     0.27  -0.20   0.12     0.01   0.00  -0.00    -0.00   0.33  -0.18
  10   6     0.24  -0.15   0.10     0.02  -0.00   0.00     0.33  -0.11   0.09
  11   6    -0.10  -0.21   0.10    -0.01  -0.01   0.00     0.12  -0.16   0.09
  12  16    -0.21   0.48  -0.27    -0.04  -0.07   0.03    -0.23  -0.15   0.06
  13  16    -0.30   0.13  -0.09     0.01  -0.49   0.25    -0.29  -0.13   0.04
  14   1     0.00  -0.00   0.00    -0.02  -0.03   0.04    -0.00  -0.01   0.01
  15   1     0.00  -0.01  -0.01    -0.01   0.02  -0.04     0.00   0.01  -0.01
  16   1    -0.01  -0.01   0.01    -0.04  -0.01   0.02    -0.00  -0.00   0.00
  17   1    -0.07   0.03   0.01    -0.08   0.01   0.02     0.01  -0.01  -0.00
  18   1     0.01  -0.08  -0.05     0.04  -0.15  -0.08     0.01  -0.00   0.01
  19   1     0.06   0.01   0.00     0.15   0.05   0.05     0.06   0.01   0.02
  20   1     0.05   0.03   0.00     0.07  -0.00   0.03     0.00  -0.02   0.01
  21   1    -0.08  -0.01   0.01    -0.06   0.03  -0.02    -0.05   0.12  -0.07
  22   1    -0.05  -0.04   0.02    -0.08   0.10  -0.05    -0.03  -0.12   0.06
  23   1     0.06  -0.06   0.04    -0.02   0.00   0.00    -0.12   0.09  -0.06
  24   1     0.10   0.03  -0.00     0.01   0.00   0.00     0.06  -0.10   0.06
  25   1    -0.00  -0.07   0.04    -0.01   0.00  -0.00    -0.02   0.00  -0.00
                     22                     23                     24
                        a                      a                      a 
 Frequencies --   737.0897               751.1318               817.2013
 Red. masses --    15.1168                 2.5526                 3.2801
 Frc consts  --     0.0000                 0.0000                 0.0000
 IR Inten    --     1.0608                18.1521                25.0353
 Raman Activ --     0.0000                 0.0000                 0.0000
 Depolar     --     0.0000                 0.0000                 0.0000
 Atom AN      X      Y      Z        X      Y      Z        X      Y      Z
   1   7    -0.01   0.02  -0.01    -0.00  -0.01  -0.01    -0.09  -0.03   0.03
   2   6    -0.02   0.02   0.01    -0.00  -0.00  -0.01    -0.11   0.01  -0.08
   3   6    -0.06  -0.04   0.04     0.00   0.00   0.00     0.08   0.07  -0.12
   4   6     0.00  -0.25   0.10     0.00   0.00  -0.00     0.08   0.01  -0.01
   5   6    -0.15  -0.34   0.16    -0.00   0.00   0.01    -0.02  -0.01   0.15
   6   6    -0.20   0.13  -0.09     0.00  -0.00  -0.00    -0.05   0.15   0.28
   7   6    -0.10   0.13  -0.07    -0.00   0.00   0.01    -0.02  -0.02  -0.09
   8   6    -0.07   0.17  -0.10     0.01  -0.03  -0.05    -0.01   0.01   0.03
   9   6     0.04   0.30  -0.15    -0.00   0.02   0.04     0.01  -0.03  -0.05
  10   6     0.39  -0.11   0.10    -0.01   0.04   0.08     0.01   0.00   0.01
  11   6     0.11  -0.18   0.11    -0.03   0.17   0.31    -0.00  -0.00   0.01
  12  16    -0.25  -0.09   0.02     0.00  -0.01  -0.02    -0.00   0.01   0.00
  13  16     0.30   0.19  -0.06    -0.00  -0.00  -0.00    -0.02  -0.04  -0.02
  14   1     0.00   0.01  -0.01     0.00  -0.00   0.00     0.09   0.04  -0.03
  15   1    -0.00  -0.00   0.00     0.00  -0.00   0.01     0.01  -0.15   0.24
  16   1     0.00   0.00  -0.00     0.00   0.01  -0.01     0.12   0.07  -0.08
  17   1    -0.01   0.01   0.00     0.01   0.00  -0.00     0.19  -0.02  -0.08
  18   1    -0.01   0.01  -0.01    -0.00   0.00   0.01    -0.02   0.05   0.21
  19   1    -0.07  -0.02  -0.03     0.00   0.00   0.00     0.08   0.12   0.09
  20   1    -0.00   0.03  -0.01     0.00   0.00  -0.00    -0.03  -0.13   0.05
  21   1     0.03  -0.12   0.08    -0.00   0.00   0.00     0.02  -0.17  -0.30
  22   1     0.02   0.10  -0.04     0.00  -0.00  -0.01     0.08  -0.28  -0.58
  23   1    -0.09   0.08  -0.05     0.02  -0.12  -0.23    -0.00   0.04   0.08
  24   1     0.08  -0.09   0.05     0.02  -0.11  -0.20     0.00   0.01   0.02
  25   1    -0.03  -0.00  -0.01     0.07  -0.40  -0.76    -0.00  -0.01  -0.02
                     25                     26                     27
                        a                      a                      a 
 Frequencies --   821.4886               831.3467               848.5905
 Red. masses --     3.1777                 3.4402                13.7305
 Frc consts  --     0.0000                 0.0000                 0.0000
 IR Inten    --    58.7910                12.0093                23.5614
 Raman Activ --     0.0000                 0.0000                 0.0000
 Depolar     --     0.0000                 0.0000                 0.0000
 Atom AN      X      Y      Z        X      Y      Z        X      Y      Z
   1   7     0.13   0.03  -0.03    -0.01   0.00   0.00    -0.01   0.00  -0.01
   2   6     0.16   0.00   0.11    -0.02  -0.01  -0.01     0.01  -0.01  -0.00
   3   6    -0.11  -0.08   0.14     0.01   0.00  -0.01     0.02   0.01   0.02
   4   6    -0.10  -0.06  -0.05     0.01   0.01   0.02    -0.00  -0.04   0.01
   5   6    -0.00   0.11   0.03     0.00  -0.03  -0.05    -0.07  -0.04   0.01
   6   6     0.01   0.09   0.20     0.00  -0.02  -0.04    -0.03  -0.01   0.01
   7   6     0.03  -0.05  -0.04     0.00  -0.00  -0.01     0.15  -0.03   0.03
   8   6     0.00   0.02   0.03    -0.01   0.04   0.08     0.05   0.22  -0.11
   9   6     0.00  -0.03  -0.07     0.03  -0.20  -0.37     0.06   0.11  -0.06
  10   6    -0.01  -0.00  -0.01     0.00  -0.03  -0.06     0.04  -0.03   0.02
  11   6    -0.00   0.02   0.02     0.00   0.07   0.13    -0.70  -0.16   0.02
  12  16     0.00  -0.00   0.01    -0.01   0.02   0.03     0.41  -0.09   0.09
  13  16     0.05   0.02  -0.03    -0.00   0.00   0.01    -0.04   0.05  -0.03
  14   1    -0.13  -0.07   0.03     0.01   0.01  -0.00     0.00   0.00   0.01
  15   1    -0.02   0.21  -0.37     0.00  -0.02   0.03     0.00  -0.01   0.02
  16   1    -0.19  -0.13   0.14     0.02   0.01  -0.01     0.01   0.01  -0.01
  17   1    -0.30   0.02   0.13     0.03  -0.00  -0.01    -0.00   0.01  -0.01
  18   1     0.03  -0.09  -0.32    -0.00   0.01   0.03     0.01  -0.02   0.00
  19   1    -0.09  -0.13  -0.09     0.00   0.01   0.00    -0.00  -0.00  -0.01
  20   1    -0.01   0.16  -0.06     0.01  -0.01   0.00     0.01   0.01  -0.00
  21   1     0.03  -0.08  -0.19    -0.01   0.05   0.11    -0.02  -0.01   0.01
  22   1     0.02  -0.22  -0.38    -0.01   0.06   0.11    -0.05  -0.04   0.01
  23   1    -0.02   0.05   0.10    -0.07   0.36   0.68    -0.09   0.03  -0.01
  24   1    -0.01   0.02   0.03    -0.02   0.12   0.23     0.07   0.15  -0.06
  25   1     0.01  -0.03  -0.05     0.03  -0.13  -0.24    -0.35   0.07  -0.08
                     28                     29                     30
                        a                      a                      a 
 Frequencies --   867.4122               873.9316               885.3822
 Red. masses --     5.1481                 4.1981                 3.4529
 Frc consts  --     0.0000                 0.0000                 0.0000
 IR Inten    --     4.7580                 1.3909                 1.8090
 Raman Activ --     0.0000                 0.0000                 0.0000
 Depolar     --     0.0000                 0.0000                 0.0000
 Atom AN      X      Y      Z        X      Y      Z        X      Y      Z
   1   7    -0.00   0.08  -0.26    -0.00  -0.06   0.15     0.00   0.00  -0.00
   2   6    -0.09  -0.07   0.13     0.05   0.03  -0.09    -0.01   0.00   0.00
   3   6     0.06  -0.16   0.35    -0.04   0.11  -0.18    -0.00  -0.00  -0.00
   4   6     0.03  -0.03  -0.10    -0.03   0.03   0.09     0.00   0.01   0.00
   5   6    -0.03  -0.02  -0.20     0.07  -0.19  -0.31     0.02  -0.01  -0.04
   6   6    -0.07   0.09   0.10     0.02   0.07   0.18     0.00   0.01   0.03
   7   6     0.09  -0.02   0.01    -0.06   0.01  -0.00    -0.05   0.01  -0.01
   8   6     0.05   0.05  -0.02    -0.03  -0.04   0.01    -0.03  -0.03   0.02
   9   6    -0.02  -0.01   0.01     0.01   0.01  -0.00    -0.01   0.09   0.15
  10   6    -0.05   0.01   0.01     0.02   0.02   0.04     0.06  -0.19  -0.36
  11   6     0.05   0.02  -0.02    -0.02  -0.02  -0.01    -0.02   0.03   0.08
  12  16    -0.03  -0.03   0.01     0.02   0.02  -0.01     0.01   0.02   0.01
  13  16    -0.03  -0.01   0.01     0.02   0.01   0.01     0.01  -0.01   0.01
  14   1     0.05   0.03   0.09    -0.03  -0.02  -0.02     0.00   0.00  -0.01
  15   1     0.02  -0.00   0.15    -0.01   0.00  -0.07     0.00  -0.00  -0.00
  16   1     0.13   0.25  -0.22    -0.07  -0.12   0.11     0.00  -0.00   0.00
  17   1     0.05   0.16  -0.09    -0.01  -0.09   0.03     0.00  -0.00   0.00
  18   1    -0.02  -0.02   0.13     0.01   0.02  -0.06    -0.00   0.01   0.00
  19   1    -0.02  -0.33  -0.18    -0.01   0.18   0.09     0.00  -0.00   0.00
  20   1     0.15   0.26  -0.09    -0.06  -0.13   0.04    -0.00  -0.00   0.00
  21   1    -0.06   0.19   0.30    -0.04   0.30   0.63    -0.01   0.04   0.06
  22   1    -0.04  -0.12  -0.18     0.06  -0.13  -0.29     0.02  -0.02  -0.05
  23   1    -0.03  -0.01  -0.01     0.02  -0.00  -0.01     0.04  -0.13  -0.25
  24   1    -0.02  -0.03  -0.02     0.02  -0.04  -0.08    -0.06   0.38   0.72
  25   1     0.03   0.00   0.03    -0.02   0.02   0.02    -0.00  -0.06  -0.12
                     31                     32                     33
                        a                      a                      a 
 Frequencies --   886.5670               905.7999              1005.0630
 Red. masses --    12.4596                 6.6376                 5.9019
 Frc consts  --     0.0000                 0.0000                 0.0000
 IR Inten    --     3.1327                33.3242                64.3326
 Raman Activ --     0.0000                 0.0000                 0.0000
 Depolar     --     0.0000                 0.0000                 0.0000
 Atom AN      X      Y      Z        X      Y      Z        X      Y      Z
   1   7    -0.04  -0.11   0.10     0.01   0.39  -0.13    -0.27   0.07   0.10
   2   6     0.10  -0.00  -0.11    -0.16   0.05   0.24     0.41   0.04  -0.11
   3   6     0.00   0.13  -0.04     0.13  -0.35  -0.08     0.01  -0.07   0.07
   4   6    -0.05  -0.12   0.06     0.10   0.06   0.03    -0.22  -0.13   0.05
   5   6    -0.16  -0.12   0.05    -0.06  -0.05  -0.01     0.03   0.18  -0.09
   6   6    -0.06   0.04  -0.02    -0.08   0.03  -0.02     0.01   0.03  -0.02
   7   6     0.52  -0.08   0.09     0.12   0.00   0.02    -0.02  -0.05   0.02
   8   6     0.31   0.34  -0.15     0.08   0.09  -0.04    -0.07  -0.08   0.04
   9   6    -0.07  -0.07   0.05    -0.01  -0.02   0.01    -0.01   0.03  -0.02
  10   6    -0.24  -0.01  -0.06    -0.05   0.00  -0.01     0.02  -0.00   0.00
  11   6     0.17   0.13  -0.05     0.03   0.03  -0.01     0.00  -0.01   0.01
  12  16    -0.12  -0.17   0.08    -0.02  -0.04   0.02     0.01   0.03  -0.01
  13  16    -0.11   0.14  -0.08    -0.06  -0.02   0.00     0.06   0.04  -0.01
  14   1    -0.03  -0.04   0.07     0.14   0.20  -0.49     0.17   0.15  -0.24
  15   1    -0.01  -0.01   0.03     0.02  -0.12  -0.08    -0.01  -0.31   0.30
  16   1    -0.01  -0.00   0.01    -0.03  -0.27   0.15     0.10  -0.08   0.01
  17   1    -0.00  -0.00  -0.02    -0.05  -0.11   0.13    -0.15   0.12  -0.01
  18   1     0.03  -0.05  -0.04    -0.05   0.05   0.03     0.13  -0.38  -0.11
  19   1    -0.05   0.12   0.03     0.14  -0.09   0.05    -0.19   0.05  -0.04
  20   1    -0.01  -0.02   0.02     0.03  -0.19   0.03    -0.01   0.06  -0.02
  21   1     0.00  -0.05   0.03    -0.04   0.02   0.03     0.08   0.02  -0.01
  22   1    -0.14  -0.10   0.03    -0.05  -0.03  -0.01    -0.06  -0.04   0.02
  23   1    -0.16  -0.04  -0.03    -0.04  -0.01  -0.01     0.03   0.01  -0.00
  24   1    -0.09  -0.00   0.07    -0.02  -0.00  -0.00    -0.00  -0.03   0.01
  25   1     0.14  -0.04   0.03     0.03  -0.01   0.00    -0.02   0.01  -0.01
                     34                     35                     36
                        a                      a                      a 
 Frequencies --  1027.6196              1075.4842              1081.2822
 Red. masses --     8.3079                 3.5038                 6.4691
 Frc consts  --     0.0000                 0.0000                 0.0000
 IR Inten    --    16.4171                 9.9296                 9.9999
 Raman Activ --     0.0000                 0.0000                 0.0000
 Depolar     --     0.0000                 0.0000                 0.0000
 Atom AN      X      Y      Z        X      Y      Z        X      Y      Z
   1   7    -0.07  -0.10   0.35     0.05   0.03  -0.00     0.06   0.17  -0.03
   2   6    -0.05   0.36  -0.46    -0.09  -0.08  -0.01    -0.06  -0.45  -0.06
   3   6     0.04  -0.23   0.24     0.07   0.09   0.04    -0.06   0.37   0.24
   4   6     0.15  -0.01  -0.12    -0.04  -0.09   0.00    -0.03  -0.11  -0.10
   5   6    -0.01   0.03  -0.01     0.08   0.09  -0.03    -0.01   0.06  -0.02
   6   6    -0.04   0.02  -0.01    -0.10   0.11  -0.07     0.03   0.02  -0.00
   7   6    -0.01   0.01  -0.01     0.09  -0.09   0.05    -0.00  -0.02   0.01
   8   6     0.00   0.00   0.00    -0.03  -0.17   0.09    -0.02  -0.02   0.01
   9   6    -0.00  -0.00   0.00    -0.11  -0.06   0.02     0.03   0.08  -0.04
  10   6     0.00   0.00  -0.00     0.08  -0.06   0.04    -0.04   0.02  -0.02
  11   6     0.00  -0.00   0.00     0.13   0.10  -0.04    -0.06  -0.05   0.02
  12  16     0.00   0.00  -0.00     0.01   0.08  -0.04     0.01  -0.01   0.01
  13  16    -0.01  -0.04   0.02    -0.01   0.03  -0.02     0.01   0.01  -0.00
  14   1    -0.04  -0.02  -0.03    -0.02  -0.01  -0.01     0.03   0.06  -0.18
  15   1    -0.02  -0.04  -0.01     0.01   0.03  -0.06     0.02  -0.02  -0.10
  16   1    -0.08  -0.17   0.18    -0.02  -0.03   0.03    -0.02  -0.13   0.09
  17   1     0.10   0.01  -0.11     0.07  -0.08  -0.00     0.20  -0.33   0.02
  18   1    -0.02   0.28  -0.04    -0.03   0.06   0.05    -0.01  -0.00   0.13
  19   1    -0.13  -0.15  -0.11     0.01   0.02  -0.00    -0.30   0.14  -0.08
  20   1     0.35  -0.02  -0.04     0.10  -0.02   0.01     0.31   0.06  -0.00
  21   1    -0.10   0.04  -0.05     0.33  -0.09   0.07    -0.01   0.01  -0.03
  22   1    -0.01   0.00  -0.01    -0.24  -0.14   0.04     0.01   0.00  -0.01
  23   1    -0.01  -0.00  -0.00    -0.10  -0.02   0.00     0.08   0.03  -0.01
  24   1     0.00   0.00  -0.00    -0.10  -0.30   0.15     0.01   0.05  -0.03
  25   1    -0.01   0.01  -0.00    -0.43   0.41  -0.26     0.14  -0.14   0.09
                     37                     38                     39
                        a                      a                      a 
 Frequencies --  1086.4682              1096.8749              1159.8073
 Red. masses --     4.9034                 3.4845                 5.4025
 Frc consts  --     0.0000                 0.0000                 0.0000
 IR Inten    --     3.9513                 2.8115                 5.6033
 Raman Activ --     0.0000                 0.0000                 0.0000
 Depolar     --     0.0000                 0.0000                 0.0000
 Atom AN      X      Y      Z        X      Y      Z        X      Y      Z
   1   7     0.03  -0.04   0.02     0.01   0.00   0.01    -0.01   0.02   0.01
   2   6    -0.08   0.12  -0.01    -0.02  -0.01  -0.01     0.02  -0.02  -0.04
   3   6     0.13  -0.05  -0.05     0.03   0.02   0.01    -0.02   0.02   0.02
   4   6    -0.06  -0.07   0.04    -0.02  -0.05   0.01    -0.03   0.10  -0.05
   5   6     0.09   0.10  -0.05     0.11   0.06  -0.02    -0.12  -0.01  -0.01
   6   6    -0.16   0.14  -0.09    -0.04  -0.07   0.03    -0.01   0.18  -0.09
   7   6     0.09  -0.14   0.08    -0.21   0.08  -0.06     0.21  -0.33   0.19
   8   6    -0.09  -0.18   0.08    -0.05   0.07  -0.04    -0.02  -0.24   0.12
   9   6     0.04   0.26  -0.13    -0.07  -0.23   0.12    -0.17   0.06  -0.05
  10   6    -0.08   0.06  -0.04     0.19   0.05  -0.01     0.07   0.05  -0.02
  11   6    -0.15  -0.12   0.05     0.09   0.07  -0.03     0.02   0.01  -0.00
  12  16     0.04   0.00   0.00    -0.02  -0.02   0.01     0.03   0.03  -0.01
  13  16    -0.01   0.03  -0.02     0.04   0.01   0.00    -0.06  -0.00  -0.01
  14   1    -0.03  -0.03   0.06     0.00   0.00  -0.01    -0.00   0.00  -0.02
  15   1     0.00   0.04  -0.03    -0.00   0.00  -0.01     0.00  -0.01  -0.00
  16   1    -0.02   0.02  -0.00    -0.00  -0.01   0.01    -0.01  -0.02   0.02
  17   1     0.00   0.05  -0.02     0.02  -0.01  -0.01     0.01  -0.01  -0.01
  18   1    -0.02   0.07   0.01    -0.01   0.01   0.02     0.01  -0.01  -0.00
  19   1     0.15  -0.05   0.03     0.00   0.01  -0.00     0.08  -0.06  -0.00
  20   1     0.00  -0.05   0.01     0.02  -0.00   0.00    -0.01   0.03  -0.00
  21   1     0.47  -0.14   0.12     0.17  -0.04   0.03     0.13  -0.06   0.05
  22   1    -0.27  -0.14   0.05    -0.25  -0.21   0.08     0.44   0.41  -0.17
  23   1     0.16   0.08  -0.03    -0.52  -0.09  -0.00    -0.40  -0.00  -0.04
  24   1    -0.02   0.03  -0.02     0.27   0.47  -0.22     0.08   0.14  -0.07
  25   1     0.30  -0.31   0.19     0.08  -0.02   0.02     0.01  -0.00   0.00
                     40                     41                     42
                        a                      a                      a 
 Frequencies --  1174.8865              1189.9447              1205.7617
 Red. masses --     4.9997                 5.7785                 7.6791
 Frc consts  --     0.0000                 0.0000                 0.0000
 IR Inten    --     7.1859                 3.4925                 9.9064
 Raman Activ --     0.0000                 0.0000                 0.0000
 Depolar     --     0.0000                 0.0000                 0.0000
 Atom AN      X      Y      Z        X      Y      Z        X      Y      Z
   1   7     0.00  -0.08  -0.11    -0.03   0.07   0.09     0.14   0.06   0.11
   2   6    -0.04   0.13   0.22     0.07  -0.16  -0.18    -0.19  -0.03  -0.13
   3   6     0.05  -0.10  -0.11    -0.19   0.06   0.07     0.28   0.04  -0.00
   4   6     0.08  -0.19   0.06     0.20   0.20  -0.02    -0.41  -0.35   0.16
   5   6     0.04   0.07  -0.03     0.10  -0.16   0.09    -0.11   0.14  -0.09
   6   6     0.05   0.12  -0.06    -0.02  -0.06   0.03     0.18   0.00   0.02
   7   6     0.07   0.04  -0.02    -0.02   0.17  -0.09    -0.03   0.03  -0.02
   8   6     0.06  -0.29   0.16     0.14  -0.19   0.11     0.02  -0.04   0.02
   9   6    -0.03   0.15  -0.08     0.09   0.12  -0.05     0.01   0.01  -0.00
  10   6     0.04   0.06  -0.03     0.02   0.04  -0.02     0.02   0.00  -0.00
  11   6    -0.10   0.04  -0.03    -0.17   0.10  -0.07    -0.03   0.03  -0.02
  12  16     0.04   0.03  -0.01     0.03   0.01  -0.00     0.00   0.00  -0.00
  13  16     0.01   0.00  -0.00    -0.03  -0.04   0.01     0.08   0.06  -0.02
  14   1    -0.01  -0.03   0.10     0.02   0.04  -0.10    -0.05  -0.02  -0.04
  15   1    -0.00   0.05   0.04    -0.00  -0.06  -0.01     0.02   0.06  -0.15
  16   1     0.02   0.11  -0.09     0.00  -0.08   0.06    -0.07  -0.09   0.11
  17   1    -0.10  -0.00   0.11     0.06  -0.00  -0.08     0.12   0.20  -0.20
  18   1    -0.02   0.03  -0.03     0.02  -0.00  -0.01    -0.02  -0.15   0.22
  19   1    -0.29   0.23   0.02     0.12  -0.16  -0.03     0.28  -0.10   0.03
  20   1     0.22  -0.21   0.02    -0.33   0.25  -0.03    -0.10   0.05   0.02
  21   1    -0.35   0.16  -0.11    -0.04  -0.02   0.01    -0.24   0.11  -0.09
  22   1    -0.12  -0.08   0.03    -0.13  -0.12   0.05     0.04  -0.01   0.01
  23   1    -0.36   0.02  -0.05    -0.37   0.01  -0.04    -0.09  -0.00  -0.01
  24   1    -0.06  -0.14   0.07    -0.13  -0.29   0.14    -0.02  -0.05   0.03
  25   1     0.08  -0.08   0.05     0.11  -0.10   0.06     0.03  -0.02   0.01
                     43                     44                     45
                        a                      a                      a 
 Frequencies --  1233.0219              1244.5790              1297.5109
 Red. masses --     6.3298                 3.2338                 6.9962
 Frc consts  --     0.0000                 0.0000                 0.0000
 IR Inten    --     7.1604                32.9804                41.7927
 Raman Activ --     0.0000                 0.0000                 0.0000
 Depolar     --     0.0000                 0.0000                 0.0000
 Atom AN      X      Y      Z        X      Y      Z        X      Y      Z
   1   7     0.03   0.04   0.06     0.17   0.05   0.09    -0.03  -0.01   0.03
   2   6    -0.03  -0.10  -0.06    -0.13  -0.04   0.04    -0.07  -0.10  -0.01
   3   6    -0.09  -0.03  -0.02    -0.07  -0.13  -0.08     0.25  -0.12   0.00
   4   6     0.26  -0.02   0.09     0.16   0.18  -0.09     0.12  -0.13   0.12
   5   6     0.11  -0.06   0.04     0.04  -0.02   0.02     0.15   0.17  -0.07
   6   6    -0.01   0.23  -0.12    -0.12  -0.05   0.01    -0.21   0.11  -0.08
   7   6     0.23  -0.04   0.04    -0.04  -0.03   0.01    -0.05  -0.24   0.12
   8   6    -0.10  -0.18   0.08     0.02   0.07  -0.03    -0.18   0.18  -0.11
   9   6    -0.26   0.11  -0.08     0.06  -0.03   0.02     0.12  -0.17   0.10
  10   6    -0.06   0.03  -0.02     0.01  -0.01   0.00     0.13  -0.06   0.05
  11   6     0.18  -0.20   0.12    -0.04   0.04  -0.02    -0.10   0.18  -0.11
  12  16    -0.01   0.02  -0.01     0.00  -0.01   0.00     0.01  -0.01   0.01
  13  16    -0.04  -0.01   0.00    -0.02  -0.03   0.01     0.01   0.00  -0.00
  14   1    -0.01   0.01  -0.04    -0.05  -0.02  -0.03     0.01   0.01  -0.03
  15   1     0.01   0.00  -0.06     0.02   0.08  -0.16    -0.01   0.00  -0.02
  16   1    -0.01  -0.04   0.04    -0.06  -0.04   0.09     0.02   0.01  -0.01
  17   1     0.03   0.11  -0.10     0.00   0.48  -0.26     0.02  -0.02  -0.02
  18   1    -0.00  -0.04   0.06     0.01  -0.39   0.30    -0.04   0.28  -0.09
  19   1    -0.07   0.02  -0.01    -0.35   0.19  -0.03    -0.25   0.18  -0.01
  20   1    -0.27   0.15  -0.02     0.07  -0.10  -0.01    -0.38   0.24  -0.02
  21   1    -0.28   0.11  -0.08     0.16  -0.06   0.05    -0.04   0.09  -0.05
  22   1    -0.22  -0.11   0.03     0.05   0.05  -0.02     0.04   0.12  -0.06
  23   1     0.22   0.05  -0.00    -0.03  -0.01   0.00     0.01  -0.05   0.03
  24   1     0.13   0.32  -0.16    -0.02  -0.06   0.03    -0.01  -0.12   0.06
  25   1    -0.14   0.09  -0.06     0.02  -0.02   0.01     0.10  -0.05   0.04
                     46                     47                     48
                        a                      a                      a 
 Frequencies --  1326.6919              1333.8523              1371.3547
 Red. masses --     5.0224                 6.9422                10.1885
 Frc consts  --     0.0000                 0.0000                 0.0000
 IR Inten    --    11.5993                11.3129                 2.3299
 Raman Activ --     0.0000                 0.0000                 0.0000
 Depolar     --     0.0000                 0.0000                 0.0000
 Atom AN      X      Y      Z        X      Y      Z        X      Y      Z
   1   7     0.12   0.00  -0.13    -0.05   0.04   0.06    -0.00  -0.03   0.01
   2   6    -0.06   0.32  -0.13     0.13  -0.18   0.08    -0.03   0.04  -0.01
   3   6    -0.16   0.01   0.04    -0.33   0.19  -0.08     0.15  -0.11   0.04
   4   6     0.12  -0.03   0.04     0.10  -0.07   0.02    -0.05   0.18  -0.09
   5   6     0.13  -0.00   0.02     0.07  -0.04   0.03    -0.42  -0.15   0.03
   6   6    -0.09   0.12  -0.07     0.03   0.20  -0.10     0.45   0.10  -0.00
   7   6     0.02  -0.13   0.07     0.05  -0.15   0.08     0.14   0.10  -0.04
   8   6    -0.16   0.07  -0.05    -0.27   0.07  -0.06    -0.18  -0.06   0.01
   9   6     0.02  -0.10   0.06    -0.02  -0.16   0.08    -0.30  -0.14   0.05
  10   6     0.12  -0.04   0.03     0.21  -0.05   0.04     0.33   0.05   0.01
  11   6    -0.07   0.12  -0.07    -0.11   0.18  -0.11    -0.13   0.14  -0.09
  12  16     0.01  -0.00   0.00     0.02  -0.00   0.00     0.02  -0.00   0.00
  13  16    -0.00   0.00  -0.00    -0.00   0.00  -0.00    -0.01  -0.02   0.01
  14   1    -0.10  -0.07   0.13     0.02   0.03  -0.04     0.04   0.02  -0.03
  15   1     0.04  -0.01   0.09    -0.01  -0.04  -0.04    -0.01   0.06  -0.01
  16   1    -0.11  -0.04   0.05     0.06  -0.01  -0.00    -0.00   0.03  -0.01
  17   1     0.06  -0.40   0.19    -0.06   0.31  -0.13     0.01  -0.06   0.02
  18   1     0.04  -0.51   0.25     0.01   0.12  -0.11    -0.01  -0.01   0.02
  19   1     0.10  -0.12  -0.01     0.28  -0.16   0.02    -0.15   0.09  -0.00
  20   1    -0.03   0.01   0.01     0.29  -0.22   0.02    -0.08   0.09  -0.02
  21   1    -0.10   0.06  -0.04    -0.14   0.05  -0.04     0.08  -0.12   0.07
  22   1    -0.05   0.02  -0.01    -0.10  -0.03   0.00    -0.07  -0.14   0.07
  23   1     0.04  -0.03   0.02     0.08  -0.05   0.03     0.15  -0.03   0.03
  24   1     0.01  -0.06   0.03     0.03  -0.09   0.05     0.05  -0.08   0.05
  25   1     0.07  -0.03   0.02     0.11  -0.05   0.04     0.11  -0.07   0.05
                     49                     50                     51
                        a                      a                      a 
 Frequencies --  1386.5368              1414.1616              1420.6808
 Red. masses --     2.9223                11.2336                 1.6320
 Frc consts  --     0.0000                 0.0000                 0.0000
 IR Inten    --   164.3787                25.7851                66.9159
 Raman Activ --     0.0000                 0.0000                 0.0000
 Depolar     --     0.0000                 0.0000                 0.0000
 Atom AN      X      Y      Z        X      Y      Z        X      Y      Z
   1   7    -0.14  -0.24   0.22    -0.00   0.00   0.00    -0.03   0.12   0.16
   2   6    -0.03   0.11  -0.03     0.00  -0.01   0.00    -0.02   0.08   0.02
   3   6    -0.05   0.00   0.01    -0.01   0.03  -0.01     0.02  -0.01   0.01
   4   6     0.01  -0.02   0.01    -0.04  -0.07   0.03    -0.00   0.01  -0.00
   5   6     0.05   0.00   0.00     0.22   0.07  -0.01    -0.01  -0.00  -0.00
   6   6    -0.04   0.02  -0.01    -0.28  -0.18   0.06     0.00  -0.01   0.01
   7   6    -0.02  -0.04   0.02     0.02   0.06  -0.03     0.01   0.02  -0.01
   8   6     0.01   0.02  -0.01     0.28   0.04   0.01    -0.01  -0.01   0.00
   9   6     0.02  -0.00   0.00    -0.54  -0.15   0.03    -0.01   0.00  -0.00
  10   6    -0.02   0.00  -0.00     0.34   0.41  -0.18     0.00  -0.01   0.01
  11   6     0.00  -0.01   0.01    -0.09  -0.15   0.07    -0.00   0.01  -0.01
  12  16     0.00  -0.00  -0.00     0.02  -0.02   0.01    -0.00  -0.00  -0.00
  13  16     0.00   0.00  -0.00    -0.00   0.02  -0.01    -0.00  -0.00   0.00
  14   1     0.42   0.20  -0.28    -0.01  -0.00   0.00    -0.35  -0.14   0.01
  15   1    -0.10   0.43  -0.36     0.00  -0.01  -0.00     0.02  -0.51  -0.49
  16   1     0.25   0.24  -0.21     0.00  -0.00   0.00     0.48   0.11  -0.21
  17   1     0.07  -0.13   0.04     0.00   0.01  -0.00     0.02  -0.08   0.05
  18   1     0.01  -0.17   0.02    -0.00   0.01  -0.01     0.00  -0.06   0.00
  19   1     0.05  -0.03   0.01     0.03  -0.02  -0.01    -0.03  -0.02  -0.03
  20   1     0.02   0.01  -0.00     0.01  -0.03   0.01    -0.02  -0.03   0.02
  21   1    -0.02   0.01  -0.01    -0.01   0.05  -0.03     0.01  -0.01   0.00
  22   1     0.00   0.02  -0.01     0.07   0.07  -0.03     0.00  -0.00  -0.00
  23   1    -0.01  -0.00  -0.00     0.14  -0.03   0.03     0.00   0.00  -0.00
  24   1    -0.01  -0.00  -0.00    -0.02  -0.14   0.07     0.00   0.00  -0.00
  25   1    -0.01   0.00  -0.00     0.03  -0.08   0.05     0.00  -0.00  -0.00
                     52                     53                     54
                        a                      a                      a 
 Frequencies --  1431.2473              1433.9921              1460.0388
 Red. masses --    10.8794                 2.2214                 1.8933
 Frc consts  --     0.0000                 0.0000                 0.0000
 IR Inten    --    45.0572                65.9681                19.5503
 Raman Activ --     0.0000                 0.0000                 0.0000
 Depolar     --     0.0000                 0.0000                 0.0000
 Atom AN      X      Y      Z        X      Y      Z        X      Y      Z
   1   7     0.03  -0.03   0.03    -0.16   0.09  -0.13    -0.02   0.04  -0.03
   2   6    -0.00  -0.00   0.02    -0.03   0.00  -0.01    -0.01  -0.02  -0.02
   3   6     0.09  -0.00   0.02     0.06   0.03   0.01    -0.15  -0.22  -0.04
   4   6    -0.25   0.08  -0.08    -0.05   0.02  -0.02    -0.01  -0.02   0.00
   5   6     0.27  -0.09   0.07     0.05  -0.01   0.01     0.02   0.00  -0.00
   6   6    -0.28  -0.24   0.10    -0.06  -0.06   0.02    -0.03  -0.02   0.01
   7   6     0.38   0.28  -0.11     0.09   0.07  -0.03     0.01   0.02  -0.01
   8   6    -0.17  -0.15   0.06    -0.04  -0.04   0.02     0.01  -0.01   0.00
   9   6    -0.11   0.08  -0.05    -0.03   0.02  -0.01    -0.02   0.01  -0.00
  10   6     0.05  -0.34   0.19     0.01  -0.08   0.04     0.01  -0.02   0.01
  11   6    -0.06   0.28  -0.15    -0.01   0.07  -0.04    -0.00   0.01  -0.01
  12  16    -0.00   0.00  -0.00    -0.00   0.00  -0.00    -0.00  -0.00   0.00
  13  16    -0.01   0.01  -0.01    -0.00   0.00  -0.00    -0.00   0.00   0.00
  14   1    -0.06  -0.02  -0.13     0.34   0.12   0.54     0.04   0.01   0.11
  15   1     0.01   0.01   0.03    -0.04   0.08  -0.11    -0.00  -0.03  -0.05
  16   1    -0.10   0.12  -0.02     0.37  -0.51   0.09     0.09  -0.10   0.01
  17   1     0.03  -0.00  -0.01    -0.02   0.02  -0.01    -0.04  -0.00   0.01
  18   1    -0.00   0.01  -0.04    -0.01  -0.00   0.05    -0.00  -0.00   0.06
  19   1    -0.01   0.02  -0.00    -0.07  -0.06  -0.10     0.24   0.38   0.49
  20   1     0.04  -0.01  -0.00    -0.06  -0.09   0.06     0.31   0.49  -0.31
  21   1    -0.06   0.02  -0.02    -0.01   0.00  -0.00    -0.00   0.01   0.00
  22   1     0.08   0.06  -0.02     0.02   0.01  -0.00     0.01   0.00  -0.00
  23   1     0.09   0.03  -0.01     0.02   0.01  -0.00     0.01   0.00  -0.00
  24   1     0.11   0.10  -0.04     0.03   0.03  -0.01     0.01   0.00  -0.00
  25   1     0.07   0.02  -0.00     0.02   0.01  -0.00     0.00   0.00   0.00
                     55                     56                     57
                        a                      a                      a 
 Frequencies --  1474.1042              1482.7966              1519.1213
 Red. masses --     2.2436                10.9116                11.4818
 Frc consts  --     0.0000                 0.0000                 0.0000
 IR Inten    --    23.6220                 3.4499                29.5756
 Raman Activ --     0.0000                 0.0000                 0.0000
 Depolar     --     0.0000                 0.0000                 0.0000
 Atom AN      X      Y      Z        X      Y      Z        X      Y      Z
   1   7    -0.01   0.02  -0.01    -0.00  -0.00  -0.00     0.00   0.00  -0.00
   2   6    -0.16   0.09   0.21     0.03  -0.02  -0.03     0.00  -0.00   0.00
   3   6     0.02  -0.03   0.00     0.15  -0.03   0.03     0.10  -0.02   0.02
   4   6    -0.06   0.06  -0.04    -0.39   0.25  -0.18    -0.27   0.21  -0.14
   5   6     0.05  -0.06   0.04     0.28  -0.28   0.18     0.24  -0.23   0.14
   6   6     0.01   0.03  -0.02    -0.02   0.11  -0.06     0.08   0.24  -0.11
   7   6     0.01  -0.02   0.01     0.14  -0.04   0.03    -0.36  -0.31   0.12
   8   6    -0.05   0.01  -0.01    -0.33   0.05  -0.06     0.46   0.04   0.02
   9   6     0.05  -0.02   0.02     0.23  -0.12   0.09    -0.19   0.10  -0.07
  10   6    -0.01   0.07  -0.04    -0.03   0.32  -0.17     0.00  -0.22   0.11
  11   6     0.01  -0.05   0.03     0.07  -0.24   0.14    -0.05   0.16  -0.09
  12  16     0.00   0.00  -0.00     0.01   0.01  -0.00    -0.00  -0.01   0.00
  13  16     0.00  -0.00  -0.00     0.01   0.01  -0.00     0.01   0.01  -0.00
  14   1    -0.01  -0.00   0.06     0.00   0.00   0.00    -0.01  -0.00   0.00
  15   1     0.00  -0.03   0.05     0.00   0.00  -0.02     0.00  -0.01   0.00
  16   1    -0.01  -0.06   0.04     0.01   0.00  -0.01     0.00  -0.00  -0.00
  17   1     0.62  -0.00  -0.20    -0.12   0.00   0.04    -0.01   0.00   0.00
  18   1    -0.02  -0.25  -0.61     0.00   0.07   0.12     0.00   0.02   0.01
  19   1    -0.01   0.04   0.03    -0.03   0.03  -0.00    -0.03   0.02  -0.00
  20   1     0.03   0.03  -0.02     0.04   0.01  -0.01     0.02   0.01  -0.00
  21   1    -0.03  -0.00  -0.00    -0.14  -0.00  -0.01    -0.11   0.00  -0.01
  22   1    -0.02  -0.01   0.00    -0.06  -0.02   0.00    -0.12  -0.04   0.01
  23   1    -0.03  -0.01   0.00    -0.12  -0.05   0.01     0.10   0.04  -0.01
  24   1    -0.02  -0.02   0.01    -0.09  -0.08   0.03     0.05   0.05  -0.02
  25   1    -0.01  -0.00   0.00    -0.05  -0.02   0.01     0.03   0.01  -0.00
                     58                     59                     60
                        a                      a                      a 
 Frequencies --  2929.9519              2949.6082              2962.4825
 Red. masses --     1.9084                 1.9126                 1.5850
 Frc consts  --     0.0000                 0.0000                 0.0000
 IR Inten    --    10.0817                 6.9603                24.8776
 Raman Activ --     0.0000                 0.0000                 0.0000
 Depolar     --     0.0000                 0.0000                 0.0000
 Atom AN      X      Y      Z        X      Y      Z        X      Y      Z
   1   7    -0.00   0.00   0.00    -0.00   0.00  -0.00    -0.00  -0.00   0.00
   2   6     0.02   0.01   0.02     0.25   0.07   0.09     0.08   0.03   0.03
   3   6     0.01  -0.02  -0.28    -0.03  -0.05   0.04     0.11   0.18  -0.04
   4   6    -0.01   0.00  -0.01    -0.00  -0.00   0.00     0.01   0.00  -0.00
   5   6     0.00  -0.00   0.00     0.00   0.00  -0.00    -0.00  -0.00   0.00
   6   6    -0.00  -0.00   0.00     0.00  -0.00   0.00     0.00   0.00  -0.00
   7   6     0.00   0.00  -0.00    -0.00  -0.00  -0.00    -0.00  -0.00   0.00
   8   6    -0.00  -0.00  -0.00     0.00   0.00   0.00     0.00   0.00  -0.00
   9   6     0.00  -0.00   0.00    -0.00   0.00  -0.00    -0.00   0.00  -0.00
  10   6     0.00  -0.00   0.00     0.00  -0.00  -0.00    -0.00   0.00  -0.00
  11   6    -0.00   0.00  -0.00     0.00   0.00  -0.00    -0.00  -0.00   0.00
  12  16    -0.00   0.00  -0.00    -0.00  -0.00  -0.00    -0.00  -0.00   0.00
  13  16     0.00   0.00  -0.00    -0.00   0.00   0.00    -0.00  -0.00  -0.00
  14   1     0.00  -0.00  -0.00     0.00  -0.00  -0.00    -0.00   0.00   0.00
  15   1     0.00  -0.00  -0.00     0.02   0.00  -0.00     0.01   0.00   0.00
  16   1     0.00  -0.00   0.01     0.00   0.01   0.01    -0.00   0.00  -0.00
  17   1    -0.04  -0.06  -0.11    -0.10  -0.19  -0.36    -0.03  -0.06  -0.11
  18   1    -0.02   0.00   0.00    -0.81  -0.06   0.04    -0.24  -0.02   0.01
  19   1    -0.20  -0.28   0.29     0.11   0.16  -0.20    -0.33  -0.46   0.57
  20   1     0.18   0.35   0.74     0.01   0.02   0.06    -0.08  -0.17  -0.44
  21   1     0.00  -0.00  -0.00    -0.00  -0.00   0.00     0.01   0.01  -0.00
  22   1    -0.00   0.00  -0.00    -0.00   0.00  -0.00     0.00  -0.00   0.00
  23   1     0.00  -0.00  -0.00     0.00  -0.00   0.00    -0.00  -0.00   0.00
  24   1    -0.00  -0.00  -0.00    -0.00  -0.00  -0.00     0.00  -0.00   0.00
  25   1    -0.00  -0.00   0.00    -0.00  -0.00  -0.00     0.00   0.00  -0.00
                     61                     62                     63
                        a                      a                      a 
 Frequencies --  2978.5014              3069.6296              3080.2959
 Red. masses --     1.5692                 1.8320                 1.8234
 Frc consts  --     0.0000                 0.0000                 0.0000
 IR Inten    --     8.0163                 6.4274                 9.0810
 Raman Activ --     0.0000                 0.0000                 0.0000
 Depolar     --     0.0000                 0.0000                 0.0000
 Atom AN      X      Y      Z        X      Y      Z        X      Y      Z
   1   7     0.00  -0.00  -0.00    -0.00   0.00  -0.00    -0.00   0.00  -0.00
   2   6    -0.05   0.09   0.20    -0.00  -0.00  -0.00    -0.00  -0.00   0.00
   3   6    -0.00   0.01   0.03     0.00   0.00  -0.00    -0.00  -0.00   0.00
   4   6     0.00  -0.00   0.00     0.00   0.00   0.00    -0.01  -0.00  -0.00
   5   6     0.00   0.00  -0.00     0.00   0.00  -0.00    -0.11  -0.21   0.09
   6   6     0.00  -0.00   0.00     0.01  -0.01   0.00    -0.06   0.07  -0.04
   7   6     0.00  -0.00   0.00     0.00   0.00  -0.00    -0.00   0.00  -0.00
   8   6    -0.00  -0.00   0.00    -0.00   0.00  -0.00    -0.00  -0.00  -0.00
   9   6    -0.00  -0.00  -0.00    -0.00   0.05  -0.03     0.00  -0.02   0.01
  10   6     0.00  -0.00   0.00     0.24  -0.08   0.07     0.02  -0.01   0.00
  11   6     0.00   0.00  -0.00    -0.01  -0.01   0.00    -0.00  -0.00   0.00
  12  16     0.00   0.00  -0.00    -0.00  -0.00  -0.00    -0.00   0.00  -0.00
  13  16    -0.00   0.00  -0.00    -0.00   0.00  -0.00     0.00   0.00  -0.00
  14   1    -0.00   0.00   0.00     0.00  -0.00  -0.00     0.00  -0.00  -0.00
  15   1    -0.01  -0.00   0.00     0.00   0.00  -0.00     0.00   0.00  -0.00
  16   1     0.01   0.01   0.02     0.00   0.00   0.00     0.00   0.00   0.00
  17   1    -0.27  -0.37  -0.71     0.00   0.00   0.00    -0.00   0.00   0.00
  18   1     0.46   0.05   0.01     0.00   0.00  -0.00     0.00   0.00  -0.00
  19   1     0.02   0.03  -0.03    -0.00  -0.00   0.00     0.01   0.01  -0.01
  20   1    -0.02  -0.04  -0.08    -0.00  -0.00  -0.00     0.00   0.00   0.01
  21   1    -0.00   0.00   0.00    -0.01  -0.02   0.01     0.37   0.72  -0.33
  22   1    -0.00   0.00  -0.00    -0.02   0.02  -0.02     0.24  -0.24   0.15
  23   1    -0.00   0.00  -0.00     0.00  -0.20   0.11    -0.00   0.07  -0.04
  24   1    -0.00   0.00  -0.00    -0.85   0.29  -0.23    -0.05   0.02  -0.01
  25   1    -0.00  -0.00  -0.00     0.06   0.06  -0.02     0.01   0.01  -0.00
                     64                     65                     66
                        a                      a                      a 
 Frequencies --  3090.4450              3096.1643              3130.4369
 Red. masses --     1.8917                 1.8830                 1.8840
 Frc consts  --     0.0000                 0.0000                 0.0000
 IR Inten    --     1.4935                 6.6732                 0.8297
 Raman Activ --     0.0000                 0.0000                 0.0000
 Depolar     --     0.0000                 0.0000                 0.0000
 Atom AN      X      Y      Z        X      Y      Z        X      Y      Z
   1   7    -0.00   0.00  -0.00     0.00  -0.00   0.00     0.00   0.00   0.00
   2   6    -0.00  -0.00  -0.00     0.00   0.00   0.00    -0.00   0.00   0.00
   3   6    -0.00  -0.00   0.00    -0.00   0.00  -0.00    -0.00  -0.00   0.00
   4   6    -0.00   0.00  -0.00     0.00  -0.00   0.00     0.00   0.00  -0.00
   5   6    -0.04  -0.07   0.03     0.04   0.07  -0.03    -0.00  -0.00   0.00
   6   6     0.08  -0.08   0.05    -0.15   0.15  -0.09    -0.00   0.00  -0.00
   7   6     0.00   0.00  -0.00    -0.01  -0.00   0.00     0.00  -0.00   0.00
   8   6     0.01   0.00  -0.00     0.00   0.00  -0.00     0.00   0.00  -0.00
   9   6    -0.00   0.21  -0.11    -0.00   0.12  -0.06     0.00   0.01  -0.00
  10   6    -0.06   0.02  -0.02    -0.03   0.01  -0.01    -0.03   0.01  -0.01
  11   6     0.01   0.01  -0.00     0.00   0.00  -0.00    -0.19  -0.19   0.08
  12  16     0.00  -0.00   0.00     0.00  -0.00   0.00     0.00  -0.00   0.00
  13  16    -0.00   0.00  -0.00     0.00  -0.00   0.00    -0.00  -0.00   0.00
  14   1     0.00  -0.00  -0.00    -0.00   0.00   0.00     0.00   0.00   0.00
  15   1     0.00   0.00  -0.00    -0.00  -0.00   0.00    -0.00  -0.00   0.00
  16   1     0.00   0.00   0.00    -0.00  -0.00  -0.00    -0.00  -0.00  -0.00
  17   1     0.00   0.00   0.00    -0.00  -0.00  -0.00    -0.00  -0.00  -0.00
  18   1     0.00   0.00   0.00    -0.00  -0.00  -0.00     0.00   0.00  -0.00
  19   1     0.00   0.00  -0.00    -0.00  -0.00   0.00     0.00   0.00  -0.00
  20   1     0.00   0.00   0.00     0.00   0.00   0.00     0.00   0.00   0.00
  21   1     0.11   0.22  -0.10    -0.12  -0.23   0.11    -0.00   0.00  -0.00
  22   1    -0.27   0.27  -0.17     0.51  -0.50   0.31     0.00  -0.00   0.00
  23   1     0.01  -0.71   0.37     0.01  -0.42   0.22    -0.00  -0.03   0.01
  24   1     0.18  -0.06   0.05     0.08  -0.03   0.02     0.08  -0.03   0.02
  25   1    -0.03  -0.03   0.01    -0.02  -0.02   0.01     0.66   0.64  -0.27
                     67                     68                     69
                        a                      a                      a 
 Frequencies --  3188.6689              3207.2932              3225.4630
 Red. masses --     2.0341                 2.0380                 1.2999
 Frc consts  --     0.0000                 0.0000                 0.0000
 IR Inten    --   329.6524                77.8162                23.0589
 Raman Activ --     0.0000                 0.0000                 0.0000
 Depolar     --     0.0000                 0.0000                 0.0000
 Atom AN      X      Y      Z        X      Y      Z        X      Y      Z
   1   7     0.28  -0.01   0.05    -0.02   0.24   0.15     0.01  -0.06   0.14
   2   6     0.01   0.00  -0.00     0.00   0.00   0.01    -0.00  -0.00   0.01
   3   6    -0.00  -0.00  -0.00     0.00  -0.00  -0.00    -0.00  -0.00  -0.00
   4   6    -0.00  -0.00  -0.00     0.00   0.00   0.00     0.00   0.00   0.00
   5   6    -0.00  -0.00   0.00    -0.00  -0.00  -0.00     0.00  -0.00   0.00
   6   6    -0.00   0.00  -0.00    -0.00   0.00  -0.00     0.00  -0.00   0.00
   7   6     0.00  -0.00   0.00     0.00   0.00   0.00    -0.00   0.00  -0.00
   8   6    -0.00   0.00  -0.00    -0.00   0.00   0.00     0.00  -0.00   0.00
   9   6     0.00  -0.00   0.00    -0.00  -0.00  -0.00    -0.00  -0.00  -0.00
  10   6     0.00  -0.00   0.00    -0.00   0.00  -0.00     0.00  -0.00   0.00
  11   6     0.00   0.00  -0.00     0.00   0.00   0.00     0.00   0.00  -0.00
  12  16     0.00   0.00  -0.00     0.00  -0.00  -0.00    -0.00  -0.00  -0.00
  13  16    -0.00   0.00  -0.00    -0.00  -0.00  -0.00     0.00   0.00   0.00
  14   1    -0.10   0.27   0.03     0.31  -0.67  -0.06    -0.23   0.50   0.07
  15   1    -0.86  -0.10   0.06    -0.04   0.02   0.02     0.44   0.04  -0.01
  16   1    -0.08  -0.13  -0.26    -0.21  -0.24  -0.52    -0.23  -0.30  -0.58
  17   1    -0.00  -0.00  -0.00    -0.01  -0.01  -0.01    -0.01  -0.01  -0.01
  18   1    -0.02  -0.00   0.00     0.00  -0.00  -0.00     0.01   0.00  -0.00
  19   1     0.00  -0.00   0.00    -0.00   0.00  -0.00     0.00   0.00  -0.00
  20   1     0.00   0.00   0.00     0.00  -0.00  -0.00     0.00   0.00   0.00
  21   1     0.00   0.00  -0.00    -0.00  -0.00  -0.00     0.00  -0.00  -0.00
  22   1     0.00   0.00  -0.00     0.00  -0.00  -0.00    -0.00   0.00  -0.00
  23   1     0.00   0.00  -0.00    -0.00  -0.00  -0.00     0.00   0.00  -0.00
  24   1    -0.00   0.00  -0.00    -0.00  -0.00  -0.00    -0.00   0.00  -0.00
  25   1    -0.00  -0.00   0.00    -0.00  -0.00   0.00    -0.00  -0.00   0.00
