      -----------------------------------------------------------      
     |                   =====================                   |     
     |                           x T B                           |     
     |                   =====================                   |     
     |                         S. Grimme                         |     
     |          Mulliken Center for Theoretical Chemistry        |     
     |                    University of Bonn                     |     
      -----------------------------------------------------------      

   * xtb version 6.5.1 (fef0646) compiled by 'conda@b96dff2e9fd6' on 2023-01-04

   xtb is free software: you can redistribute it and/or modify it under
   the terms of the GNU Lesser General Public License as published by
   the Free Software Foundation, either version 3 of the License, or
   (at your option) any later version.
   
   xtb is distributed in the hope that it will be useful,
   but WITHOUT ANY WARRANTY; without even the implied warranty of
   MERCHANTABILITY or FITNESS FOR A PARTICULAR PURPOSE.  See the
   GNU Lesser General Public License for more details.
   
   Cite this work as:
   * C. Bannwarth, E. Caldeweyher, S. Ehlert, A. Hansen, P. Pracht,
     J. Seibert, S. Spicher, S. Grimme, WIREs Comput. Mol. Sci., 2020, 11,
     e01493. DOI: 10.1002/wcms.1493
   
   for GFN2-xTB:
   * C. Bannwarth, S. Ehlert and S. Grimme., J. Chem. Theory Comput., 2019,
     15, 1652-1671. DOI: 10.1021/acs.jctc.8b01176
   for GFN1-xTB:
   * S. Grimme, C. Bannwarth, P. Shushkov, J. Chem. Theory Comput., 2017,
     13, 1989-2009. DOI: 10.1021/acs.jctc.7b00118
   for GFN0-xTB:
   * P. Pracht, E. Caldeweyher, S. Ehlert, S. Grimme, ChemRxiv, 2019, preprint.
     DOI: 10.26434/chemrxiv.8326202.v1
   for GFN-FF:
   * S. Spicher and S. Grimme, Angew. Chem. Int. Ed., 2020, 59, 15665-15673.
     DOI: 10.1002/anie.202004239
   
   for ALPB and GBSA implicit solvation:
   * S. Ehlert, M. Stahn, S. Spicher, S. Grimme, J. Chem. Theory Comput.,
     2021, 17, 4250-4261. DOI: 10.1021/acs.jctc.1c00471
   
   for DFT-D4:
   * E. Caldeweyher, C. Bannwarth and S. Grimme, J. Chem. Phys., 2017,
     147, 034112. DOI: 10.1063/1.4993215
   * E. Caldeweyher, S. Ehlert, A. Hansen, H. Neugebauer, S. Spicher,
     C. Bannwarth and S. Grimme, J. Chem. Phys., 2019, 150, 154122.
     DOI: 10.1063/1.5090222
   * E. Caldeweyher, J.-M. Mewes, S. Ehlert and S. Grimme, Phys. Chem. Chem. Phys.
     2020, 22, 8499-8512. DOI: 10.1039/D0CP00502A
   
   for sTDA-xTB:
   * S. Grimme and C. Bannwarth, J. Chem. Phys., 2016, 145, 054103.
     DOI: 10.1063/1.4959605
   
   in the mass-spec context:
   * V. Asgeirsson, C. Bauer and S. Grimme, Chem. Sci., 2017, 8, 4879.
     DOI: 10.1039/c7sc00601b
   * J. Koopman and S. Grimme, ACS Omega 2019, 4, 12, 15120-15133.
     DOI: 10.1021/acsomega.9b02011
   
   for metadynamics refer to:
   * S. Grimme, J. Chem. Theory Comput., 2019, 155, 2847-2862
     DOI: 10.1021/acs.jctc.9b00143
   
   for SPH calculations refer to:
   * S. Spicher and S. Grimme, J. Chem. Theory Comput., 2021, 17, 1701-1714
     DOI: 10.1021/acs.jctc.0c01306
   
   with help from (in alphabetical order)
   P. Atkinson, C. Bannwarth, F. Bohle, G. Brandenburg, E. Caldeweyher
   M. Checinski, S. Dohm, S. Ehlert, S. Ehrlich, I. Gerasimov, C. Hölzer
   A. Katbashev, J. Koopman, C. Lavigne, S. Lehtola, F. März, M. Müller,
   F. Musil, H. Neugebauer, J. Pisarek, C. Plett, P. Pracht, F. Pultar,
   J. Seibert, P. Shushkov, S. Spicher, M. Stahn, M. Steiner, T. Strunk,
   J. Stückrath, T. Rose, and J. Unsleber
   
 * started run on 2023/01/24 at 15:52:37.683     

           -------------------------------------------------
          |                Calculation Setup                |
           -------------------------------------------------

          program call               : xtb init.xyz --opt -c 1 -u 0 -P 16 --alpb water
          hostname                   : gpg-woodward
          coordinate file            : init.xyz
          omp threads                :                    16

   ID    Z sym.   atoms
    1    7 N      1
    2    6 C      2-9
    3    1 H      10-25

           -------------------------------------------------
          |                 G F N 2 - x T B                 |
           -------------------------------------------------

        Reference                      10.1021/acs.jctc.8b01176
      * Hamiltonian:
        H0-scaling (s, p, d)           1.850000    2.230000    2.230000
        zeta-weighting                 0.500000
      * Dispersion:
        s8                             2.700000
        a1                             0.520000
        a2                             5.000000
        s9                             5.000000
      * Repulsion:
        kExp                           1.500000    1.000000
        rExp                           1.000000
      * Coulomb:
        alpha                          2.000000
        third order                    shell-resolved
        anisotropic                    true
        a3                             3.000000
        a5                             4.000000
        cn-shift                       1.200000
        cn-exp                         4.000000
        max-rad                        5.000000

      * Solvation model:               ALPB
        Solvent                        water
        Parameter file                 internal GFN2-xTB/ALPB
        Dielectric constant                8.0200E+01
        Reference state                gsolv [1 M gas/solution]
        Free energy shift                  1.0808E-03 Eh       6.7819E-01 kcal/mol
        Temperature                        2.9815E+02 K
        Density                            1.0000E+00 kg/L
        Solvent mass                       1.8000E+01 g/mol
        Interaction kernel             P16
        Born radius scaling (c1)           1.4744E+00
        Born radii integrator          GBOBC
        Born offset                        0.0000E+00 a0       0.0000E+00 AA
        H-bond correction              true
        Ion screening                  false
        Surface tension                    1.0000E-05 Eh       1.5569E+01 dyn/cm
        Grid points                               230 per atom

          ...................................................
          :                      SETUP                      :
          :.................................................:
          :  # basis functions                  52          :
          :  # atomic orbitals                  52          :
          :  # shells                           34          :
          :  # electrons                        52          :
          :  max. iterations                   250          :
          :  Hamiltonian                  GFN2-xTB          :
          :  restarted?                      false          :
          :  GBSA solvation                   true          :
          :  PC potential                    false          :
          :  electronic temp.          300.0000000     K    :
          :  accuracy                    1.0000000          :
          :  -> integral cutoff          0.2500000E+02      :
          :  -> integral neglect         0.1000000E-07      :
          :  -> SCF convergence          0.1000000E-05 Eh   :
          :  -> wf. convergence          0.1000000E-03 e    :
          :  Broyden damping             0.4000000          :
          ...................................................

 iter      E             dE          RMSdq      gap      omega  full diag
   1    -28.2147624 -0.282148E+02  0.338E+00    4.92       0.0  T
   2    -28.2881249 -0.733625E-01  0.185E+00    4.87       1.0  T
   3    -28.2902554 -0.213051E-02  0.957E-01    4.86       1.0  T
   4    -28.2872033  0.305207E-02  0.599E-01    4.85       1.0  T
   5    -28.2925932 -0.538988E-02  0.102E-01    4.84       1.0  T
   6    -28.2926124 -0.192306E-04  0.532E-02    4.84       1.0  T
   7    -28.2926181 -0.566376E-05  0.126E-02    4.84       1.6  T
   8    -28.2926184 -0.275379E-06  0.690E-03    4.84       2.9  T
   9    -28.2926185 -0.100059E-06  0.150E-03    4.84      13.3  T
  10    -28.2926185 -0.109616E-07  0.389E-04    4.84      51.5  T
  11    -28.2926185 -0.132996E-09  0.173E-04    4.84     115.5  T

   *** convergence criteria satisfied after 11 iterations ***

         #    Occupation            Energy/Eh            Energy/eV
      -------------------------------------------------------------
         1        2.0000           -0.6906372             -18.7932
       ...           ...                  ...                  ...
        20        2.0000           -0.4594710             -12.5028
        21        2.0000           -0.4558128             -12.4033
        22        2.0000           -0.4479535             -12.1894
        23        2.0000           -0.4236065             -11.5269
        24        2.0000           -0.4170746             -11.3492
        25        2.0000           -0.4116575             -11.2018
        26        2.0000           -0.3811326             -10.3711 (HOMO)
        27                         -0.2031442              -5.5278 (LUMO)
        28                         -0.0536590              -1.4601
        29                          0.0511085               1.3907
        30                          0.0660859               1.7983
        31                          0.0829651               2.2576
       ...                                ...                  ...
        52                          0.5871124              15.9761
      -------------------------------------------------------------
                  HL-Gap            0.1779883 Eh            4.8433 eV
             Fermi-level           -0.2921384 Eh           -7.9495 eV

 SCC (total)                   0 d,  0 h,  0 min,  0.049 sec
 SCC setup                      ...        0 min,  0.002 sec (  3.829%)
 Dispersion                     ...        0 min,  0.001 sec (  1.691%)
 classical contributions        ...        0 min,  0.000 sec (  0.882%)
 integral evaluation            ...        0 min,  0.003 sec (  5.582%)
 iterations                     ...        0 min,  0.038 sec ( 77.803%)
 molecular gradient             ...        0 min,  0.004 sec (  9.177%)
 printout                       ...        0 min,  0.000 sec (  0.308%)

         :::::::::::::::::::::::::::::::::::::::::::::::::::::
         ::                     SUMMARY                     ::
         :::::::::::::::::::::::::::::::::::::::::::::::::::::
         :: total energy             -27.880717964602 Eh    ::
         :: total w/o Gsasa/hb       -27.871233551780 Eh    ::
         :: gradient norm              0.032669689691 Eh/a0 ::
         :: HOMO-LUMO gap              4.843309290987 eV    ::
         ::.................................................::
         :: SCC energy               -28.292618492214 Eh    ::
         :: -> isotropic ES            0.122481976959 Eh    ::
         :: -> anisotropic ES         -0.013520681007 Eh    ::
         :: -> anisotropic XC          0.019069416115 Eh    ::
         :: -> dispersion             -0.017062797328 Eh    ::
         :: -> Gsolv                  -0.113574712697 Eh    ::
         ::    -> Gelec               -0.104090299875 Eh    ::
         ::    -> Gsasa               -0.001056785045 Eh    ::
         ::    -> Ghb                 -0.009508387475 Eh    ::
         ::    -> Gshift               0.001080759698 Eh    ::
         :: repulsion energy           0.411744213871 Eh    ::
         :: add. restraining           0.000000000000 Eh    ::
         :: total charge               1.000000000000 e     ::
         :::::::::::::::::::::::::::::::::::::::::::::::::::::

      ----------------------------------------------------------- 
     |                   =====================                   |
     |                        A N C O P T                        |
     |                   =====================                   |
     |               Approximate Normal Coordinate               |
     |                Rational Function Optimizer                |
      ----------------------------------------------------------- 

          ...................................................
          :                      SETUP                      :
          :.................................................:
          :   optimization level            normal          :
          :   max. optcycles                   200          :
          :   ANC micro-cycles                  20          :
          :   degrees of freedom                69          :
          :.................................................:
          :   RF solver                   davidson          :
          :   write xtbopt.log                true          :
          :   linear?                        false          :
          :   energy convergence         0.5000000E-05 Eh   :
          :   grad. convergence          0.1000000E-02 Eh/α :
          :   maximium RF displ.         1.0000000          :
          :   Hlow (freq-cutoff)         0.1000000E-01      :
          :   Hmax (freq-cutoff)         5.0000000          :
          :   S6 in model hess.         20.0000000          :
          ...................................................

generating ANC from model Hessian ...
Using Lindh-Hessian (1995)
 Shifting diagonal of input Hessian by    8.7557696360579581E-003
 Lowest  eigenvalues of input Hessian
    0.000000    0.000000    0.000000    0.000000    0.000000    0.000000
    0.010000    0.010448    0.012093    0.015049    0.018410    0.021815
    0.022776    0.025379    0.026917    0.027785    0.038436    0.046317
 Highest eigenvalues
    1.269102    1.385496    1.406898    1.432428    1.473844    1.812754


........................................................................
.............................. CYCLE    1 ..............................
........................................................................
   1    -28.2926185 -0.282926E+02  0.349E-05    4.84       0.0  T
   2    -28.2926185 -0.159872E-11  0.221E-05    4.84     906.6  T
   3    -28.2926185 -0.280664E-12  0.806E-06    4.84    2482.3  T
     SCC iter.                  ...        0 min,  0.011 sec
     gradient                   ...        0 min,  0.004 sec
 * total energy  :   -27.8807180 Eh     change       -0.6500045E-10 Eh
   gradient norm :     0.0326703 Eh/α   predicted     0.0000000E+00 (-100.00%)
   displ. norm   :     0.1930835 α      lambda       -0.2803050E-02
   maximum displ.:     0.0933954 α      in ANC's #4, #5, #16, ...

........................................................................
.............................. CYCLE    2 ..............................
........................................................................
   1    -28.3071480 -0.283071E+02  0.136E-01    5.01       0.0  T
   2    -28.3071629 -0.149498E-04  0.794E-02    5.01       1.0  T
   3    -28.3071526  0.103387E-04  0.300E-02    5.01       1.0  T
   4    -28.3071649 -0.123247E-04  0.807E-03    5.01       2.5  T
   5    -28.3071659 -0.961783E-06  0.216E-03    5.01       9.3  T
   6    -28.3071659 -0.257914E-08  0.633E-04    5.01      31.6  T
   7    -28.3071659 -0.102498E-08  0.183E-04    5.01     109.5  T
     SCC iter.                  ...        0 min,  0.022 sec
     gradient                   ...        0 min,  0.003 sec
 * total energy  :   -27.8824975 Eh     change       -0.1779564E-02 Eh
   gradient norm :     0.0090825 Eh/α   predicted    -0.1453897E-02 ( -18.30%)
   displ. norm   :     0.1649064 α      lambda       -0.5778974E-03
   maximum displ.:     0.1063606 α      in ANC's #4, #5, #3, ...

........................................................................
.............................. CYCLE    3 ..............................
........................................................................
   1    -28.3123546 -0.283124E+02  0.610E-02    5.06       0.0  T
   2    -28.3123586 -0.396189E-05  0.352E-02    5.05       1.0  T
   3    -28.3123570  0.151402E-05  0.129E-02    5.06       1.6  T
   4    -28.3123589 -0.181557E-05  0.419E-03    5.05       4.8  T
   5    -28.3123591 -0.266319E-06  0.103E-03    5.05      19.3  T
   6    -28.3123591 -0.552536E-09  0.278E-04    5.05      71.9  T
   7    -28.3123591 -0.160767E-09  0.822E-05    5.05     243.2  T
     SCC iter.                  ...        0 min,  0.012 sec
     gradient                   ...        0 min,  0.002 sec
 * total energy  :   -27.8828790 Eh     change       -0.3815039E-03 Eh
   gradient norm :     0.0043786 Eh/α   predicted    -0.2969920E-03 ( -22.15%)
   displ. norm   :     0.1717374 α      lambda       -0.2587649E-03
   maximum displ.:     0.1092191 α      in ANC's #4, #5, #3, ...

........................................................................
.............................. CYCLE    4 ..............................
........................................................................
   1    -28.3129415 -0.283129E+02  0.443E-02    5.05       0.0  T
   2    -28.3129424 -0.923348E-06  0.258E-02    5.05       1.0  T
   3    -28.3129417  0.717802E-06  0.766E-03    5.05       2.6  T
   4    -28.3129426 -0.864231E-06  0.204E-03    5.05       9.8  T
   5    -28.3129426 -0.555424E-07  0.649E-04    5.05      30.8  T
   6    -28.3129426 -0.181366E-09  0.124E-04    5.05     161.4  T
     SCC iter.                  ...        0 min,  0.010 sec
     gradient                   ...        0 min,  0.002 sec
 * total energy  :   -27.8830666 Eh     change       -0.1875502E-03 Eh
   gradient norm :     0.0044189 Eh/α   predicted    -0.1331989E-03 ( -28.98%)
   displ. norm   :     0.1947647 α      lambda       -0.1923293E-03
   maximum displ.:     0.1126836 α      in ANC's #4, #3, #5, ...

........................................................................
.............................. CYCLE    5 ..............................
........................................................................
   1    -28.3116994 -0.283117E+02  0.464E-02    5.03       0.0  T
   2    -28.3116996 -0.225285E-06  0.273E-02    5.03       1.0  T
   3    -28.3116990  0.605628E-06  0.640E-03    5.03       3.1  T
   4    -28.3116998 -0.739220E-06  0.103E-03    5.03      19.3  T
   5    -28.3116998 -0.358557E-08  0.484E-04    5.03      41.3  T
   6    -28.3116998 -0.272991E-09  0.599E-05    5.03     334.1  T
     SCC iter.                  ...        0 min,  0.010 sec
     gradient                   ...        0 min,  0.002 sec
 * total energy  :   -27.8831934 Eh     change       -0.1268327E-03 Eh
   gradient norm :     0.0040403 Eh/α   predicted    -0.9981297E-04 ( -21.30%)
   displ. norm   :     0.1158188 α      lambda       -0.8364821E-04
   maximum displ.:     0.0753078 α      in ANC's #3, #4, #6, ...

........................................................................
.............................. CYCLE    6 ..............................
........................................................................
   1    -28.3111312 -0.283111E+02  0.271E-02    5.02       0.0  T
   2    -28.3111314 -0.229077E-06  0.159E-02    5.02       1.3  T
   3    -28.3111314  0.297394E-09  0.173E-03    5.02      11.6  T
   4    -28.3111315 -0.171835E-07  0.852E-04    5.02      23.5  T
   5    -28.3111315 -0.103040E-07  0.337E-04    5.02      59.3  T
     SCC iter.                  ...        0 min,  0.009 sec
     gradient                   ...        0 min,  0.002 sec
 * total energy  :   -27.8832539 Eh     change       -0.6049327E-04 Eh
   gradient norm :     0.0029141 Eh/α   predicted    -0.4238919E-04 ( -29.93%)
   displ. norm   :     0.0961310 α      lambda       -0.6495314E-04
   maximum displ.:     0.0707179 α      in ANC's #3, #6, #1, ...

........................................................................
.............................. CYCLE    7 ..............................
........................................................................
   1    -28.3112728 -0.283113E+02  0.222E-02    5.02       0.0  T
   2    -28.3112731 -0.367457E-06  0.130E-02    5.02       1.5  T
   3    -28.3112731  0.595544E-08  0.227E-03    5.02       8.8  T
   4    -28.3112732 -0.192006E-07  0.109E-03    5.02      18.4  T
   5    -28.3112732 -0.176323E-07  0.353E-04    5.02      56.7  T
   6    -28.3112732 -0.223523E-09  0.118E-04    5.02     169.9  T
     SCC iter.                  ...        0 min,  0.010 sec
     gradient                   ...        0 min,  0.002 sec
 * total energy  :   -27.8833008 Eh     change       -0.4687511E-04 Eh
   gradient norm :     0.0020793 Eh/α   predicted    -0.3278565E-04 ( -30.06%)
   displ. norm   :     0.1001676 α      lambda       -0.4808727E-04
   maximum displ.:     0.0740959 α      in ANC's #3, #6, #1, ...

........................................................................
.............................. CYCLE    8 ..............................
........................................................................
   1    -28.3114634 -0.283115E+02  0.212E-02    5.03       0.0  T
   2    -28.3114636 -0.156489E-06  0.125E-02    5.03       1.6  T
   3    -28.3114635  0.505691E-07  0.221E-03    5.03       9.1  T
   4    -28.3114636 -0.627914E-07  0.956E-04    5.03      20.9  T
   5    -28.3114636 -0.133617E-07  0.284E-04    5.03      70.4  T
     SCC iter.                  ...        0 min,  0.008 sec
     gradient                   ...        0 min,  0.002 sec
 * total energy  :   -27.8833374 Eh     change       -0.3660063E-04 Eh
   gradient norm :     0.0025318 Eh/α   predicted    -0.2428520E-04 ( -33.65%)
   displ. norm   :     0.1226654 α      lambda       -0.5010201E-04
   maximum displ.:     0.0877233 α      in ANC's #3, #6, #1, ...

........................................................................
.............................. CYCLE    9 ..............................
........................................................................
   1    -28.3116925 -0.283117E+02  0.260E-02    5.03       0.0  T
   2    -28.3116926 -0.645242E-07  0.154E-02    5.03       1.3  T
   3    -28.3116924  0.148552E-06  0.313E-03    5.03       6.4  T
   4    -28.3116926 -0.182626E-06  0.564E-04    5.03      35.5  T
   5    -28.3116926 -0.136599E-08  0.243E-04    5.03      82.2  T
     SCC iter.                  ...        0 min,  0.008 sec
     gradient                   ...        0 min,  0.002 sec
 * total energy  :   -27.8833737 Eh     change       -0.3630776E-04 Eh
   gradient norm :     0.0026892 Eh/α   predicted    -0.2542821E-04 ( -29.96%)
   displ. norm   :     0.0991315 α      lambda       -0.3232089E-04
   maximum displ.:     0.0693184 α      in ANC's #3, #1, #6, ...

........................................................................
.............................. CYCLE   10 ..............................
........................................................................
   1    -28.3119124 -0.283119E+02  0.210E-02    5.04       0.0  T
   2    -28.3119125 -0.609796E-07  0.124E-02    5.04       1.6  T
   3    -28.3119124  0.108787E-06  0.270E-03    5.04       7.4  T
   4    -28.3119125 -0.130609E-06  0.495E-04    5.04      40.4  T
   5    -28.3119125 -0.193113E-08  0.220E-04    5.04      90.8  T
     SCC iter.                  ...        0 min,  0.008 sec
     gradient                   ...        0 min,  0.002 sec
 * total energy  :   -27.8833949 Eh     change       -0.2123963E-04 Eh
   gradient norm :     0.0017370 Eh/α   predicted    -0.1632068E-04 ( -23.16%)
   displ. norm   :     0.0669707 α      lambda       -0.1197129E-04
   maximum displ.:     0.0440350 α      in ANC's #3, #7, #1, ...

........................................................................
.............................. CYCLE   11 ..............................
........................................................................
   1    -28.3121699 -0.283122E+02  0.145E-02    5.04       0.0  T
   2    -28.3121700 -0.133827E-06  0.856E-03    5.04       2.3  T
   3    -28.3121700  0.723591E-08  0.144E-03    5.04      13.9  T
   4    -28.3121700 -0.130851E-07  0.649E-04    5.04      30.8  T
   5    -28.3121700 -0.650441E-08  0.226E-04    5.04      88.6  T
     SCC iter.                  ...        0 min,  0.008 sec
     gradient                   ...        0 min,  0.002 sec
 * total energy  :   -27.8834038 Eh     change       -0.8827437E-05 Eh
   gradient norm :     0.0007023 Eh/α   predicted    -0.6000922E-05 ( -32.02%)
   displ. norm   :     0.0295072 α      lambda       -0.2511110E-05
   maximum displ.:     0.0174527 α      in ANC's #3, #4, #5, ...

........................................................................
.............................. CYCLE   12 ..............................
........................................................................
   1    -28.3117393 -0.283117E+02  0.784E-03    5.04       0.0  T
   2    -28.3117393 -0.148350E-07  0.458E-03    5.04       4.4  T
   3    -28.3117393  0.277210E-07  0.147E-03    5.04      13.6  T
   4    -28.3117393 -0.352802E-07  0.280E-04    5.04      71.4  T
   5    -28.3117393 -0.325933E-09  0.141E-04    5.04     142.1  T
     SCC iter.                  ...        0 min,  0.008 sec
     gradient                   ...        0 min,  0.002 sec
 * total energy  :   -27.8834046 Eh     change       -0.8341725E-06 Eh
   gradient norm :     0.0009287 Eh/α   predicted    -0.1256277E-05 (  50.60%)
   displ. norm   :     0.0260120 α      lambda       -0.2642458E-05
   maximum displ.:     0.0161900 α      in ANC's #3, #6, #2, ...

   *** GEOMETRY OPTIMIZATION CONVERGED AFTER 12 ITERATIONS ***

------------------------------------------------------------------------
 total energy gain   :        -0.0026866 Eh       -1.6859 kcal/mol
 total RMSD          :         0.2185276 a0        0.1156 Å
 total power (kW/mol):        -0.5878118 (step)  -32.8214 (real)
------------------------------------------------------------------------

 ANCopt (total)                0 d,  0 h,  0 min,  0.215 sec
 optimizer setup                ...        0 min,  0.000 sec (  0.062%)
 model hessian                  ...        0 min,  0.033 sec ( 15.314%)
 ANC generation                 ...        0 min,  0.005 sec (  2.237%)
 coordinate transformation      ...        0 min,  0.000 sec (  0.147%)
 single point calculation       ...        0 min,  0.172 sec ( 80.091%)
 optimization log               ...        0 min,  0.001 sec (  0.681%)
 hessian update                 ...        0 min,  0.000 sec (  0.229%)
 rational function              ...        0 min,  0.001 sec (  0.557%)

================
 final structure:
================
25
 xtb: 6.5.1 (fef0646)
N            2.91491100506961        0.42056870740868        1.01202681444618
C            2.53601873085723       -0.76084861334451        0.20142226296862
C            3.06620677120082       -0.59331053427660       -1.22347323246596
C            4.57461503597825       -0.59052585594271       -1.24904522987876
C            5.27628280505557        0.53762843229006       -1.25622455769421
C            6.77206361288276        0.60015713079804       -1.28493632627124
C            7.38329112007616       -0.74619870860949       -1.66500859669010
C            6.70722820861453       -1.86040516193194       -0.87253264306712
C            5.23214571866776       -1.94108736888640       -1.25765857347293
H            2.71204071135779        0.27333731069896        2.00693508809826
H            2.40926376873535        1.25337770146524        0.68757492564253
H            3.92379050472239        0.59007622251115        0.88685110390806
H            1.45209182308815       -0.86283198986178        0.18802740589099
H            2.96719260787021       -1.65402935896983        0.65267633706089
H            2.68408213935006        0.33252565717540       -1.65330637546729
H            2.70098680956310       -1.42000973067402       -1.83161996588170
H            4.77816856545004        1.49805901331233       -1.27517720298680
H            7.14329382935084        0.90517011884062       -0.30050101653911
H            7.09114024062626        1.36951757565508       -1.99259795086234
H            8.45832368120711       -0.73750177961928       -1.47443047151414
H            7.23795183383631       -0.92592525492008       -2.73283211215815
H            6.80672401556062       -1.65162361836215        0.19460284741184
H            7.19710223032733       -2.81566517530847       -1.07088162242324
H            4.70967342052074       -2.62516898752248       -0.58594402502610
H            5.14485081003108       -2.36064573192575       -2.26540688302822

 Bond Distances (Angstroems)
 ---------------------------
N1-C2=1.4820         N1-H10=1.0260        N1-H11=1.0269        N1-H12=1.0307        C2-N1=1.4820         C2-C3=1.5295         
C2-H13=1.0888        C2-H14=1.0896        C3-C2=1.5295         C3-C4=1.5086         C3-H15=1.0899        C3-H16=1.0893        
C4-C3=1.5086         C4-C5=1.3286         C4-C9=1.5021         C5-C4=1.3286         C5-C6=1.4974         C5-H17=1.0821        
C6-C5=1.4974         C6-C7=1.5267         C6-H18=1.0954        C6-H19=1.0929        C7-C6=1.5267         C7-C8=1.5253         
C7-H20=1.0918        C7-H21=1.0926        C8-C7=1.5253         C8-C9=1.5267         C8-H22=1.0919        C8-H23=1.0917        
C9-C4=1.5021         C9-C8=1.5267         C9-H24=1.0919        C9-H25=1.0951        H10-N1=1.0260        H11-N1=1.0269        
H12-N1=1.0307        H13-C2=1.0888        H14-C2=1.0896        H15-C3=1.0899        H16-C3=1.0893        H17-C5=1.0821        
H18-C6=1.0954        H19-C6=1.0929        H20-C7=1.0918        H21-C7=1.0926        H22-C8=1.0919        H23-C8=1.0917        
H24-C9=1.0919        H25-C9=1.0951        
 C  H  Rav=1.0910 sigma=0.0032  Rmin=1.0821  Rmax=1.0954    13
 C  C  Rav=1.4931 sigma=0.0633  Rmin=1.3286  Rmax=1.5295     8
 N  H  Rav=1.0278 sigma=0.0020  Rmin=1.0260  Rmax=1.0307     3
 N  C  Rav=1.4820 sigma=0.0000  Rmin=1.4820  Rmax=1.4820     1

 selected bond angles (degree)
 --------------------
H10-N1-C2=111.43               H11-N1-C2=110.35               H11-N1-H10=108.99              H12-N1-C2=108.36               
H12-N1-H10=109.57              H12-N1-H11=108.07              C3-C2-N1=109.49                H13-C2-N1=109.63               
H13-C2-C3=110.11               H14-C2-N1=109.01               H14-C2-C3=109.78               H14-C2-H13=108.80              
C4-C3-C2=111.26                H15-C3-C2=109.81               H15-C3-C4=110.02               H16-C3-C2=108.71               
H16-C3-C4=109.10               H16-C3-H15=107.87              C5-C4-C3=121.99                C9-C4-C3=115.86                
C9-C4-C5=122.16                C6-C5-C4=124.27                H17-C5-C4=120.71               H17-C5-C6=114.99               
C7-C6-C5=111.59                H18-C6-C5=109.45               H18-C6-C7=109.49               H19-C6-C5=109.48               
H19-C6-C7=110.04               H19-C6-H18=106.67              C8-C7-C6=109.72                H20-C7-C6=110.10               
H20-C7-C8=110.58               H21-C7-C6=109.58               H21-C7-C8=109.19               H21-C7-H20=107.63              
C9-C8-C7=109.62                H22-C8-C7=109.13               H22-C8-C9=110.16               H23-C8-C7=110.24               
H23-C8-C9=109.97               H23-C8-H22=107.70              C8-C9-C4=111.96                H24-C9-C4=110.51               
H24-C9-C8=109.89               H25-C9-C4=108.35               H25-C9-C8=109.23               H25-C9-H24=106.74              

 selected dihedral angles (degree)
 ---------------------------------
C3-C2-N1-H10=189.41           C3-C2-N1-H11= 68.18           C3-C2-N1-H12=310.03           H13-C2-N1-H10= 68.52          
H13-C2-N1-H11=307.28          H13-C2-N1-H12=189.14          H14-C2-N1-H10=309.52          H14-C2-N1-H11=188.29          
H14-C2-N1-H12= 70.14          C4-C3-C2-N1= 65.18            C4-C3-C2-H13=185.78           C4-C3-C2-H14=305.54           
H15-C3-C2-N1=303.14           H15-C3-C2-H13= 63.74          H15-C3-C2-H14=183.50          H16-C3-C2-N1=185.34           
H16-C3-C2-H13=305.94          H16-C3-C2-H14= 65.70          C5-C4-C3-C2=263.53            C5-C4-C3-H15= 25.45           
C5-C4-C3-H16=143.61           C9-C4-C3-C2= 83.18            C9-C4-C3-H15=205.11           C9-C4-C3-H16=323.26           
C6-C5-C4-C3=180.17            C6-C5-C4-C9=  0.54            H17-C5-C4-C3=358.06           H17-C5-C4-C9=178.43           
C7-C6-C5-C4= 14.71            C7-C6-C5-H17=196.70           H18-C6-C5-C4=253.36           H18-C6-C5-H17= 75.36          
H19-C6-C5-C4=136.77           H19-C6-C5-H17=318.77          C8-C7-C6-C5=313.94            C8-C7-C6-H18= 75.26           
C8-C7-C6-H19=192.20           H20-C7-C6-C5=192.01           H20-C7-C6-H18=313.33          H20-C7-C6-H19= 70.27          
H21-C7-C6-C5= 73.81           H21-C7-C6-H18=195.13          H21-C7-C6-H19=312.07          C9-C8-C7-C6= 63.85            
C9-C8-C7-H20=185.50           C9-C8-C7-H21=303.74           H22-C8-C7-C6=303.13           H22-C8-C7-H20= 64.77          
H22-C8-C7-H21=183.01          H23-C8-C7-C6=185.04           H23-C8-C7-H20=306.68          H23-C8-C7-H21= 64.93          
C8-C9-C4-C3=196.84            C8-C9-C4-C5= 16.49            H24-C9-C4-C3=319.70           H24-C9-C4-C5=139.35           
H25-C9-C4-C3= 76.31           H25-C9-C4-C5=255.96           C4-C9-C8-C7=312.07            C4-C9-C8-H22= 72.17           
C4-C9-C8-H23=190.72           H24-C9-C8-C7=188.87           H24-C9-C8-H22=308.97          H24-C9-C8-H23= 67.52          
H25-C9-C8-C7= 72.09           H25-C9-C8-H22=192.19          H25-C9-C8-H23=310.74          
           -------------------------------------------------
          |                Final Singlepoint                |
           -------------------------------------------------

          ...................................................
          :                      SETUP                      :
          :.................................................:
          :  # basis functions                  52          :
          :  # atomic orbitals                  52          :
          :  # shells                           34          :
          :  # electrons                        52          :
          :  max. iterations                   250          :
          :  Hamiltonian                  GFN2-xTB          :
          :  restarted?                      false          :
          :  GBSA solvation                   true          :
          :  PC potential                    false          :
          :  electronic temp.          300.0000000     K    :
          :  accuracy                    1.0000000          :
          :  -> integral cutoff          0.2500000E+02      :
          :  -> integral neglect         0.1000000E-07      :
          :  -> SCF convergence          0.1000000E-05 Eh   :
          :  -> wf. convergence          0.1000000E-03 e    :
          :  Broyden damping             0.4000000          :
          ...................................................

 iter      E             dE          RMSdq      gap      omega  full diag
   1    -28.3117393 -0.283117E+02  0.252E-05    5.04       0.0  T
   2    -28.3117393 -0.139266E-11  0.163E-05    5.04    1228.0  T
   3    -28.3117393 -0.348166E-12  0.834E-06    5.04    2396.8  T

   *** convergence criteria satisfied after 3 iterations ***

         #    Occupation            Energy/Eh            Energy/eV
      -------------------------------------------------------------
         1        2.0000           -0.6918281             -18.8256
       ...           ...                  ...                  ...
        20        2.0000           -0.4598191             -12.5123
        21        2.0000           -0.4555059             -12.3949
        22        2.0000           -0.4494878             -12.2312
        23        2.0000           -0.4260583             -11.5936
        24        2.0000           -0.4177900             -11.3686
        25        2.0000           -0.4105609             -11.1719
        26        2.0000           -0.3838675             -10.4456 (HOMO)
        27                         -0.1988313              -5.4105 (LUMO)
        28                         -0.0444407              -1.2093
        29                          0.0550995               1.4993
        30                          0.0684328               1.8622
        31                          0.0898040               2.4437
       ...                                ...                  ...
        52                          0.6366290              17.3236
      -------------------------------------------------------------
                  HL-Gap            0.1850362 Eh            5.0351 eV
             Fermi-level           -0.2913494 Eh           -7.9280 eV

 SCC (total)                   0 d,  0 h,  0 min,  0.009 sec
 SCC setup                      ...        0 min,  0.000 sec (  2.422%)
 Dispersion                     ...        0 min,  0.000 sec (  2.759%)
 classical contributions        ...        0 min,  0.000 sec (  0.358%)
 integral evaluation            ...        0 min,  0.001 sec (  8.097%)
 iterations                     ...        0 min,  0.005 sec ( 61.394%)
 molecular gradient             ...        0 min,  0.002 sec ( 21.937%)
 printout                       ...        0 min,  0.000 sec (  1.236%)

         :::::::::::::::::::::::::::::::::::::::::::::::::::::
         ::                     SUMMARY                     ::
         :::::::::::::::::::::::::::::::::::::::::::::::::::::
         :: total energy             -27.883404593126 Eh    ::
         :: total w/o Gsasa/hb       -27.873807363466 Eh    ::
         :: gradient norm              0.000928714973 Eh/a0 ::
         :: HOMO-LUMO gap              5.035091403885 eV    ::
         ::.................................................::
         :: SCC energy               -28.311739306568 Eh    ::
         :: -> isotropic ES            0.122469494804 Eh    ::
         :: -> anisotropic ES         -0.014745737210 Eh    ::
         :: -> anisotropic XC          0.018768238542 Eh    ::
         :: -> dispersion             -0.017236828161 Eh    ::
         :: -> Gsolv                  -0.113494963419 Eh    ::
         ::    -> Gelec               -0.103897733759 Eh    ::
         ::    -> Gsasa               -0.001067799384 Eh    ::
         ::    -> Ghb                 -0.009610189974 Eh    ::
         ::    -> Gshift               0.001080759698 Eh    ::
         :: repulsion energy           0.428180125514 Eh    ::
         :: add. restraining           0.000000000000 Eh    ::
         :: total charge               1.000000000000 e     ::
         :::::::::::::::::::::::::::::::::::::::::::::::::::::

           -------------------------------------------------
          |                Property Printout                |
           -------------------------------------------------

    * Orbital Energies and Occupations

         #    Occupation            Energy/Eh            Energy/eV
      -------------------------------------------------------------
         1        2.0000           -0.6918281             -18.8256
       ...           ...                  ...                  ...
        14        2.0000           -0.4998609             -13.6019
        15        2.0000           -0.4956141             -13.4863
        16        2.0000           -0.4917872             -13.3822
        17        2.0000           -0.4848116             -13.1924
        18        2.0000           -0.4768471             -12.9757
        19        2.0000           -0.4664861             -12.6937
        20        2.0000           -0.4598191             -12.5123
        21        2.0000           -0.4555059             -12.3949
        22        2.0000           -0.4494878             -12.2312
        23        2.0000           -0.4260583             -11.5936
        24        2.0000           -0.4177900             -11.3686
        25        2.0000           -0.4105609             -11.1719
        26        2.0000           -0.3838675             -10.4456 (HOMO)
        27                         -0.1988313              -5.4105 (LUMO)
        28                         -0.0444407              -1.2093
        29                          0.0550995               1.4993
        30                          0.0684328               1.8622
        31                          0.0898040               2.4437
        32                          0.0976615               2.6575
        33                          0.1065819               2.9002
        34                          0.1108104               3.0153
        35                          0.1189496               3.2368
        36                          0.1257570               3.4220
        37                          0.1403937               3.8203
       ...                                ...                  ...
        52                          0.6366290              17.3236
      -------------------------------------------------------------
                  HL-Gap            0.1850362 Eh            5.0351 eV
             Fermi-level           -0.2913494 Eh           -7.9280 eV

     #   Z          covCN         q      C6AA      α(0)
     1   7 N        3.485    -0.155    24.346     7.328
     2   6 C        3.733    -0.036    21.308     6.589
     3   6 C        3.809    -0.096    22.318     6.725
     4   6 C        2.945    -0.002    28.077     8.691
     5   6 C        2.898    -0.066    29.634     8.926
     6   6 C        3.808    -0.063    21.704     6.632
     7   6 C        3.807    -0.059    21.622     6.619
     8   6 C        3.806    -0.061    21.669     6.627
     9   6 C        3.811    -0.072    21.870     6.657
    10   1 H        0.859     0.317     0.665     1.278
    11   1 H        0.859     0.308     0.691     1.302
    12   1 H        0.859     0.292     0.738     1.346
    13   1 H        0.925     0.113     1.668     2.020
    14   1 H        0.925     0.107     1.725     2.054
    15   1 H        0.925     0.075     2.032     2.229
    16   1 H        0.925     0.076     2.023     2.224
    17   1 H        0.925     0.045     2.388     2.416
    18   1 H        0.924     0.046     2.371     2.408
    19   1 H        0.924     0.032     2.565     2.505
    20   1 H        0.924     0.017     2.784     2.609
    21   1 H        0.924     0.026     2.647     2.544
    22   1 H        0.924     0.042     2.423     2.434
    23   1 H        0.924     0.020     2.733     2.585
    24   1 H        0.924     0.054     2.269     2.356
    25   1 H        0.924     0.042     2.427     2.436

 Mol. C6AA /au·bohr⁶  :       4325.277014
 Mol. C8AA /au·bohr⁸  :      94979.217969
 Mol. α(0) /au        :         99.539629


Wiberg/Mayer (AO) data.
largest (>0.10) Wiberg bond orders for each atom

 ---------------------------------------------------------------------------
     #   Z sym  total        # sym  WBO       # sym  WBO       # sym  WBO
 ---------------------------------------------------------------------------
     1   7 N    3.657 --     2 C    0.966    11 H    0.891    12 H    0.887
                            10 H    0.887
     2   6 C    3.927 --     3 C    0.997     1 N    0.966    13 H    0.965
                            14 H    0.965
     3   6 C    3.989 --     4 C    1.006     2 C    0.997    15 H    0.968
                            16 H    0.962
     4   6 C    3.987 --     5 C    1.872     9 C    1.013     3 C    1.006
     5   6 C    3.987 --     4 C    1.872     6 C    1.024    17 H    0.963
     6   6 C    3.997 --     5 C    1.024     7 C    1.006    19 H    0.967
                            18 H    0.958
     7   6 C    3.998 --     8 C    1.009     6 C    1.006    21 H    0.979
                            20 H    0.979
     8   6 C    3.997 --     7 C    1.009     9 C    1.006    23 H    0.979
                            22 H    0.977
     9   6 C    3.997 --     4 C    1.013     8 C    1.006    24 H    0.963
                            25 H    0.957
    10   1 H    0.900 --     1 N    0.887
    11   1 H    0.905 --     1 N    0.891
    12   1 H    0.915 --     1 N    0.887
    13   1 H    0.987 --     2 C    0.965
    14   1 H    0.989 --     2 C    0.965
    15   1 H    0.994 --     3 C    0.968
    16   1 H    0.994 --     3 C    0.962
    17   1 H    0.998 --     5 C    0.963
    18   1 H    0.998 --     6 C    0.958
    19   1 H    0.999 --     6 C    0.967
    20   1 H    0.999 --     7 C    0.979
    21   1 H    0.999 --     7 C    0.979
    22   1 H    0.998 --     8 C    0.977
    23   1 H    0.999 --     8 C    0.979
    24   1 H    0.997 --     9 C    0.963
    25   1 H    0.998 --     9 C    0.957
 ---------------------------------------------------------------------------

Topologies differ in total number of bonds
Writing topology from bond orders to xtbtopo.mol

molecular dipole:
                 x           y           z       tot (Debye)
 q only:        5.264       0.531       1.751
   full:        5.498       0.572       1.703      14.701
molecular quadrupole (traceless):
                xx          xy          yy          xz          yz          zz
 q only:       24.013       5.226     -13.070      15.753       2.572     -10.944
  q+dip:       28.100       4.786     -14.901      14.112       2.663     -13.199
   full:       28.033       4.749     -15.309      13.995       2.932     -12.723

           -------------------------------------------------
          |                Geometry Summary                 |
           -------------------------------------------------

      molecular mass/u    :      126.2196424
   center of mass at/Å    :        4.8952765      -0.5333818      -0.7911342
  moments of inertia/u·Å² :        0.1717679E+03   0.5072296E+03   0.5704956E+03
rotational constants/cm⁻¹ :        0.9814192E-01   0.3323471E-01   0.2954910E-01

 * 22 selected distances

     #   Z          #   Z                                           value/Å
     1   7 N        2   6 C                                       1.4820210
     2   6 C        3   6 C                                       1.5295411 (max)
     4   6 C        5   6 C                                       1.3285788
     6   6 C        7   6 C                                       1.5266724
     7   6 C        8   6 C                                       1.5252985
     8   6 C        9   6 C                                       1.5266632
     1   7 N       10   1 H                                       1.0260001 (min)
     1   7 N       11   1 H                                       1.0268978
     1   7 N       12   1 H                                       1.0306502
     2   6 C       13   1 H                                       1.0887965
     2   6 C       14   1 H                                       1.0896390
     3   6 C       15   1 H                                       1.0899306
     3   6 C       16   1 H                                       1.0893392
     5   6 C       17   1 H                                       1.0820832
     6   6 C       18   1 H                                       1.0954259
     6   6 C       19   1 H                                       1.0929367
     7   6 C       20   1 H                                       1.0918291
     7   6 C       21   1 H                                       1.0925532
     8   6 C       22   1 H                                       1.0919100
     8   6 C       23   1 H                                       1.0917146
     9   6 C       24   1 H                                       1.0918542
     9   6 C       25   1 H                                       1.0950829

 * 4 distinct bonds (by element types)

   Z      Z             #   av. dist./Å        max./Å        min./Å
   1 H    6 C          13     1.0910073     1.0954259     1.0820832
   6 C    6 C           5     1.4873508     1.5295411     1.3285788
   1 H    7 N           3     1.0278494     1.0306502     1.0260001
   6 C    7 N           1     1.4820210     1.4820210     1.4820210


optimized geometry written to: xtbopt.xyz


           -------------------------------------------------
          | TOTAL ENERGY              -27.883404593126 Eh   |
          | GRADIENT NORM               0.000928714973 Eh/α |
          | HOMO-LUMO GAP               5.035091403885 eV   |
           -------------------------------------------------

------------------------------------------------------------------------
 * finished run on 2023/01/24 at 15:52:37.999     
------------------------------------------------------------------------
 total:
 * wall-time:     0 d,  0 h,  0 min,  0.317 sec
 *  cpu-time:     0 d,  0 h,  0 min, 33.219 sec
 * ratio c/w:   104.894 speedup
 SCF:
 * wall-time:     0 d,  0 h,  0 min,  0.049 sec
 *  cpu-time:     0 d,  0 h,  0 min,  6.744 sec
 * ratio c/w:   138.194 speedup
 ANC optimizer:
 * wall-time:     0 d,  0 h,  0 min,  0.225 sec
 *  cpu-time:     0 d,  0 h,  0 min, 20.878 sec
 * ratio c/w:    92.799 speedup

