28
 energy: -40.920041366192 gnorm: 0.000895411501 xtb: 6.5.1 (fef0646)
N            1.11131894484928        0.14455852838219        0.11401445849306
C            2.46790845561671       -0.25630572259310        0.48578754981843
C            2.94740496740821       -1.43453723818052       -0.36783233424165
C            2.18614447232857       -2.72152967693890       -0.04363707713342
C            2.67903397683628       -3.87393870638992       -0.91507991820839
C            4.18164418786990       -4.09136347721439       -0.70911828109803
C            4.69195335896881       -5.25890372287947       -1.54177270222739
O            4.54823619766358       -5.13434165126118       -2.87089819119837
O            5.19642434204849       -6.23595565933322       -1.06822896634478
C            4.95061611912617       -2.80509871419525       -1.03223772097637
C            4.44649658694351       -1.65927127947476       -0.15976504703063
Cl           0.92495856189409        0.49563260575279       -2.78964322925480
H            0.84572691248332        1.00576628874515        0.57796564676689
H            0.43984110860323       -0.57475960985752        0.36122258198573
H            1.02055366084451        0.34637027997742       -1.42398270930476
H            2.54290974912048       -0.51865493164824        1.55068293193662
H            3.11964011359744        0.60104309552557        0.30187950470151
H            2.76902121403388       -1.17527928964470       -1.41508518494606
H            1.11871269576693       -2.58275180285616       -0.22223719612113
H            2.32821990254765       -2.97532827191318        1.00961308887387
H            2.46312065704869       -3.63525937800854       -1.96027339027483
H            2.13849233737469       -4.78833992380438       -0.66238029023810
H            4.36149699051132       -4.35671258963700        0.33714846897289
H            4.12556411250016       -4.30077358696706       -3.11926782685236
H            4.81750409528710       -2.53193564085954       -2.08280255726097
H            6.01706630984194       -2.96258586634567       -0.85993025145561
H            4.99309727795726       -0.74779674471254       -0.40755139441725
H            4.63809269092320       -1.89039731365875        0.89044003704203
