 Entering Gaussian System
 *********************************************
 Gaussian 98:
 frequency output generated by the xtb code
 *********************************************
                         Standard orientation:
 --------------------------------------------------------------------
  Center     Atomic     Atomic              Coordinates (Angstroms)
  Number     Number      Type              X           Y           Z
 --------------------------------------------------------------------
    1          7             0       -0.377673   -0.805587    0.469323
    2          6             0        0.290664   -0.529923   -0.832500
    3          6             0        1.801774   -0.640511   -0.731045
    4         16             0        2.530264    0.465748    0.478120
    5          6             0        2.205580    2.007958   -0.331621
    6         17             0       -3.853252   -0.430510    0.138544
    7          1             0       -0.043947   -0.151928    1.194201
    8          1             0       -0.168256   -1.758488    0.795424
    9          1             0       -1.404212   -0.709462    0.404396
   10          1             0        0.011518    0.471008   -1.181291
   11          1             0       -0.092172   -1.220052   -1.595398
   12          1             0        2.280812   -0.454555   -1.696157
   13          1             0        2.080570   -1.656112   -0.440174
   14          1             0        2.586966    1.993024   -1.350023
   15          1             0        2.694166    2.816777    0.207146
   16          1             0        1.138170    2.212834   -0.357648
 --------------------------------------------------------------------
     1 basis functions        1 primitive gaussians
     1 alpha electrons        1 beta electrons

 Harmonic frequencies (cm**-1), IR intensities (km*mol⁻¹),
 Raman scattering activities (A**4/amu), Raman depolarization ratios,
 reduced masses (AMU), force constants (mDyne/A) and normal coordinates:
                      1                      2                      3
                        a                      a                      a 
 Frequencies --  -132.8612               -81.8621                12.6232
 Red. masses --    23.4062                12.0514                18.5773
 Frc consts  --     0.0000                 0.0000                 0.0000
 IR Inten    --   158.2907                 2.9673                11.4434
 Raman Activ --     0.0000                 0.0000                 0.0000
 Depolar     --     0.0000                 0.0000                 0.0000
 Atom AN      X      Y      Z        X      Y      Z        X      Y      Z
   1   7     0.46  -0.12   0.09     0.01   0.11   0.03     0.16  -0.23  -0.13
   2   6     0.20  -0.10  -0.03     0.10  -0.02   0.05     0.12  -0.28  -0.15
   3   6     0.21   0.03  -0.11     0.08  -0.12   0.09     0.13  -0.07  -0.04
   4  16     0.03   0.04   0.02     0.41  -0.03  -0.17    -0.38   0.09   0.11
   5   6     0.07   0.03  -0.01    -0.50  -0.02   0.18    -0.39  -0.00   0.02
   6  17    -0.72   0.07   0.00    -0.14   0.07  -0.09     0.34   0.32   0.10
   7   1     0.20  -0.05   0.01    -0.02   0.04   0.00     0.21  -0.15  -0.02
   8   1     0.11  -0.04  -0.00    -0.01   0.03   0.03    -0.10  -0.11  -0.10
   9   1     0.15   0.00   0.09     0.01   0.03  -0.02     0.06   0.12   0.03
  10   1     0.02  -0.04  -0.01     0.05  -0.01  -0.01     0.01  -0.09  -0.07
  11   1     0.05  -0.04   0.01     0.02  -0.01   0.02     0.06  -0.11  -0.03
  12   1     0.06   0.05  -0.02     0.03  -0.09   0.01     0.06   0.00   0.00
  13   1     0.09   0.01  -0.05     0.00  -0.03   0.07     0.07  -0.01  -0.00
  14   1     0.09   0.02   0.02    -0.46  -0.03  -0.07    -0.07   0.02   0.02
  15   1    -0.03   0.01   0.04     0.05  -0.01  -0.11    -0.18   0.02   0.03
  16   1     0.02  -0.02  -0.07    -0.15   0.03   0.39    -0.12  -0.05  -0.04
                      4                      5                      6
                        a                      a                      a 
 Frequencies --   110.2632               117.5053               163.4355
 Red. masses --    10.0811                14.7461                10.5947
 Frc consts  --     0.0000                 0.0000                 0.0000
 IR Inten    --    17.4118                28.7200                15.7563
 Raman Activ --     0.0000                 0.0000                 0.0000
 Depolar     --     0.0000                 0.0000                 0.0000
 Atom AN      X      Y      Z        X      Y      Z        X      Y      Z
   1   7    -0.20  -0.43  -0.29    -0.02  -0.47   0.34    -0.30   0.04  -0.27
   2   6     0.08   0.08  -0.03    -0.18  -0.03   0.32     0.10  -0.05  -0.08
   3   6     0.06  -0.00   0.19    -0.16   0.08   0.00     0.09  -0.09   0.17
   4  16     0.07   0.23   0.13     0.24   0.10  -0.26     0.38   0.08  -0.03
   5   6     0.19   0.03  -0.18    -0.06   0.10   0.02    -0.10   0.01   0.05
   6  17    -0.15   0.04   0.13     0.08   0.15  -0.25    -0.17  -0.01   0.15
   7   1    -0.03  -0.25   0.03     0.05  -0.22   0.15    -0.09  -0.02  -0.04
   8   1    -0.15  -0.18  -0.21    -0.05  -0.17  -0.02    -0.16  -0.01  -0.07
   9   1    -0.05  -0.01  -0.09     0.00  -0.05   0.11    -0.08   0.07  -0.11
  10   1     0.05   0.07   0.09    -0.10   0.01   0.18     0.05  -0.02  -0.07
  11   1     0.06   0.11  -0.11    -0.07   0.04   0.05     0.08  -0.03  -0.04
  12   1     0.05  -0.04   0.06    -0.12   0.04  -0.03     0.05  -0.09   0.04
  13   1    -0.01   0.00   0.10    -0.00   0.02  -0.03     0.00  -0.01   0.11
  14   1    -0.14  -0.13  -0.12     0.08   0.12   0.04     0.27   0.18   0.12
  15   1     0.26  -0.01  -0.22    -0.14   0.04   0.10    -0.36   0.06   0.23
  16   1     0.08   0.15   0.14    -0.03  -0.06  -0.08    -0.07  -0.23  -0.28
                      7                      8                      9
                        a                      a                      a 
 Frequencies --   219.7790               255.1007               318.4668
 Red. masses --     6.8858                 7.1409                 9.4467
 Frc consts  --     0.0000                 0.0000                 0.0000
 IR Inten    --     5.9391                 3.9520                 5.7023
 Raman Activ --     0.0000                 0.0000                 0.0000
 Depolar     --     0.0000                 0.0000                 0.0000
 Atom AN      X      Y      Z        X      Y      Z        X      Y      Z
   1   7     0.14   0.22   0.06     0.09  -0.20  -0.06     0.20  -0.07  -0.03
   2   6     0.01   0.44   0.06     0.06   0.27   0.03     0.08   0.22  -0.01
   3   6    -0.04  -0.04   0.04     0.05   0.14  -0.02    -0.03  -0.43   0.18
   4  16     0.00  -0.13   0.08     0.05  -0.04   0.22    -0.26   0.03  -0.26
   5   6    -0.14  -0.23  -0.18    -0.27  -0.29  -0.23     0.02   0.20   0.12
   6  17     0.02  -0.15  -0.06     0.03   0.12   0.02     0.03   0.02   0.01
   7   1     0.33  -0.19   0.11    -0.29   0.11  -0.03    -0.06   0.04  -0.01
   8   1    -0.23  -0.07  -0.20     0.35   0.05   0.06     0.22   0.02  -0.01
   9   1     0.06   0.35   0.13    -0.00  -0.40  -0.10     0.04  -0.19   0.00
  10   1     0.08   0.18   0.12     0.01   0.10   0.10     0.14   0.14   0.11
  11   1    -0.08   0.23  -0.04     0.01   0.15  -0.05    -0.07   0.19  -0.07
  12   1     0.02  -0.04   0.02     0.02   0.09   0.01     0.09  -0.35   0.06
  13   1    -0.09  -0.03   0.02    -0.01   0.01  -0.08    -0.15  -0.10   0.27
  14   1     0.01  -0.08  -0.03    -0.02  -0.12  -0.04     0.07   0.15   0.06
  15   1    -0.12  -0.02  -0.06    -0.19   0.00  -0.10    -0.00  -0.02   0.15
  16   1    -0.05  -0.12  -0.11    -0.09  -0.18  -0.14     0.01   0.09  -0.00
                     10                     11                     12
                        a                      a                      a 
 Frequencies --   428.6094               715.6739               801.7008
 Red. masses --    10.3517                13.4720                16.6598
 Frc consts  --     0.0000                 0.0000                 0.0000
 IR Inten    --    13.6082                14.0720                11.7483
 Raman Activ --     0.0000                 0.0000                 0.0000
 Depolar     --     0.0000                 0.0000                 0.0000
 Atom AN      X      Y      Z        X      Y      Z        X      Y      Z
   1   7    -0.26   0.05   0.12    -0.04   0.01   0.01    -0.02   0.02   0.01
   2   6     0.36   0.04   0.35    -0.17  -0.13  -0.10    -0.03  -0.03  -0.02
   3   6     0.40  -0.10  -0.22    -0.08  -0.52  -0.35     0.00  -0.05  -0.07
   4  16    -0.25  -0.08  -0.16     0.21   0.24   0.36    -0.05   0.52  -0.18
   5   6    -0.02   0.04  -0.01    -0.02   0.15  -0.05     0.08  -0.68   0.28
   6  17    -0.03  -0.00   0.01     0.00  -0.00  -0.00    -0.00  -0.00  -0.00
   7   1    -0.21  -0.01   0.11     0.05   0.06  -0.07     0.01  -0.00  -0.00
   8   1    -0.18  -0.00   0.06     0.01   0.03   0.06     0.00   0.01   0.00
   9   1    -0.06   0.05  -0.18    -0.01   0.00   0.06    -0.01  -0.00   0.02
  10   1     0.20   0.07   0.18     0.14   0.08   0.14     0.02   0.01   0.02
  11   1     0.02   0.12   0.05    -0.27   0.17  -0.10    -0.05   0.03  -0.02
  12   1    -0.00   0.12  -0.09    -0.07   0.06  -0.07    -0.01  -0.01  -0.03
  13   1     0.22  -0.03  -0.19     0.06  -0.16  -0.25     0.04   0.01   0.00
  14   1     0.01   0.03   0.00    -0.01   0.01  -0.01     0.05  -0.10   0.08
  15   1     0.02  -0.03   0.04    -0.02   0.07  -0.04     0.08  -0.26   0.15
  16   1     0.00   0.06  -0.01    -0.01   0.03  -0.01     0.04  -0.06   0.08
                     13                     14                     15
                        a                      a                      a 
 Frequencies --   813.5594               868.8284               913.9757
 Red. masses --     6.0512                 2.9326                 6.3438
 Frc consts  --     0.0000                 0.0000                 0.0000
 IR Inten    --    13.0206                21.5796                21.7981
 Raman Activ --     0.0000                 0.0000                 0.0000
 Depolar     --     0.0000                 0.0000                 0.0000
 Atom AN      X      Y      Z        X      Y      Z        X      Y      Z
   1   7    -0.08  -0.04   0.21     0.08   0.16  -0.03    -0.39  -0.01   0.21
   2   6    -0.02   0.12  -0.08     0.02   0.16   0.09    -0.12   0.10  -0.23
   3   6     0.17   0.04  -0.51    -0.10  -0.26   0.04     0.40  -0.00   0.06
   4  16     0.02   0.06   0.15     0.01   0.07   0.05    -0.01  -0.05  -0.04
   5   6     0.04   0.02   0.08    -0.02   0.01  -0.07    -0.03   0.00  -0.07
   6  17    -0.00   0.00   0.00     0.00   0.01   0.00     0.00   0.00  -0.01
   7   1    -0.15  -0.09   0.18    -0.17  -0.24   0.33     0.19  -0.04  -0.04
   8   1    -0.06  -0.05  -0.04     0.15  -0.08  -0.44     0.24   0.01  -0.12
   9   1    -0.02  -0.02  -0.06     0.01  -0.13  -0.07    -0.16  -0.15   0.55
  10   1    -0.17  -0.05  -0.13    -0.01  -0.10  -0.36     0.02   0.02  -0.12
  11   1    -0.02  -0.13   0.13     0.03  -0.26   0.28     0.01   0.00  -0.05
  12   1     0.22  -0.44  -0.13    -0.10   0.15   0.01     0.18   0.06   0.06
  13   1    -0.21   0.05   0.28     0.00  -0.12  -0.22     0.12  -0.01  -0.03
  14   1    -0.01  -0.13   0.02     0.00   0.11  -0.02    -0.00   0.08  -0.02
  15   1    -0.04   0.13  -0.12     0.03  -0.08   0.08     0.03  -0.08   0.07
  16   1    -0.01  -0.09  -0.02     0.00   0.04   0.03     0.00   0.05   0.02
                     16                     17                     18
                        a                      a                      a 
 Frequencies --   948.3755               965.4391              1016.4677
 Red. masses --     3.7785                 3.3874                 7.4138
 Frc consts  --     0.0000                 0.0000                 0.0000
 IR Inten    --     3.2496                 2.7178                17.5249
 Raman Activ --     0.0000                 0.0000                 0.0000
 Depolar     --     0.0000                 0.0000                 0.0000
 Atom AN      X      Y      Z        X      Y      Z        X      Y      Z
   1   7    -0.05   0.09  -0.15     0.00  -0.04   0.01     0.07  -0.01   0.39
   2   6    -0.01  -0.05   0.16     0.01   0.05   0.00     0.02  -0.05  -0.54
   3   6    -0.01  -0.04   0.05    -0.00   0.01  -0.04    -0.03   0.02   0.22
   4  16    -0.02  -0.00  -0.15     0.15  -0.03   0.04    -0.00  -0.02  -0.12
   5   6     0.01   0.08   0.33    -0.38   0.03   0.01    -0.01   0.03   0.11
   6  17    -0.00   0.00  -0.00     0.00  -0.00   0.00     0.00  -0.00   0.00
   7   1     0.07  -0.05  -0.01     0.01   0.02  -0.03    -0.24  -0.07   0.27
   8   1     0.17   0.01  -0.20    -0.05  -0.00   0.06    -0.16  -0.06   0.05
   9   1    -0.04  -0.09   0.16     0.01   0.02  -0.02     0.04   0.01  -0.20
  10   1     0.15   0.00  -0.03    -0.08  -0.02  -0.01     0.13   0.06  -0.05
  11   1    -0.04   0.01   0.04     0.08  -0.04   0.01    -0.22   0.08  -0.11
  12   1    -0.19  -0.01  -0.08     0.01  -0.04  -0.01     0.17   0.22   0.18
  13   1     0.20   0.06   0.05    -0.10  -0.03  -0.02     0.07  -0.01  -0.07
  14   1     0.09  -0.53   0.12     0.28  -0.24   0.15     0.04  -0.17   0.04
  15   1    -0.05   0.32  -0.33     0.27  -0.26   0.08    -0.01   0.09  -0.10
  16   1    -0.01  -0.05  -0.20     0.03   0.61  -0.34    -0.00   0.01  -0.08
                     19                     20                     21
                        a                      a                      a 
 Frequencies --  1033.6142              1079.7848              1186.6594
 Red. masses --     5.1703                 7.8204                 4.3123
 Frc consts  --     0.0000                 0.0000                 0.0000
 IR Inten    --    14.3402                12.0079                 3.7099
 Raman Activ --     0.0000                 0.0000                 0.0000
 Depolar     --     0.0000                 0.0000                 0.0000
 Atom AN      X      Y      Z        X      Y      Z        X      Y      Z
   1   7    -0.10  -0.18   0.12     0.15  -0.01  -0.20     0.08  -0.14   0.09
   2   6     0.26   0.31  -0.08    -0.49   0.10   0.18    -0.21   0.29  -0.19
   3   6    -0.12  -0.24   0.03     0.43  -0.13   0.13     0.22  -0.13   0.13
   4  16    -0.04   0.09  -0.08    -0.03   0.01  -0.10    -0.01  -0.02   0.05
   5   6     0.08   0.03   0.14     0.02   0.02   0.08    -0.00  -0.01  -0.04
   6  17     0.00  -0.00  -0.00    -0.00  -0.00   0.00     0.00  -0.00   0.00
   7   1     0.09   0.09  -0.14    -0.03   0.05  -0.06    -0.05   0.07  -0.05
   8   1    -0.08   0.02   0.25    -0.07   0.01   0.04    -0.12  -0.02   0.15
   9   1    -0.02   0.07   0.08     0.05   0.06  -0.17     0.05   0.09  -0.11
  10   1    -0.23  -0.04  -0.11    -0.36  -0.03   0.08    -0.09   0.02  -0.19
  11   1     0.44  -0.11  -0.03    -0.15  -0.04   0.11     0.06  -0.04  -0.00
  12   1    -0.02   0.12   0.05     0.31   0.13   0.16    -0.53  -0.14  -0.29
  13   1    -0.25  -0.21  -0.29    -0.02  -0.12  -0.13     0.42   0.10   0.12
  14   1    -0.02  -0.13   0.02    -0.00  -0.08   0.02     0.00   0.03  -0.01
  15   1    -0.05   0.15  -0.12    -0.01   0.06  -0.05     0.00  -0.03   0.03
  16   1    -0.00  -0.12  -0.01    -0.00  -0.04  -0.03     0.00   0.01   0.02
                     22                     23                     24
                        a                      a                      a 
 Frequencies --  1222.5470              1273.8843              1317.5001
 Red. masses --     3.2637                 3.2807                 3.8131
 Frc consts  --     0.0000                 0.0000                 0.0000
 IR Inten    --    14.5639                10.9669                13.2081
 Raman Activ --     0.0000                 0.0000                 0.0000
 Depolar     --     0.0000                 0.0000                 0.0000
 Atom AN      X      Y      Z        X      Y      Z        X      Y      Z
   1   7     0.04   0.29   0.09    -0.02  -0.04  -0.03     0.04  -0.04   0.15
   2   6    -0.07  -0.23  -0.10     0.08  -0.09  -0.08    -0.42  -0.05   0.16
   3   6     0.14  -0.01   0.07     0.28   0.22   0.22     0.10   0.07  -0.04
   4  16    -0.01   0.01   0.01    -0.03   0.02  -0.01    -0.00   0.01  -0.00
   5   6     0.00   0.02  -0.00     0.01   0.01   0.01     0.01  -0.02   0.01
   6  17     0.00   0.00  -0.00     0.00  -0.00  -0.00     0.00  -0.00   0.00
   7   1    -0.06  -0.10   0.21     0.03  -0.01  -0.03     0.05   0.06  -0.05
   8   1     0.04  -0.01  -0.24    -0.01   0.00   0.04     0.03  -0.04  -0.07
   9   1    -0.00  -0.13  -0.04    -0.01  -0.02   0.02     0.04   0.03  -0.22
  10   1    -0.37  -0.02   0.38     0.13   0.00  -0.04     0.55   0.05  -0.30
  11   1     0.37   0.13  -0.39    -0.36  -0.00   0.16     0.41   0.04  -0.26
  12   1    -0.20  -0.12  -0.13    -0.33  -0.21  -0.21     0.07  -0.06  -0.00
  13   1    -0.09  -0.08  -0.10    -0.52  -0.22  -0.32    -0.17  -0.06  -0.10
  14   1    -0.01  -0.02  -0.00    -0.00  -0.02   0.00     0.01   0.02   0.00
  15   1     0.01  -0.01   0.01    -0.01   0.01  -0.00    -0.02   0.03  -0.03
  16   1    -0.00  -0.02   0.00    -0.00  -0.02   0.01     0.00   0.02   0.01
                     25                     26                     27
                        a                      a                      a 
 Frequencies --  1354.7806              1364.2981              1386.7820
 Red. masses --     2.4706                 2.6455                 1.5759
 Frc consts  --     0.0000                 0.0000                 0.0000
 IR Inten    --   160.8296                21.9946                78.5299
 Raman Activ --     0.0000                 0.0000                 0.0000
 Depolar     --     0.0000                 0.0000                 0.0000
 Atom AN      X      Y      Z        X      Y      Z        X      Y      Z
   1   7     0.23  -0.04  -0.20     0.09   0.01  -0.07    -0.10  -0.16   0.02
   2   6    -0.09  -0.03   0.03    -0.04  -0.00   0.04     0.01  -0.04  -0.02
   3   6     0.03   0.00  -0.02    -0.01   0.01  -0.02    -0.01   0.02   0.02
   4  16    -0.00  -0.00   0.00    -0.00   0.02  -0.01    -0.00   0.00  -0.00
   5   6     0.02  -0.09   0.04    -0.05   0.32  -0.16     0.00   0.06  -0.03
   6  17     0.00  -0.00  -0.01     0.00   0.00  -0.00    -0.00  -0.01   0.00
   7   1    -0.56   0.10   0.14    -0.10   0.01   0.04    -0.22   0.01   0.07
   8   1    -0.25  -0.04   0.06    -0.18  -0.01   0.07     0.57   0.09  -0.06
   9   1     0.01   0.15   0.61    -0.01  -0.08   0.17     0.06   0.72  -0.04
  10   1     0.11   0.02   0.00     0.07  -0.00  -0.07    -0.04  -0.01   0.04
  11   1     0.11  -0.01  -0.05     0.03   0.03  -0.04    -0.00   0.03  -0.04
  12   1    -0.02   0.02  -0.01     0.02   0.00   0.01     0.01  -0.05  -0.01
  13   1    -0.06  -0.02  -0.01    -0.00   0.00  -0.01     0.01  -0.01  -0.05
  14   1    -0.03   0.14  -0.01     0.11  -0.50   0.04    -0.00  -0.11  -0.00
  15   1    -0.04   0.09  -0.10     0.16  -0.32   0.36     0.02  -0.07   0.09
  16   1     0.03   0.12  -0.05    -0.09  -0.43   0.21    -0.01  -0.07   0.02
                     28                     29                     30
                        a                      a                      a 
 Frequencies --  1449.7799              1450.1684              1457.9851
 Red. masses --     1.8813                 1.8758                 1.7183
 Frc consts  --     0.0000                 0.0000                 0.0000
 IR Inten    --    25.3866                48.5685                24.8665
 Raman Activ --     0.0000                 0.0000                 0.0000
 Depolar     --     0.0000                 0.0000                 0.0000
 Atom AN      X      Y      Z        X      Y      Z        X      Y      Z
   1   7     0.00  -0.04   0.11    -0.04   0.05  -0.19     0.02  -0.03   0.08
   2   6     0.06  -0.04   0.03    -0.08  -0.00  -0.02     0.06  -0.00   0.04
   3   6     0.16  -0.12  -0.10     0.07  -0.04  -0.04    -0.09   0.06   0.06
   4  16    -0.01  -0.01  -0.01    -0.01  -0.01  -0.01    -0.02   0.00  -0.00
   5   6    -0.06   0.02   0.02    -0.11  -0.03  -0.06    -0.18  -0.03  -0.04
   6  17    -0.00  -0.00   0.00     0.00   0.00  -0.00    -0.00  -0.00   0.00
   7   1    -0.05   0.21  -0.16     0.10  -0.41   0.32    -0.07   0.21  -0.15
   8   1    -0.01  -0.09  -0.25     0.14   0.19   0.46    -0.06  -0.09  -0.22
   9   1     0.01   0.06  -0.03    -0.01  -0.01  -0.00     0.01   0.03   0.02
  10   1    -0.07  -0.06  -0.09     0.08   0.03   0.02    -0.09  -0.04  -0.05
  11   1    -0.08   0.11  -0.07     0.07  -0.04  -0.01    -0.06   0.07  -0.03
  12   1    -0.23   0.51  -0.02    -0.08   0.17  -0.01     0.12  -0.26   0.02
  13   1    -0.35   0.03   0.46    -0.12   0.01   0.15     0.17  -0.02  -0.24
  14   1     0.09   0.09   0.04     0.36   0.11   0.13     0.49   0.22   0.19
  15   1     0.18  -0.04  -0.11     0.09   0.07  -0.20     0.26   0.05  -0.33
  16   1    -0.03  -0.14  -0.02    -0.02  -0.04   0.27    -0.05  -0.17   0.29
                     31                     32                     33
                        a                      a                      a 
 Frequencies --  1461.8320              1486.1897              2900.6052
 Red. masses --     1.6211                 1.8055                 2.0144
 Frc consts  --     0.0000                 0.0000                 0.0000
 IR Inten    --     7.5704                17.2436              2053.8955
 Raman Activ --     0.0000                 0.0000                 0.0000
 Depolar     --     0.0000                 0.0000                 0.0000
 Atom AN      X      Y      Z        X      Y      Z        X      Y      Z
   1   7    -0.00   0.02  -0.06     0.01   0.01  -0.02    -0.27   0.03  -0.04
   2   6     0.02  -0.01   0.08     0.12  -0.06   0.21     0.00  -0.00   0.01
   3   6    -0.03   0.03   0.02    -0.01   0.00   0.01     0.01  -0.00  -0.01
   4  16    -0.00   0.00   0.02     0.00  -0.01  -0.00     0.00  -0.00  -0.00
   5   6    -0.05   0.07   0.19     0.05  -0.04  -0.06     0.00   0.00  -0.00
   6  17     0.00   0.00  -0.00     0.00   0.00  -0.00     0.01  -0.00   0.00
   7   1     0.03  -0.14   0.12    -0.00  -0.07   0.07    -0.00   0.03   0.03
   8   1     0.02   0.06   0.17    -0.00   0.03   0.09    -0.01  -0.02   0.00
   9   1    -0.00  -0.02   0.02     0.00  -0.01   0.03     0.95  -0.09   0.08
  10   1    -0.04  -0.08  -0.20    -0.25  -0.26  -0.51    -0.00   0.01  -0.00
  11   1    -0.05   0.17  -0.13    -0.18   0.48  -0.33    -0.00  -0.01  -0.01
  12   1     0.03  -0.10  -0.00     0.02  -0.02   0.01    -0.01  -0.01   0.03
  13   1     0.06  -0.00  -0.08     0.01  -0.00  -0.02    -0.00   0.01  -0.00
  14   1    -0.23   0.25  -0.08     0.01  -0.09   0.00    -0.00  -0.00   0.01
  15   1     0.46  -0.17  -0.14    -0.23   0.08   0.08    -0.00  -0.00  -0.00
  16   1    -0.06  -0.34  -0.51     0.04   0.22   0.15     0.00  -0.00  -0.00
                     34                     35                     36
                        a                      a                      a 
 Frequencies --  2949.7683              2955.4735              2981.5392
 Red. masses --     1.9293                 1.8857                 1.5267
 Frc consts  --     0.0000                 0.0000                 0.0000
 IR Inten    --     0.2584                 3.2995                 1.5509
 Raman Activ --     0.0000                 0.0000                 0.0000
 Depolar     --     0.0000                 0.0000                 0.0000
 Atom AN      X      Y      Z        X      Y      Z        X      Y      Z
   1   7    -0.00   0.00  -0.00     0.01  -0.00   0.00     0.00  -0.00  -0.00
   2   6    -0.05  -0.26  -0.12     0.01  -0.01   0.01    -0.08   0.09  -0.13
   3   6    -0.01   0.02  -0.00     0.09   0.13  -0.23     0.06  -0.11  -0.03
   4  16     0.00   0.00   0.00    -0.00  -0.00  -0.00    -0.00  -0.00  -0.00
   5   6    -0.00   0.00  -0.00     0.01   0.00   0.00     0.01   0.00  -0.00
   6  17     0.00  -0.00   0.00    -0.00  -0.00   0.00    -0.00   0.00   0.00
   7   1    -0.01  -0.01  -0.01    -0.00  -0.00  -0.00    -0.00  -0.01  -0.01
   8   1     0.00  -0.01   0.00    -0.00   0.00  -0.00    -0.00   0.02  -0.01
   9   1     0.01   0.00   0.00    -0.03   0.00  -0.00     0.00  -0.00  -0.00
  10   1    -0.13   0.40  -0.16    -0.02   0.09  -0.03     0.16  -0.62   0.19
  11   1     0.29   0.53   0.58    -0.02  -0.04  -0.04     0.14   0.29   0.28
  12   1     0.01   0.01  -0.02    -0.40  -0.16   0.79    -0.11  -0.07   0.24
  13   1     0.03  -0.09   0.03     0.09  -0.28   0.06    -0.12   0.46  -0.15
  14   1    -0.00   0.00   0.00     0.00  -0.00  -0.00    -0.01   0.00   0.03
  15   1    -0.00  -0.00  -0.00    -0.01  -0.01  -0.01    -0.01  -0.01  -0.01
  16   1     0.00   0.00  -0.00    -0.01   0.00  -0.00    -0.01   0.00  -0.00
                     37                     38                     39
                        a                      a                      a 
 Frequencies --  2989.4275              3016.3958              3024.1354
 Red. masses --     1.6444                 1.9729                 1.5890
 Frc consts  --     0.0000                 0.0000                 0.0000
 IR Inten    --     3.7925                 8.3082                 8.7703
 Raman Activ --     0.0000                 0.0000                 0.0000
 Depolar     --     0.0000                 0.0000                 0.0000
 Atom AN      X      Y      Z        X      Y      Z        X      Y      Z
   1   7    -0.00  -0.00  -0.00    -0.00  -0.00  -0.00    -0.00   0.00   0.00
   2   6    -0.06   0.10  -0.08    -0.00   0.00  -0.00     0.00  -0.01   0.00
   3   6    -0.08   0.18  -0.02     0.00  -0.00  -0.00     0.00  -0.01   0.00
   4  16     0.00   0.00   0.00    -0.00  -0.00   0.00     0.00  -0.00   0.00
   5   6     0.01   0.00   0.01    -0.24   0.03   0.17     0.15   0.01   0.17
   6  17     0.00  -0.00   0.00     0.00  -0.00   0.00     0.00   0.00  -0.00
   7   1    -0.00  -0.00  -0.00     0.00   0.00   0.00    -0.00  -0.00  -0.00
   8   1    -0.00   0.01  -0.00     0.00   0.00  -0.00     0.00  -0.00  -0.00
   9   1     0.02  -0.00  -0.00     0.00   0.00   0.00     0.01  -0.00   0.00
  10   1     0.13  -0.49   0.15     0.00  -0.01   0.00    -0.01   0.03  -0.01
  11   1     0.06   0.14   0.13     0.00   0.01   0.01    -0.00  -0.00  -0.00
  12   1     0.08   0.06  -0.17    -0.01  -0.01   0.02     0.00  -0.00  -0.00
  13   1     0.19  -0.71   0.22    -0.00   0.02  -0.01    -0.01   0.05  -0.02
  14   1     0.02  -0.00  -0.04     0.24  -0.02  -0.69     0.25  -0.02  -0.57
  15   1    -0.00  -0.01  -0.00    -0.01   0.04   0.05    -0.06  -0.13  -0.07
  16   1    -0.04   0.01   0.00     0.60  -0.10   0.03    -0.71   0.13   0.02
                     40                     41                     42
                        a                      a                      a 
 Frequencies --  3044.2706              3199.5142              3249.0964
 Red. masses --     1.6033                 1.8248                 1.7066
 Frc consts  --     0.0000                 0.0000                 0.0000
 IR Inten    --     0.4874                43.9757                40.1967
 Raman Activ --     0.0000                 0.0000                 0.0000
 Depolar     --     0.0000                 0.0000                 0.0000
 Atom AN      X      Y      Z        X      Y      Z        X      Y      Z
   1   7    -0.00   0.00  -0.00    -0.06  -0.19  -0.16    -0.05   0.21  -0.09
   2   6    -0.00   0.00  -0.00    -0.00  -0.01  -0.01    -0.00   0.01  -0.01
   3   6     0.00   0.00  -0.00    -0.00  -0.00  -0.00     0.00  -0.00  -0.00
   4  16    -0.00  -0.00  -0.00     0.00   0.00  -0.00     0.00   0.00   0.00
   5   6    -0.08  -0.19  -0.11     0.00  -0.00   0.00    -0.00   0.00   0.00
   6  17     0.00  -0.00   0.00     0.00  -0.00  -0.00     0.00   0.00  -0.00
   7   1     0.00   0.00   0.00     0.30   0.62   0.67     0.03   0.10   0.07
   8   1     0.00  -0.00   0.00    -0.03   0.09  -0.05     0.20  -0.90   0.29
   9   1     0.00  -0.00  -0.00    -0.06  -0.01  -0.02    -0.05   0.02  -0.01
  10   1     0.00  -0.01   0.00    -0.00   0.00   0.00     0.00  -0.02   0.01
  11   1     0.00   0.00   0.00     0.01   0.01   0.01     0.00   0.00   0.00
  12   1    -0.01  -0.00   0.02    -0.00  -0.00   0.00    -0.00  -0.00   0.00
  13   1    -0.00   0.00  -0.00    -0.00  -0.00  -0.00     0.00   0.00  -0.00
  14   1     0.02  -0.02  -0.09     0.00  -0.00  -0.00    -0.00   0.00   0.00
  15   1     0.44   0.70   0.48    -0.00  -0.00  -0.00    -0.00  -0.00  -0.00
  16   1    -0.17   0.01  -0.02    -0.00   0.00   0.00     0.00   0.00   0.00
