 Entering Gaussian System
 *********************************************
 Gaussian 98:
 frequency output generated by the xtb code
 *********************************************
                         Standard orientation:
 --------------------------------------------------------------------
  Center     Atomic     Atomic              Coordinates (Angstroms)
  Number     Number      Type              X           Y           Z
 --------------------------------------------------------------------
    1          7             0       -1.588418   -1.770341    0.443519
    2          6             0       -0.427413   -2.338729   -0.302164
    3          6             0        0.909921   -1.761075    0.153660
    4          6             0        1.054038   -0.267636   -0.136663
    5          6             0        2.417293    0.294348    0.269551
    6          6             0        2.545430    1.784127   -0.012192
    7         17             0       -1.882092    1.705830   -0.200846
    8          1             0       -1.677993   -0.753891    0.274977
    9          1             0       -1.474395   -1.904820    1.457219
   10          1             0       -2.477701   -2.208597    0.165123
   11          1             0       -0.558756   -2.160140   -1.375984
   12          1             0       -0.424299   -3.430038   -0.186243
   13          1             0        1.736327   -2.301530   -0.325232
   14          1             0        1.037084   -1.937023    1.228160
   15          1             0        0.265013    0.289779    0.380569
   16          1             0        0.882135   -0.081337   -1.203603
   17          1             0        3.208668   -0.259097   -0.252581
   18          1             0        2.588635    0.094989    1.335441
   19          1             0        2.411247    1.998296   -1.074162
   20          1             0        3.522143    2.175592    0.280724
   21          1             0        1.787894    2.354872    0.528280
 --------------------------------------------------------------------
     1 basis functions        1 primitive gaussians
     1 alpha electrons        1 beta electrons

 Harmonic frequencies (cm**-1), IR intensities (km*mol⁻¹),
 Raman scattering activities (A**4/amu), Raman depolarization ratios,
 reduced masses (AMU), force constants (mDyne/A) and normal coordinates:
                      1                      2                      3
                        a                      a                      a 
 Frequencies --  -128.6723                60.0131                89.3470
 Red. masses --    21.8628                15.3994                12.5862
 Frc consts  --     0.0000                 0.0000                 0.0000
 IR Inten    --   122.1976                19.4953                 3.7863
 Raman Activ --     0.0000                 0.0000                 0.0000
 Depolar     --     0.0000                 0.0000                 0.0000
 Atom AN      X      Y      Z        X      Y      Z        X      Y      Z
   1   7    -0.07   0.56  -0.12    -0.10  -0.06  -0.07    -0.09  -0.12  -0.05
   2   6    -0.13   0.22   0.01    -0.03  -0.04   0.02     0.02   0.12  -0.07
   3   6    -0.05   0.07  -0.01    -0.09   0.05   0.10    -0.04   0.13   0.11
   4   6     0.05   0.05   0.00    -0.02  -0.04  -0.31     0.17   0.06  -0.14
   5   6     0.07   0.00  -0.01    -0.23   0.15   0.12     0.09  -0.00   0.21
   6   6     0.09   0.01   0.03    -0.26   0.11  -0.12     0.45  -0.11  -0.20
   7  17     0.03  -0.67   0.08     0.51  -0.12   0.19    -0.43  -0.02   0.12
   8   1    -0.01   0.16  -0.10     0.06   0.01   0.08    -0.03  -0.02   0.07
   9   1    -0.02   0.21  -0.03    -0.10  -0.12  -0.02    -0.06  -0.12  -0.02
  10   1    -0.03   0.15  -0.00    -0.04   0.07  -0.12    -0.01  -0.02  -0.08
  11   1    -0.02   0.03  -0.00     0.01  -0.02   0.00     0.02   0.08  -0.01
  12   1    -0.09   0.07   0.04    -0.00  -0.01   0.02     0.03   0.03  -0.07
  13   1    -0.03  -0.00  -0.01    -0.00  -0.03   0.12     0.01  -0.01   0.11
  14   1    -0.01   0.01  -0.00    -0.09   0.10   0.05    -0.08   0.09   0.05
  15   1     0.02   0.02   0.01    -0.08   0.03  -0.24     0.01   0.06  -0.15
  16   1     0.01   0.02   0.00     0.13  -0.11  -0.13     0.16  -0.05  -0.07
  17   1     0.01   0.00  -0.01     0.01   0.03   0.16     0.06  -0.08   0.20
  18   1     0.03  -0.01  -0.01    -0.19   0.11   0.07    -0.10   0.09   0.10
  19   1     0.01   0.01   0.01     0.04  -0.03  -0.06     0.26  -0.12  -0.09
  20   1     0.03  -0.01  -0.00    -0.12   0.08   0.05     0.12  -0.05   0.02
  21   1     0.04   0.00   0.02    -0.15   0.04  -0.15     0.10   0.05  -0.19
                      4                      5                      6
                        a                      a                      a 
 Frequencies --   104.9729               130.3288               146.3572
 Red. masses --     9.4942                11.6486                 9.7002
 Frc consts  --     0.0000                 0.0000                 0.0000
 IR Inten    --     8.5423                 8.6664                 9.1450
 Raman Activ --     0.0000                 0.0000                 0.0000
 Depolar     --     0.0000                 0.0000                 0.0000
 Atom AN      X      Y      Z        X      Y      Z        X      Y      Z
   1   7     0.11   0.10   0.32     0.02  -0.19   0.36     0.24   0.31  -0.06
   2   6    -0.08  -0.01   0.09    -0.15   0.15  -0.17     0.05  -0.04  -0.06
   3   6     0.05  -0.04  -0.23    -0.08   0.09  -0.31     0.18  -0.27  -0.16
   4   6     0.16  -0.10  -0.49    -0.17   0.19   0.15     0.06  -0.20   0.15
   5   6    -0.00  -0.06   0.02    -0.15   0.08   0.22    -0.08  -0.00   0.32
   6   6    -0.02   0.00   0.37     0.13   0.01  -0.05    -0.21  -0.10  -0.25
   7  17    -0.16   0.06  -0.11     0.25  -0.21  -0.15    -0.16   0.17   0.06
   8   1    -0.03   0.01  -0.00    -0.08  -0.06   0.09     0.08   0.08  -0.07
   9   1     0.13   0.13   0.09     0.14  -0.04   0.08     0.09   0.14  -0.01
  10   1     0.02  -0.03   0.21     0.00  -0.12   0.20     0.04   0.10   0.04
  11   1    -0.09  -0.03   0.03    -0.13   0.14  -0.02     0.02  -0.03  -0.02
  12   1    -0.02   0.00   0.05    -0.01   0.03  -0.15    -0.05  -0.01   0.01
  13   1    -0.02  -0.06  -0.07    -0.05   0.08  -0.19     0.02  -0.05  -0.13
  14   1     0.05   0.04  -0.06     0.05  -0.07  -0.11     0.11  -0.15  -0.06
  15   1    -0.01   0.00  -0.26    -0.05   0.00   0.10    -0.01  -0.11   0.06
  16   1     0.17  -0.09  -0.17    -0.07   0.14   0.06     0.03  -0.01   0.05
  17   1     0.06   0.03   0.05    -0.05  -0.04   0.12     0.03  -0.03   0.21
  18   1    -0.09  -0.07   0.01    -0.09   0.07   0.08    -0.10   0.12   0.12
  19   1     0.06   0.06   0.11     0.11  -0.05  -0.04     0.06  -0.16  -0.11
  20   1    -0.03  -0.00   0.19     0.04  -0.02   0.02    -0.12   0.06   0.00
  21   1    -0.05  -0.04   0.09     0.03   0.06  -0.10    -0.16  -0.00  -0.23
                      7                      8                      9
                        a                      a                      a 
 Frequencies --   209.2354               246.7941               265.6714
 Red. masses --     7.2398                 2.0398                 3.1414
 Frc consts  --     0.0000                 0.0000                 0.0000
 IR Inten    --     2.1853                 0.1730                 2.1984
 Raman Activ --     0.0000                 0.0000                 0.0000
 Depolar     --     0.0000                 0.0000                 0.0000
 Atom AN      X      Y      Z        X      Y      Z        X      Y      Z
   1   7     0.03   0.04  -0.22     0.06   0.01  -0.03    -0.08  -0.10  -0.11
   2   6     0.11  -0.34   0.22     0.02  -0.00  -0.06     0.01   0.10  -0.14
   3   6     0.02   0.12  -0.12    -0.00  -0.01  -0.00    -0.08   0.02   0.21
   4   6    -0.30   0.16  -0.08     0.01  -0.03  -0.08     0.09  -0.04   0.03
   5   6    -0.26   0.03   0.01    -0.11   0.04   0.23     0.09  -0.01  -0.03
   6   6     0.27  -0.02   0.02    -0.01  -0.03  -0.08    -0.11   0.00  -0.08
   7  17     0.04   0.03   0.11     0.01   0.02   0.02     0.08   0.03   0.09
   8   1    -0.04  -0.03  -0.25    -0.04  -0.01  -0.07    -0.35  -0.11  -0.35
   9   1     0.02   0.24  -0.03     0.07   0.08  -0.00     0.24   0.39  -0.00
  10   1     0.03  -0.10   0.04     0.02  -0.05   0.07     0.05  -0.40   0.32
  11   1     0.03  -0.32   0.02     0.01   0.01  -0.02     0.03   0.09  -0.03
  12   1     0.08  -0.07   0.28     0.00  -0.00  -0.02     0.01   0.02  -0.10
  13   1     0.02   0.09  -0.08     0.01  -0.01   0.03     0.01  -0.03   0.15
  14   1     0.08   0.05  -0.04    -0.03   0.01   0.01    -0.13   0.03   0.08
  15   1    -0.09   0.02   0.00    -0.05   0.00  -0.11     0.02   0.02  -0.03
  16   1    -0.10   0.07  -0.02     0.10  -0.05  -0.05     0.04  -0.05  -0.00
  17   1    -0.09  -0.05   0.04     0.00  -0.02   0.15     0.03   0.01  -0.02
  18   1    -0.12   0.01   0.01    -0.11   0.07   0.09     0.05   0.01  -0.01
  19   1     0.17   0.01  -0.00    -0.51  -0.02   0.04     0.04  -0.02  -0.04
  20   1     0.09  -0.10   0.07     0.19  -0.12  -0.52    -0.08   0.06   0.05
  21   1     0.09   0.07  -0.05     0.33   0.10   0.34    -0.11  -0.04  -0.09
                     10                     11                     12
                        a                      a                      a 
 Frequencies --   312.6256               399.2297               463.3888
 Red. masses --     8.8263                 8.8093                 7.9963
 Frc consts  --     0.0000                 0.0000                 0.0000
 IR Inten    --    10.6679                 0.5150                 7.9436
 Raman Activ --     0.0000                 0.0000                 0.0000
 Depolar     --     0.0000                 0.0000                 0.0000
 Atom AN      X      Y      Z        X      Y      Z        X      Y      Z
   1   7     0.46   0.14   0.07    -0.00   0.03   0.02    -0.23  -0.00  -0.02
   2   6     0.18   0.10  -0.22    -0.13  -0.09  -0.10     0.22   0.40   0.21
   3   6    -0.07   0.08   0.25    -0.02  -0.40   0.12     0.42  -0.07   0.05
   4   6    -0.32   0.01  -0.05    -0.04  -0.31   0.05    -0.13  -0.13  -0.08
   5   6    -0.28  -0.16  -0.12    -0.15   0.32  -0.13    -0.26  -0.06  -0.09
   6   6     0.01  -0.19   0.05     0.30   0.40   0.03    -0.01  -0.10   0.02
   7  17    -0.03  -0.00  -0.02    -0.00   0.01  -0.00     0.02   0.01  -0.00
   8   1     0.16   0.05   0.07     0.01   0.01  -0.01    -0.21  -0.01  -0.01
   9   1     0.19  -0.02   0.00     0.04   0.02   0.00    -0.17   0.01   0.01
  10   1     0.07   0.11   0.06    -0.02   0.03   0.05     0.05  -0.16  -0.12
  11   1     0.08   0.15  -0.05    -0.01   0.06  -0.02     0.11   0.26   0.08
  12   1     0.01   0.02  -0.17    -0.11  -0.04  -0.11     0.01   0.10  -0.09
  13   1     0.08   0.04   0.22    -0.01  -0.14   0.05     0.04  -0.00  -0.14
  14   1    -0.16   0.09   0.10    -0.05  -0.13   0.04     0.28  -0.05  -0.01
  15   1    -0.09   0.03  -0.04    -0.05  -0.12   0.00    -0.07  -0.10  -0.02
  16   1    -0.09  -0.06  -0.03    -0.05  -0.14   0.01    -0.06  -0.07  -0.03
  17   1    -0.12  -0.07  -0.06    -0.03   0.11  -0.03    -0.07  -0.03  -0.01
  18   1    -0.07  -0.09  -0.04    -0.03   0.10  -0.04    -0.10  -0.03  -0.02
  19   1     0.06  -0.01   0.02     0.16   0.19   0.02     0.02   0.01   0.01
  20   1     0.01  -0.11   0.07     0.13  -0.04   0.07     0.02  -0.10   0.03
  21   1     0.01  -0.03  -0.00     0.15   0.19   0.02     0.03   0.00   0.02
                     13                     14                     15
                        a                      a                      a 
 Frequencies --   762.6819               805.8332               835.8978
 Red. masses --     1.9995                 2.6785                 2.9569
 Frc consts  --     0.0000                 0.0000                 0.0000
 IR Inten    --    13.9183                19.4834                15.9491
 Raman Activ --     0.0000                 0.0000                 0.0000
 Depolar     --     0.0000                 0.0000                 0.0000
 Atom AN      X      Y      Z        X      Y      Z        X      Y      Z
   1   7    -0.04   0.03   0.05    -0.03   0.10   0.01    -0.10  -0.03   0.11
   2   6     0.03   0.05  -0.03     0.05   0.18  -0.13     0.01  -0.19   0.04
   3   6     0.09  -0.02  -0.11     0.09  -0.01  -0.15     0.17  -0.05  -0.12
   4   6     0.09  -0.07  -0.18     0.04  -0.11   0.07     0.00   0.07  -0.13
   5   6     0.01  -0.02  -0.11    -0.13   0.04   0.13    -0.04   0.04   0.19
   6   6    -0.01  -0.01   0.00    -0.03  -0.00   0.04    -0.01   0.00   0.06
   7  17     0.00   0.00  -0.00     0.01   0.00  -0.01    -0.00   0.00   0.01
   8   1    -0.09   0.01   0.06    -0.29   0.05   0.25     0.18  -0.03  -0.21
   9   1    -0.01  -0.04   0.01     0.11  -0.21  -0.04    -0.23   0.21   0.08
  10   1     0.02  -0.05  -0.01     0.08  -0.14  -0.01    -0.06   0.10  -0.03
  11   1    -0.03  -0.08  -0.02    -0.04  -0.32  -0.09    -0.06   0.23   0.06
  12   1     0.01   0.02   0.09     0.04   0.09   0.34    -0.03  -0.08  -0.27
  13   1     0.09  -0.18   0.27     0.09  -0.09   0.17     0.13  -0.10   0.21
  14   1    -0.21   0.24   0.04    -0.20   0.07   0.00    -0.10   0.23   0.02
  15   1     0.19  -0.19   0.39    -0.09  -0.12  -0.04    -0.02  -0.11   0.08
  16   1    -0.37   0.26   0.07     0.10   0.01   0.01    -0.02   0.21   0.00
  17   1     0.15  -0.06   0.27    -0.13   0.14  -0.24    -0.07   0.16  -0.21
  18   1    -0.30   0.14   0.05     0.22  -0.18  -0.04     0.16  -0.24  -0.03
  19   1    -0.02   0.11   0.03     0.05  -0.17  -0.03     0.02  -0.26  -0.04
  20   1    -0.01  -0.01   0.03     0.04  -0.07  -0.05     0.03   0.01  -0.10
  21   1    -0.00  -0.07   0.07     0.04   0.17  -0.10     0.03   0.18  -0.14
                     16                     17                     18
                        a                      a                      a 
 Frequencies --   900.7755               919.4812               932.3462
 Red. masses --     8.0772                 3.2475                 5.5045
 Frc consts  --     0.0000                 0.0000                 0.0000
 IR Inten    --    11.2811                10.5445                22.8795
 Raman Activ --     0.0000                 0.0000                 0.0000
 Depolar     --     0.0000                 0.0000                 0.0000
 Atom AN      X      Y      Z        X      Y      Z        X      Y      Z
   1   7    -0.43   0.12   0.12    -0.07  -0.01  -0.18     0.11   0.13   0.03
   2   6     0.06  -0.25  -0.30    -0.09  -0.04   0.04     0.03  -0.08   0.05
   3   6     0.43  -0.01   0.06     0.01  -0.03   0.23    -0.02  -0.21  -0.05
   4   6    -0.06   0.16   0.07    -0.04   0.05  -0.24    -0.36   0.10  -0.10
   5   6     0.02   0.01  -0.05     0.07  -0.01   0.06     0.24  -0.08   0.11
   6   6     0.03  -0.07  -0.03     0.03   0.06   0.13     0.23   0.19   0.01
   7  17    -0.00  -0.00  -0.00     0.00  -0.00  -0.00     0.01   0.00  -0.00
   8   1    -0.01   0.05   0.11    -0.03   0.03   0.17    -0.24   0.03   0.09
   9   1     0.13  -0.03  -0.00     0.36  -0.17  -0.11    -0.11  -0.06   0.01
  10   1    -0.24   0.16   0.24    -0.13   0.05   0.22     0.19  -0.19  -0.16
  11   1     0.05  -0.09  -0.09     0.25   0.01  -0.02     0.02   0.06   0.02
  12   1    -0.07  -0.06  -0.04    -0.15  -0.01  -0.01    -0.17  -0.03  -0.04
  13   1     0.25   0.12   0.11    -0.11  -0.01  -0.14     0.06  -0.02   0.06
  14   1     0.02   0.00   0.03     0.27   0.01   0.03    -0.06   0.01   0.00
  15   1    -0.09   0.04  -0.10     0.11   0.02   0.13    -0.16  -0.01  -0.08
  16   1     0.08  -0.04  -0.01    -0.24   0.05  -0.02    -0.04   0.02  -0.04
  17   1    -0.05  -0.12   0.03     0.10   0.14  -0.01    -0.04  -0.17   0.03
  18   1     0.00   0.10   0.01    -0.10  -0.22  -0.01     0.04  -0.05   0.03
  19   1    -0.03   0.10   0.02    -0.02  -0.29  -0.03    -0.13  -0.05   0.01
  20   1    -0.03   0.04   0.04     0.01   0.12  -0.13    -0.07   0.46  -0.09
  21   1    -0.04  -0.16   0.07    -0.00   0.15  -0.13    -0.13  -0.20   0.01
                     19                     20                     21
                        a                      a                      a 
 Frequencies --   989.2814               997.9014              1052.2758
 Red. masses --     4.9326                 4.5851                 8.3872
 Frc consts  --     0.0000                 0.0000                 0.0000
 IR Inten    --     3.1631                10.3424                11.8902
 Raman Activ --     0.0000                 0.0000                 0.0000
 Depolar     --     0.0000                 0.0000                 0.0000
 Atom AN      X      Y      Z        X      Y      Z        X      Y      Z
   1   7     0.15   0.08  -0.14     0.03  -0.22  -0.20     0.20  -0.17  -0.11
   2   6    -0.19  -0.19   0.19    -0.17   0.27   0.19    -0.47   0.16   0.02
   3   6     0.02  -0.14  -0.01     0.09   0.05  -0.08     0.35  -0.11   0.12
   4   6     0.13   0.28   0.00    -0.08  -0.13   0.01     0.03   0.24   0.02
   5   6    -0.07   0.11   0.01    -0.03  -0.03   0.11    -0.04   0.20  -0.13
   6   6    -0.13  -0.18  -0.08     0.13   0.06  -0.09     0.05  -0.19   0.11
   7  17     0.00   0.00  -0.00    -0.00  -0.00   0.00    -0.00  -0.00   0.00
   8   1    -0.20   0.03   0.13     0.26  -0.04  -0.07     0.10  -0.05  -0.10
   9   1     0.11  -0.16  -0.06     0.24  -0.01  -0.07    -0.02   0.02  -0.01
  10   1     0.12  -0.14  -0.04    -0.17   0.16   0.17     0.06  -0.03  -0.08
  11   1     0.14   0.15   0.06     0.04   0.00   0.03    -0.32  -0.11   0.00
  12   1    -0.34  -0.07  -0.13     0.09   0.08   0.08    -0.10   0.05   0.11
  13   1    -0.03  -0.12   0.04    -0.09  -0.23   0.05     0.16   0.03   0.09
  14   1     0.09   0.17   0.02     0.05   0.24   0.01    -0.07  -0.15   0.03
  15   1    -0.02   0.01  -0.02    -0.17  -0.23  -0.02     0.01   0.10  -0.03
  16   1     0.18   0.25   0.01     0.11   0.12   0.01    -0.07  -0.12  -0.02
  17   1    -0.08  -0.00  -0.05    -0.19  -0.18  -0.07     0.02   0.05   0.01
  18   1     0.14   0.16  -0.00     0.17   0.06   0.01    -0.14  -0.02  -0.03
  19   1     0.06   0.17   0.01    -0.06   0.14   0.02    -0.05  -0.19   0.01
  20   1     0.01  -0.27   0.12    -0.05   0.18   0.03    -0.01   0.06  -0.05
  21   1     0.05  -0.04   0.08    -0.06  -0.19   0.07    -0.04  -0.07  -0.03
                     22                     23                     24
                        a                      a                      a 
 Frequencies --  1093.3864              1113.6954              1136.1513
 Red. masses --     8.4420                 7.6123                 7.9577
 Frc consts  --     0.0000                 0.0000                 0.0000
 IR Inten    --     1.5890                 0.9416                 8.2216
 Raman Activ --     0.0000                 0.0000                 0.0000
 Depolar     --     0.0000                 0.0000                 0.0000
 Atom AN      X      Y      Z        X      Y      Z        X      Y      Z
   1   7     0.09  -0.02  -0.09    -0.04  -0.04   0.06     0.04   0.11   0.01
   2   6    -0.29  -0.06   0.05     0.13   0.09  -0.05    -0.09  -0.24  -0.04
   3   6     0.22   0.20  -0.02    -0.04  -0.31   0.08    -0.03   0.33   0.02
   4   6    -0.01  -0.13   0.09     0.29   0.40  -0.00     0.39  -0.20   0.14
   5   6     0.01  -0.51   0.06    -0.28  -0.28  -0.04    -0.39   0.09  -0.12
   6   6    -0.12   0.41  -0.10     0.02   0.22  -0.05     0.22  -0.02   0.07
   7  17     0.00   0.00  -0.00    -0.00  -0.00   0.00     0.00   0.00  -0.00
   8   1    -0.03  -0.00   0.01     0.06  -0.02  -0.03    -0.13   0.03   0.05
   9   1     0.03  -0.04  -0.03    -0.03   0.04   0.02    -0.03  -0.05  -0.00
  10   1     0.04  -0.05  -0.02    -0.02   0.03   0.00     0.07  -0.07  -0.04
  11   1    -0.14   0.03   0.03     0.06  -0.07  -0.03    -0.04   0.06   0.01
  12   1    -0.14  -0.02  -0.04     0.03   0.03   0.08    -0.01  -0.07  -0.13
  13   1     0.19   0.21   0.05    -0.12  -0.23  -0.00    -0.05   0.07  -0.06
  14   1     0.04   0.12   0.01    -0.07  -0.22   0.01     0.11   0.12  -0.00
  15   1     0.07   0.07   0.01     0.11   0.14   0.02     0.07  -0.14   0.08
  16   1     0.05  -0.07   0.01     0.13   0.19   0.01     0.07  -0.06   0.04
  17   1     0.04  -0.12   0.06    -0.18  -0.21  -0.03    -0.19  -0.09  -0.06
  18   1    -0.05  -0.15   0.02    -0.16  -0.21  -0.02    -0.12  -0.08  -0.05
  19   1     0.08   0.18  -0.03    -0.02   0.07  -0.01    -0.12  -0.13   0.01
  20   1     0.03  -0.06   0.01    -0.01   0.10  -0.02    -0.04   0.28  -0.06
  21   1     0.07   0.25  -0.03    -0.01   0.05  -0.02    -0.11  -0.18  -0.02
                     25                     26                     27
                        a                      a                      a 
 Frequencies --  1166.0265              1214.3076              1232.4891
 Red. masses --     6.9860                 4.4980                 2.7513
 Frc consts  --     0.0000                 0.0000                 0.0000
 IR Inten    --     5.1048                 6.2690                 9.7178
 Raman Activ --     0.0000                 0.0000                 0.0000
 Depolar     --     0.0000                 0.0000                 0.0000
 Atom AN      X      Y      Z        X      Y      Z        X      Y      Z
   1   7    -0.08   0.00  -0.17    -0.04   0.04  -0.14     0.00  -0.17   0.14
   2   6     0.15   0.00   0.37     0.07  -0.01   0.22    -0.03   0.17  -0.03
   3   6    -0.07  -0.09  -0.39    -0.05  -0.04  -0.03    -0.09  -0.03  -0.13
   4   6     0.00   0.03   0.29     0.09  -0.02  -0.20     0.04  -0.13   0.04
   5   6    -0.01  -0.00  -0.26    -0.13   0.07   0.30    -0.12   0.03   0.02
   6   6     0.01   0.00   0.16     0.09  -0.06  -0.24     0.09  -0.03  -0.05
   7  17    -0.00   0.00  -0.00     0.00   0.00  -0.00    -0.00  -0.00   0.00
   8   1     0.01   0.03   0.10    -0.01   0.03   0.08     0.15  -0.07  -0.13
   9   1     0.19  -0.06  -0.07     0.13  -0.07  -0.06    -0.08   0.10   0.06
  10   1    -0.09   0.04   0.13    -0.04  -0.01   0.08     0.00   0.03  -0.06
  11   1     0.07   0.20   0.13    -0.18   0.12   0.10     0.53  -0.09  -0.10
  12   1     0.03  -0.02  -0.09     0.11  -0.01  -0.06    -0.49   0.06   0.17
  13   1     0.13  -0.00   0.14     0.19   0.27   0.03     0.20   0.29   0.03
  14   1    -0.28   0.01  -0.06    -0.22  -0.32  -0.03    -0.06   0.06  -0.02
  15   1    -0.00   0.16  -0.10     0.15   0.05   0.09     0.11   0.10   0.02
  16   1     0.12  -0.14   0.02    -0.17  -0.02  -0.02     0.06   0.04   0.01
  17   1     0.09  -0.01   0.09    -0.04   0.19  -0.13     0.05   0.15  -0.02
  18   1    -0.20   0.03  -0.03     0.08  -0.22   0.01    -0.02  -0.05  -0.01
  19   1    -0.01  -0.19  -0.00    -0.03   0.25   0.01    -0.04   0.04   0.01
  20   1     0.01   0.05  -0.08    -0.04   0.03   0.11    -0.02   0.07   0.01
  21   1    -0.01   0.08  -0.07    -0.02  -0.22   0.12    -0.03  -0.10   0.02
                     28                     29                     30
                        a                      a                      a 
 Frequencies --  1267.7247              1290.6099              1297.3735
 Red. masses --     2.8471                 2.1075                 2.9111
 Frc consts  --     0.0000                 0.0000                 0.0000
 IR Inten    --     2.7403                 1.7359                 5.0721
 Raman Activ --     0.0000                 0.0000                 0.0000
 Depolar     --     0.0000                 0.0000                 0.0000
 Atom AN      X      Y      Z        X      Y      Z        X      Y      Z
   1   7    -0.01  -0.02  -0.04    -0.00  -0.04   0.01    -0.05   0.04  -0.02
   2   6     0.02   0.04   0.07     0.05  -0.02   0.02     0.02   0.06  -0.06
   3   6    -0.10  -0.05   0.12     0.06   0.11  -0.14    -0.03  -0.27  -0.01
   4   6     0.07  -0.10  -0.24     0.10   0.05  -0.07    -0.09  -0.09  -0.00
   5   6    -0.01  -0.03  -0.11     0.04   0.08   0.16    -0.22  -0.09   0.03
   6   6    -0.05   0.04   0.21    -0.08   0.02   0.04     0.10  -0.02   0.04
   7  17     0.00  -0.00   0.00    -0.00  -0.00   0.00    -0.00  -0.00  -0.00
   8   1     0.03   0.00   0.02     0.02  -0.01   0.01     0.05   0.02   0.03
   9   1     0.03   0.00  -0.01    -0.02   0.04   0.01     0.02  -0.01  -0.01
  10   1    -0.01   0.00   0.02    -0.01   0.01   0.00     0.04  -0.08  -0.00
  11   1    -0.06   0.02   0.03     0.10  -0.00  -0.01    -0.19  -0.03  -0.00
  12   1    -0.02   0.01   0.03    -0.21  -0.01  -0.01     0.19   0.02   0.00
  13   1     0.20   0.38  -0.02    -0.09  -0.18   0.02     0.05   0.02   0.01
  14   1    -0.08  -0.25  -0.00    -0.09  -0.00  -0.03     0.24   0.36   0.03
  15   1     0.02  -0.15   0.08     0.19   0.19   0.04     0.36   0.49   0.03
  16   1     0.07   0.31  -0.01    -0.41  -0.49  -0.04     0.03   0.02  -0.00
  17   1    -0.19  -0.32   0.01    -0.33  -0.36  -0.07     0.04   0.14  -0.03
  18   1     0.23   0.41   0.01     0.20   0.14   0.03     0.23   0.27   0.02
  19   1     0.02  -0.20   0.00     0.02  -0.04  -0.00    -0.05  -0.02   0.02
  20   1     0.03   0.02  -0.09     0.01  -0.06   0.02    -0.02   0.13  -0.02
  21   1    -0.00   0.15  -0.09     0.02   0.07  -0.00    -0.02  -0.03  -0.02
                     31                     32                     33
                        a                      a                      a 
 Frequencies --  1328.0306              1350.5969              1368.2560
 Red. masses --     3.6333                 4.3216                 2.7117
 Frc consts  --     0.0000                 0.0000                 0.0000
 IR Inten    --    15.4513                 3.9460               151.0325
 Raman Activ --     0.0000                 0.0000                 0.0000
 Depolar     --     0.0000                 0.0000                 0.0000
 Atom AN      X      Y      Z        X      Y      Z        X      Y      Z
   1   7    -0.04   0.16   0.12     0.02   0.03   0.03    -0.25   0.19   0.06
   2   6    -0.40  -0.04   0.02    -0.10  -0.09   0.03     0.14   0.01  -0.00
   3   6     0.03  -0.10  -0.06     0.23   0.30   0.00     0.01   0.09   0.02
   4   6     0.02   0.04  -0.02    -0.10  -0.01  -0.05    -0.03  -0.05   0.01
   5   6     0.05   0.05   0.02    -0.20  -0.26  -0.01     0.04   0.04  -0.01
   6   6    -0.03   0.01  -0.01     0.09  -0.02   0.05    -0.01  -0.01  -0.00
   7  17    -0.00   0.00   0.00    -0.00   0.00   0.00    -0.01  -0.00   0.00
   8   1     0.09   0.02  -0.14    -0.02  -0.00  -0.03     0.55   0.04  -0.21
   9   1     0.04  -0.16  -0.00    -0.02  -0.04   0.00     0.16  -0.30  -0.06
  10   1     0.13  -0.17  -0.09     0.02  -0.02  -0.00     0.22  -0.49   0.00
  11   1     0.51   0.01  -0.06     0.19   0.02  -0.01    -0.17  -0.05   0.01
  12   1     0.58  -0.01  -0.07    -0.01  -0.03  -0.04    -0.23  -0.00  -0.02
  13   1     0.12   0.09   0.05    -0.18  -0.30   0.01    -0.06  -0.07  -0.01
  14   1    -0.02  -0.01  -0.01    -0.25  -0.37  -0.03    -0.02  -0.04  -0.00
  15   1     0.01   0.01   0.00     0.04   0.07   0.02    -0.01  -0.01   0.01
  16   1    -0.05  -0.06  -0.01     0.04   0.06  -0.01     0.05   0.04   0.00
  17   1    -0.08  -0.10  -0.01     0.21   0.30   0.01    -0.02  -0.03   0.00
  18   1    -0.01  -0.04   0.00     0.22   0.32   0.02    -0.05  -0.04  -0.00
  19   1     0.01  -0.01  -0.00    -0.04   0.03   0.02     0.00  -0.00  -0.00
  20   1     0.00  -0.04   0.01    -0.02   0.15  -0.04     0.00  -0.01   0.00
  21   1     0.01   0.02   0.01    -0.01   0.02  -0.05     0.00   0.01  -0.00
                     34                     35                     36
                        a                      a                      a 
 Frequencies --  1389.5230              1405.5458              1440.5114
 Red. masses --     4.8808                 1.5975                 3.1924
 Frc consts  --     0.0000                 0.0000                 0.0000
 IR Inten    --     5.4696                66.3208                 1.0391
 Raman Activ --     0.0000                 0.0000                 0.0000
 Depolar     --     0.0000                 0.0000                 0.0000
 Atom AN      X      Y      Z        X      Y      Z        X      Y      Z
   1   7     0.03  -0.02  -0.03    -0.07  -0.06  -0.16    -0.01  -0.00   0.00
   2   6    -0.05  -0.05  -0.01    -0.08  -0.02  -0.04    -0.00  -0.00   0.00
   3   6     0.16   0.16   0.02    -0.00   0.01  -0.00     0.02   0.01   0.00
   4   6    -0.25  -0.34  -0.03     0.05   0.04   0.01    -0.01   0.01  -0.01
   5   6     0.15   0.29  -0.00    -0.01  -0.04  -0.00    -0.05  -0.06  -0.00
   6   6    -0.05  -0.02  -0.02     0.01  -0.01   0.00     0.06   0.43  -0.07
   7  17    -0.00  -0.00  -0.00    -0.00  -0.00  -0.01    -0.00  -0.00  -0.00
   8   1    -0.05   0.01   0.12     0.32   0.13   0.64     0.02   0.00   0.02
   9   1    -0.04   0.09   0.02    -0.11   0.51   0.06     0.02   0.02   0.00
  10   1    -0.01   0.01   0.01     0.12  -0.31   0.06     0.01  -0.01  -0.03
  11   1     0.05   0.04   0.00     0.09   0.02  -0.02     0.00  -0.01  -0.00
  12   1     0.01  -0.01   0.02     0.06  -0.00   0.01    -0.00  -0.00  -0.01
  13   1    -0.09  -0.15  -0.01     0.01   0.00   0.02    -0.01  -0.02   0.01
  14   1    -0.10  -0.15  -0.00     0.03  -0.02  -0.00    -0.01  -0.03  -0.00
  15   1     0.29   0.36   0.04    -0.08  -0.07  -0.04     0.00   0.02  -0.01
  16   1     0.26   0.32   0.02    -0.06  -0.00   0.01    -0.00   0.02  -0.00
  17   1    -0.16  -0.23   0.01     0.03   0.03  -0.00     0.06   0.04   0.04
  18   1    -0.14  -0.23  -0.03     0.00   0.01   0.00     0.07   0.03  -0.00
  19   1     0.04  -0.02  -0.01    -0.00   0.04   0.01    -0.10  -0.48  -0.10
  20   1     0.00  -0.05   0.01    -0.00   0.01  -0.01     0.16  -0.46   0.15
  21   1     0.02  -0.01   0.04    -0.00   0.01  -0.01    -0.22  -0.44   0.18
                     37                     38                     39
                        a                      a                      a 
 Frequencies --  1441.5681              1485.6918              1499.7666
 Red. masses --     1.9105                 1.8805                 1.9051
 Frc consts  --     0.0000                 0.0000                 0.0000
 IR Inten    --    86.4951                11.6783                12.8066
 Raman Activ --     0.0000                 0.0000                 0.0000
 Depolar     --     0.0000                 0.0000                 0.0000
 Atom AN      X      Y      Z        X      Y      Z        X      Y      Z
   1   7     0.19   0.08  -0.16     0.02   0.01  -0.01    -0.02  -0.01   0.00
   2   6    -0.01   0.02  -0.03     0.03   0.19   0.20     0.01  -0.01   0.00
   3   6     0.01  -0.04   0.00     0.02  -0.01   0.02     0.10  -0.09   0.06
   4   6    -0.00   0.01  -0.00     0.00  -0.03   0.00    -0.16   0.15  -0.09
   5   6    -0.00  -0.00   0.00    -0.00   0.01  -0.01     0.02   0.01   0.00
   6   6     0.00   0.02  -0.00    -0.00  -0.00   0.00     0.04  -0.00   0.03
   7  17     0.00  -0.00  -0.00     0.00  -0.00  -0.00     0.00  -0.00  -0.00
   8   1     0.04   0.01  -0.03    -0.04   0.01   0.05     0.01   0.01   0.05
   9   1    -0.61  -0.28   0.02    -0.06   0.02   0.01     0.04   0.05   0.00
  10   1    -0.12  -0.15   0.65    -0.02   0.01   0.05     0.01  -0.00  -0.04
  11   1     0.05   0.04  -0.00     0.02  -0.65  -0.10     0.01   0.02   0.01
  12   1     0.00   0.02   0.07    -0.03  -0.07  -0.67     0.02  -0.00   0.01
  13   1    -0.01   0.03  -0.05    -0.02   0.04  -0.07    -0.12   0.11  -0.32
  14   1    -0.05   0.04   0.01    -0.08   0.03   0.02    -0.30   0.19   0.07
  15   1     0.01  -0.00   0.02    -0.00   0.01  -0.03     0.17  -0.20   0.48
  16   1     0.01  -0.02  -0.01    -0.00   0.04   0.01     0.41  -0.32  -0.13
  17   1     0.00  -0.00   0.00     0.00  -0.01   0.02    -0.00  -0.00  -0.00
  18   1     0.00   0.00  -0.00     0.01  -0.02  -0.01    -0.01  -0.00  -0.00
  19   1    -0.00  -0.02  -0.00     0.01   0.01   0.00    -0.13   0.07   0.03
  20   1     0.01  -0.02   0.01     0.00   0.00  -0.01     0.03  -0.09   0.01
  21   1    -0.01  -0.02   0.01    -0.00  -0.00  -0.00    -0.09   0.01  -0.14
                     40                     41                     42
                        a                      a                      a 
 Frequencies --  1504.9700              1506.6083              1511.5411
 Red. masses --     1.9953                 1.5133                 1.5251
 Frc consts  --     0.0000                 0.0000                 0.0000
 IR Inten    --    13.2693                 3.2528                13.9796
 Raman Activ --     0.0000                 0.0000                 0.0000
 Depolar     --     0.0000                 0.0000                 0.0000
 Atom AN      X      Y      Z        X      Y      Z        X      Y      Z
   1   7    -0.02   0.00   0.01    -0.00   0.00   0.00     0.01   0.00   0.00
   2   6    -0.00  -0.04  -0.02    -0.00  -0.00  -0.00    -0.00   0.00  -0.00
   3   6     0.19  -0.11   0.11     0.01  -0.00  -0.00    -0.01   0.02  -0.01
   4   6     0.13  -0.08   0.06     0.01  -0.01   0.00     0.02  -0.04   0.02
   5   6    -0.04   0.01  -0.02    -0.02   0.01   0.04     0.00   0.06  -0.01
   6   6    -0.01  -0.00  -0.01    -0.09   0.03   0.19     0.18  -0.02   0.09
   7  17    -0.00   0.00   0.00    -0.00  -0.00   0.00    -0.00  -0.00   0.00
   8   1     0.01  -0.00  -0.01     0.00  -0.00  -0.01    -0.01  -0.01  -0.02
   9   1     0.05   0.00  -0.00     0.00  -0.01  -0.00    -0.01  -0.02  -0.00
  10   1     0.01  -0.00  -0.04     0.00   0.00  -0.00    -0.01   0.01   0.01
  11   1    -0.00   0.09   0.02     0.00   0.01   0.00    -0.00   0.00   0.00
  12   1     0.01   0.00   0.07     0.00   0.00   0.01    -0.00   0.00   0.00
  13   1    -0.18   0.15  -0.50    -0.00  -0.00  -0.01     0.02  -0.03   0.07
  14   1    -0.47   0.28   0.11    -0.01   0.01   0.00     0.06  -0.04  -0.01
  15   1    -0.12   0.11  -0.32     0.01   0.02  -0.01    -0.04   0.06  -0.13
  16   1    -0.28   0.20   0.08    -0.03  -0.01   0.00    -0.11   0.09   0.03
  17   1     0.03  -0.03   0.08    -0.01   0.03  -0.01     0.04  -0.08   0.14
  18   1     0.08  -0.04  -0.02     0.00  -0.02   0.01     0.11  -0.12  -0.03
  19   1     0.02  -0.02  -0.01     0.43   0.26   0.00    -0.52   0.27   0.13
  20   1    -0.02   0.03   0.01     0.24  -0.11  -0.66     0.10  -0.28   0.05
  21   1     0.03   0.01   0.03    -0.31  -0.29  -0.11    -0.31   0.09  -0.54
                     43                     44                     45
                        a                      a                      a 
 Frequencies --  1528.1733              2899.5322              2919.2622
 Red. masses --     1.9854                 1.9273                 1.9466
 Frc consts  --     0.0000                 0.0000                 0.0000
 IR Inten    --     0.5451                52.1323              1285.3244
 Raman Activ --     0.0000                 0.0000                 0.0000
 Depolar     --     0.0000                 0.0000                 0.0000
 Atom AN      X      Y      Z        X      Y      Z        X      Y      Z
   1   7    -0.00  -0.00  -0.00     0.00  -0.01   0.00     0.01  -0.24   0.05
   2   6     0.00   0.00  -0.00     0.00   0.00  -0.00     0.00   0.10  -0.04
   3   6    -0.03   0.01  -0.01     0.00  -0.00  -0.00    -0.00   0.00   0.01
   4   6    -0.02   0.05  -0.02    -0.02   0.01   0.04     0.00  -0.00   0.01
   5   6    -0.22   0.14  -0.12     0.11  -0.06  -0.26     0.00  -0.00   0.01
   6   6    -0.05  -0.02  -0.02    -0.01   0.00   0.01     0.00  -0.00   0.00
   7  17    -0.00   0.00  -0.00     0.00   0.00   0.00    -0.00   0.01  -0.00
   8   1     0.01   0.00   0.00    -0.00   0.02  -0.00    -0.06   0.87  -0.16
   9   1    -0.00   0.00   0.00    -0.00  -0.00  -0.00    -0.00  -0.01  -0.03
  10   1     0.00  -0.01   0.00     0.00  -0.00   0.00     0.03  -0.00   0.02
  11   1     0.00   0.01   0.00     0.00  -0.00   0.00     0.01  -0.00   0.10
  12   1    -0.00   0.00   0.01    -0.00  -0.01   0.00    -0.00  -0.36   0.05
  13   1     0.02  -0.02   0.06    -0.01   0.01   0.01     0.01  -0.01  -0.00
  14   1     0.05  -0.03  -0.01     0.00  -0.00   0.00    -0.00   0.00  -0.04
  15   1     0.01  -0.05   0.08     0.09  -0.06  -0.06     0.00   0.00  -0.00
  16   1     0.05  -0.07  -0.02    -0.02   0.02  -0.11    -0.01   0.01  -0.03
  17   1     0.25  -0.19   0.57    -0.50   0.35   0.32    -0.01   0.01   0.01
  18   1     0.53  -0.35  -0.15     0.11  -0.12   0.61    -0.01   0.01  -0.06
  19   1     0.12  -0.03  -0.02    -0.01   0.01  -0.05    -0.00   0.00  -0.00
  20   1    -0.03   0.08  -0.03    -0.00   0.00   0.00    -0.00  -0.00  -0.00
  21   1     0.08   0.00   0.11     0.04  -0.03  -0.02    -0.00   0.00   0.00
                     46                     47                     48
                        a                      a                      a 
 Frequencies --  2922.6922              2934.7649              2943.5708
 Red. masses --     1.9222                 1.4859                 1.8913
 Frc consts  --     0.0000                 0.0000                 0.0000
 IR Inten    --    12.3607                50.7096               153.4246
 Raman Activ --     0.0000                 0.0000                 0.0000
 Depolar     --     0.0000                 0.0000                 0.0000
 Atom AN      X      Y      Z        X      Y      Z        X      Y      Z
   1   7    -0.00  -0.00   0.00    -0.00   0.00  -0.00    -0.01   0.10  -0.02
   2   6     0.01  -0.00   0.01     0.00  -0.02   0.01    -0.02   0.21  -0.13
   3   6     0.12  -0.07  -0.23    -0.03   0.02  -0.00     0.04  -0.03   0.04
   4   6    -0.04   0.02   0.08    -0.02   0.02   0.00    -0.02   0.01   0.03
   5   6    -0.01   0.00   0.02     0.14  -0.11   0.09     0.01  -0.01   0.02
   6   6     0.00  -0.00  -0.00    -0.02  -0.00  -0.01    -0.00   0.00  -0.00
   7  17     0.00   0.00   0.00     0.00  -0.00   0.00     0.00  -0.00   0.00
   8   1    -0.00   0.02  -0.00     0.00  -0.01   0.00     0.02  -0.34   0.06
   9   1    -0.00  -0.00   0.00     0.00  -0.00   0.00     0.00   0.01   0.00
  10   1     0.00  -0.00   0.00     0.00   0.00   0.00    -0.01   0.00  -0.00
  11   1    -0.01   0.02  -0.08    -0.01   0.00  -0.04     0.05  -0.05   0.41
  12   1     0.00  -0.02   0.01    -0.00   0.08  -0.01     0.01  -0.70   0.07
  13   1    -0.53   0.34   0.30     0.09  -0.05  -0.05    -0.14   0.09   0.10
  14   1     0.08  -0.10   0.55     0.01  -0.01   0.07    -0.02   0.03  -0.26
  15   1     0.17  -0.13  -0.11     0.09  -0.07  -0.07     0.07  -0.05  -0.05
  16   1    -0.04   0.04  -0.20     0.01  -0.01   0.07    -0.01   0.01  -0.03
  17   1     0.02  -0.02  -0.01    -0.44   0.30   0.35    -0.04   0.03   0.03
  18   1    -0.01   0.01  -0.06    -0.07   0.10  -0.69    -0.01   0.01  -0.09
  19   1     0.00  -0.00   0.01     0.00  -0.01   0.05     0.00  -0.00   0.01
  20   1    -0.00  -0.00  -0.00     0.05   0.02   0.02     0.00   0.00   0.00
  21   1    -0.00   0.00   0.00     0.03  -0.02  -0.03     0.00  -0.00  -0.00
                     49                     50                     51
                        a                      a                      a 
 Frequencies --  2944.4322              2953.5123              2968.4015
 Red. masses --     1.9860                 1.5483                 1.5643
 Frc consts  --     0.0000                 0.0000                 0.0000
 IR Inten    --    40.1770                 7.9691                12.2608
 Raman Activ --     0.0000                 0.0000                 0.0000
 Depolar     --     0.0000                 0.0000                 0.0000
 Atom AN      X      Y      Z        X      Y      Z        X      Y      Z
   1   7    -0.00   0.00   0.00     0.00   0.03  -0.01    -0.00   0.01  -0.00
   2   6     0.00   0.03  -0.00    -0.01   0.08  -0.03    -0.00   0.04   0.00
   3   6     0.05  -0.03  -0.08    -0.11   0.08  -0.11    -0.07   0.05  -0.04
   4   6     0.08  -0.05  -0.26     0.07  -0.05   0.02    -0.14   0.11  -0.06
   5   6     0.03  -0.02  -0.04     0.00  -0.00  -0.00    -0.03   0.02  -0.01
   6   6    -0.00   0.00   0.01    -0.01   0.00  -0.00     0.05   0.00   0.02
   7  17     0.00  -0.00   0.00     0.00  -0.00   0.00    -0.00   0.00   0.00
   8   1    -0.00  -0.00  -0.00     0.00  -0.11   0.02     0.01  -0.03   0.00
   9   1    -0.00  -0.00   0.00    -0.00   0.00   0.01     0.00  -0.00   0.01
  10   1     0.00   0.00   0.00    -0.01  -0.00  -0.00    -0.00  -0.00  -0.00
  11   1    -0.00   0.01  -0.02     0.01  -0.01   0.08    -0.00   0.01  -0.04
  12   1     0.00  -0.10   0.01     0.00  -0.29   0.03     0.00  -0.15   0.02
  13   1    -0.21   0.14   0.12     0.35  -0.22  -0.24     0.22  -0.14  -0.14
  14   1     0.02  -0.03   0.15     0.05  -0.08   0.64     0.02  -0.03   0.29
  15   1    -0.39   0.28   0.25    -0.24   0.17   0.18     0.44  -0.31  -0.33
  16   1     0.11  -0.12   0.67    -0.03   0.04  -0.27     0.06  -0.08   0.54
  17   1    -0.10   0.07   0.07    -0.01   0.01   0.00     0.08  -0.06  -0.06
  18   1     0.01  -0.01   0.05     0.00  -0.00   0.02     0.01  -0.01   0.11
  19   1    -0.01   0.01  -0.03    -0.00  -0.00   0.01    -0.00   0.01  -0.07
  20   1     0.00   0.00   0.00     0.02   0.01   0.01    -0.12  -0.05  -0.04
  21   1     0.02  -0.01  -0.01     0.01  -0.01  -0.01    -0.04   0.03   0.03
                     52                     53                     54
                        a                      a                      a 
 Frequencies --  2977.6076              2988.0614              2998.8563
 Red. masses --     1.5802                 1.8594                 1.9167
 Frc consts  --     0.0000                 0.0000                 0.0000
 IR Inten    --    11.9009                63.0308                34.4121
 Raman Activ --     0.0000                 0.0000                 0.0000
 Depolar     --     0.0000                 0.0000                 0.0000
 Atom AN      X      Y      Z        X      Y      Z        X      Y      Z
   1   7    -0.00   0.02  -0.01     0.00  -0.00   0.00     0.00  -0.00   0.00
   2   6     0.02   0.07   0.21    -0.00   0.00  -0.01    -0.00   0.00  -0.00
   3   6     0.01  -0.00   0.04    -0.01   0.01  -0.01    -0.00   0.00  -0.00
   4   6     0.01  -0.01   0.01    -0.02   0.02  -0.01     0.00  -0.00  -0.01
   5   6     0.00  -0.00   0.00    -0.02   0.01  -0.01     0.01  -0.00  -0.03
   6   6    -0.01  -0.00  -0.01    -0.25  -0.05  -0.11     0.11  -0.03  -0.26
   7  17     0.00  -0.00  -0.00    -0.00   0.00   0.00     0.00  -0.00  -0.00
   8   1     0.00  -0.08   0.02     0.00   0.01  -0.00    -0.00   0.00  -0.00
   9   1     0.00  -0.00   0.03     0.00  -0.00  -0.00    -0.00   0.00  -0.00
  10   1    -0.00   0.00   0.00    -0.00  -0.00  -0.00    -0.00  -0.00   0.00
  11   1    -0.10   0.17  -0.83     0.00  -0.01   0.03     0.00  -0.00   0.02
  12   1     0.01  -0.42   0.08    -0.00  -0.01  -0.00    -0.00   0.00  -0.00
  13   1     0.01  -0.00   0.00     0.02  -0.01  -0.02    -0.00   0.00   0.00
  14   1    -0.01   0.02  -0.14     0.00  -0.00   0.04     0.00  -0.00   0.01
  15   1    -0.02   0.01   0.02     0.07  -0.05  -0.05    -0.01   0.01   0.01
  16   1    -0.01   0.01  -0.07     0.01  -0.01   0.10     0.01  -0.00   0.03
  17   1    -0.00   0.00   0.00     0.05  -0.03  -0.04    -0.04   0.02   0.02
  18   1    -0.00   0.00  -0.01     0.01  -0.01   0.08     0.01  -0.01   0.05
  19   1     0.00  -0.01   0.03    -0.01  -0.05   0.23     0.12  -0.14   0.73
  20   1     0.03   0.01   0.01     0.81   0.31   0.24    -0.09  -0.05  -0.07
  21   1     0.00  -0.00  -0.00     0.07  -0.08  -0.09    -0.41   0.30   0.26
                     55                     56                     57
                        a                      a                      a 
 Frequencies --  3012.7085              3232.4717              3242.9875
 Red. masses --     1.3585                 1.9471                 1.5829
 Frc consts  --     0.0000                 0.0000                 0.0000
 IR Inten    --    24.5190                50.3632                25.2106
 Raman Activ --     0.0000                 0.0000                 0.0000
 Depolar     --     0.0000                 0.0000                 0.0000
 Atom AN      X      Y      Z        X      Y      Z        X      Y      Z
   1   7     0.00   0.00  -0.00     0.21   0.08   0.15     0.04   0.05  -0.20
   2   6     0.00   0.00   0.00     0.00   0.00   0.00     0.00  -0.00  -0.01
   3   6     0.00  -0.00   0.00    -0.00  -0.00  -0.00     0.00  -0.00   0.00
   4   6     0.01  -0.01   0.00    -0.00   0.00  -0.00    -0.00  -0.00  -0.00
   5   6     0.01  -0.01   0.00     0.00  -0.00   0.00     0.00  -0.00   0.00
   6   6     0.09  -0.15   0.02     0.00   0.00   0.00     0.00   0.00  -0.00
   7  17     0.00   0.00  -0.00    -0.00  -0.00   0.00     0.00  -0.00   0.00
   8   1    -0.00  -0.01   0.00     0.02   0.03   0.01    -0.00   0.06  -0.03
   9   1     0.00   0.00   0.00    -0.02   0.06  -0.31     0.12  -0.12   0.90
  10   1    -0.00  -0.00  -0.00    -0.78  -0.40  -0.26    -0.28  -0.14  -0.12
  11   1    -0.00   0.00  -0.00    -0.00   0.00  -0.01     0.00  -0.01   0.02
  12   1     0.00  -0.00   0.00    -0.00  -0.00  -0.00    -0.00   0.01  -0.00
  13   1    -0.00   0.00   0.00    -0.00   0.00   0.00    -0.00   0.00   0.00
  14   1    -0.00   0.00  -0.01    -0.00   0.00  -0.00     0.00   0.00  -0.01
  15   1    -0.02   0.01   0.02     0.00  -0.00  -0.00    -0.00   0.00   0.00
  16   1    -0.00   0.00  -0.03     0.00  -0.00   0.00    -0.00   0.00   0.00
  17   1    -0.03   0.02   0.02    -0.00   0.00   0.00    -0.00   0.00   0.00
  18   1    -0.00   0.00  -0.03    -0.00   0.00  -0.00    -0.00  -0.00  -0.00
  19   1    -0.06   0.08  -0.53    -0.00   0.00  -0.00     0.00  -0.00   0.00
  20   1     0.27   0.08   0.08    -0.00  -0.00  -0.00    -0.00  -0.00   0.00
  21   1    -0.53   0.38   0.39     0.00  -0.00  -0.00    -0.00   0.00   0.00
