25
 energy: -32.961242212938 gnorm: 0.000497162786 xtb: 6.5.1 (fef0646)
N            3.16846851951561        1.46921298346025        2.21746776607289
C            2.49277059027378        0.15535077819721        2.42810141411916
C            2.92776911907785       -0.78005805407498        1.29612799786334
C            4.43332037714804       -0.83556014749661        1.27123347264629
C            5.12976590408702       -1.75594423335481        2.04246601586226
C            6.51074124928668       -1.74939566829350        2.09587496099406
C            7.23852030014167       -0.79717251913050        1.37829345598985
O            8.57524402653764       -0.68526107657637        1.36907330607371
C            9.35708753090840       -1.61412793190378        2.09260619625100
C            6.54248260828999        0.12847178502127        0.59266714461896
C            5.16306712440054        0.11256048386852        0.54480020116752
H            3.24195213944068        2.02118308385518        3.07655794923664
H            2.67925763960181        2.02290354141109        1.50594685790783
H            4.12580958233386        1.22099845135960        1.83929896635190
H            1.41208957501234        0.29040535103758        2.45227560408155
H            2.82336271365110       -0.25023185481548        3.38482435252711
H            2.53948963776825       -0.42014027412315        0.34237422352330
H            2.50998243822155       -1.76882033868907        1.47645616905195
H            4.58559573280073       -2.50265943228739        2.60096065163581
H            7.01448929439958       -2.49253494358290        2.69153570275581
H           10.39065085210873       -1.32869426829824        1.90938745466974
H            9.19445572437584       -2.63453849215219        1.73629675314831
H            9.15108946781351       -1.55904466049943        3.16522596787914
H            7.11171563967089        0.83964170849643        0.01670977678510
H            4.66137221313383        0.78084572857075       -0.14464236121257
