      -----------------------------------------------------------      
     |                   =====================                   |     
     |                           x T B                           |     
     |                   =====================                   |     
     |                         S. Grimme                         |     
     |          Mulliken Center for Theoretical Chemistry        |     
     |                    University of Bonn                     |     
      -----------------------------------------------------------      

   * xtb version 6.5.1 (fef0646) compiled by 'conda@b96dff2e9fd6' on 2023-01-04

   xtb is free software: you can redistribute it and/or modify it under
   the terms of the GNU Lesser General Public License as published by
   the Free Software Foundation, either version 3 of the License, or
   (at your option) any later version.
   
   xtb is distributed in the hope that it will be useful,
   but WITHOUT ANY WARRANTY; without even the implied warranty of
   MERCHANTABILITY or FITNESS FOR A PARTICULAR PURPOSE.  See the
   GNU Lesser General Public License for more details.
   
   Cite this work as:
   * C. Bannwarth, E. Caldeweyher, S. Ehlert, A. Hansen, P. Pracht,
     J. Seibert, S. Spicher, S. Grimme, WIREs Comput. Mol. Sci., 2020, 11,
     e01493. DOI: 10.1002/wcms.1493
   
   for GFN2-xTB:
   * C. Bannwarth, S. Ehlert and S. Grimme., J. Chem. Theory Comput., 2019,
     15, 1652-1671. DOI: 10.1021/acs.jctc.8b01176
   for GFN1-xTB:
   * S. Grimme, C. Bannwarth, P. Shushkov, J. Chem. Theory Comput., 2017,
     13, 1989-2009. DOI: 10.1021/acs.jctc.7b00118
   for GFN0-xTB:
   * P. Pracht, E. Caldeweyher, S. Ehlert, S. Grimme, ChemRxiv, 2019, preprint.
     DOI: 10.26434/chemrxiv.8326202.v1
   for GFN-FF:
   * S. Spicher and S. Grimme, Angew. Chem. Int. Ed., 2020, 59, 15665-15673.
     DOI: 10.1002/anie.202004239
   
   for ALPB and GBSA implicit solvation:
   * S. Ehlert, M. Stahn, S. Spicher, S. Grimme, J. Chem. Theory Comput.,
     2021, 17, 4250-4261. DOI: 10.1021/acs.jctc.1c00471
   
   for DFT-D4:
   * E. Caldeweyher, C. Bannwarth and S. Grimme, J. Chem. Phys., 2017,
     147, 034112. DOI: 10.1063/1.4993215
   * E. Caldeweyher, S. Ehlert, A. Hansen, H. Neugebauer, S. Spicher,
     C. Bannwarth and S. Grimme, J. Chem. Phys., 2019, 150, 154122.
     DOI: 10.1063/1.5090222
   * E. Caldeweyher, J.-M. Mewes, S. Ehlert and S. Grimme, Phys. Chem. Chem. Phys.
     2020, 22, 8499-8512. DOI: 10.1039/D0CP00502A
   
   for sTDA-xTB:
   * S. Grimme and C. Bannwarth, J. Chem. Phys., 2016, 145, 054103.
     DOI: 10.1063/1.4959605
   
   in the mass-spec context:
   * V. Asgeirsson, C. Bauer and S. Grimme, Chem. Sci., 2017, 8, 4879.
     DOI: 10.1039/c7sc00601b
   * J. Koopman and S. Grimme, ACS Omega 2019, 4, 12, 15120-15133.
     DOI: 10.1021/acsomega.9b02011
   
   for metadynamics refer to:
   * S. Grimme, J. Chem. Theory Comput., 2019, 155, 2847-2862
     DOI: 10.1021/acs.jctc.9b00143
   
   for SPH calculations refer to:
   * S. Spicher and S. Grimme, J. Chem. Theory Comput., 2021, 17, 1701-1714
     DOI: 10.1021/acs.jctc.0c01306
   
   with help from (in alphabetical order)
   P. Atkinson, C. Bannwarth, F. Bohle, G. Brandenburg, E. Caldeweyher
   M. Checinski, S. Dohm, S. Ehlert, S. Ehrlich, I. Gerasimov, C. Hölzer
   A. Katbashev, J. Koopman, C. Lavigne, S. Lehtola, F. März, M. Müller,
   F. Musil, H. Neugebauer, J. Pisarek, C. Plett, P. Pracht, F. Pultar,
   J. Seibert, P. Shushkov, S. Spicher, M. Stahn, M. Steiner, T. Strunk,
   J. Stückrath, T. Rose, and J. Unsleber
   
 * started run on 2023/01/24 at 15:27:00.748     

           -------------------------------------------------
          |                Calculation Setup                |
           -------------------------------------------------

          program call               : xtb init.xyz --opt -c 0 -u 0 -P 16 --alpb water
          hostname                   : gpg-woodward
          coordinate file            : init.xyz
          omp threads                :                    16

   ID    Z sym.   atoms
    1    7 N      1
    2    6 C      2-5, 7, 9, 11, 13
    3    9 F      6, 8, 10, 12, 14
    4   17 Cl     15
    5    1 H      16-22

molecular fragmentation (1/2 indicates fragments):
1111111111111121111111
# atoms in fragment 1/2:    21     1
 fragment masses (1/2) :      212.14       35.45
CMA distance (Bohr)    :  11.577
constraining FC (au)   :  0.0500

           -------------------------------------------------
          |                 G F N 2 - x T B                 |
           -------------------------------------------------

        Reference                      10.1021/acs.jctc.8b01176
      * Hamiltonian:
        H0-scaling (s, p, d)           1.850000    2.230000    2.230000
        zeta-weighting                 0.500000
      * Dispersion:
        s8                             2.700000
        a1                             0.520000
        a2                             5.000000
        s9                             5.000000
      * Repulsion:
        kExp                           1.500000    1.000000
        rExp                           1.000000
      * Coulomb:
        alpha                          2.000000
        third order                    shell-resolved
        anisotropic                    true
        a3                             3.000000
        a5                             4.000000
        cn-shift                       1.200000
        cn-exp                         4.000000
        max-rad                        5.000000

      * Solvation model:               ALPB
        Solvent                        water
        Parameter file                 internal GFN2-xTB/ALPB
        Dielectric constant                8.0200E+01
        Reference state                gsolv [1 M gas/solution]
        Free energy shift                  1.0808E-03 Eh       6.7819E-01 kcal/mol
        Temperature                        2.9815E+02 K
        Density                            1.0000E+00 kg/L
        Solvent mass                       1.8000E+01 g/mol
        Interaction kernel             P16
        Born radius scaling (c1)           1.4744E+00
        Born radii integrator          GBOBC
        Born offset                        0.0000E+00 a0       0.0000E+00 AA
        H-bond correction              true
        Ion screening                  false
        Surface tension                    1.0000E-05 Eh       1.5569E+01 dyn/cm
        Grid points                               230 per atom

          ...................................................
          :                      SETUP                      :
          :.................................................:
          :  # basis functions                  73          :
          :  # atomic orbitals                  72          :
          :  # shells                           38          :
          :  # electrons                        86          :
          :  max. iterations                   250          :
          :  Hamiltonian                  GFN2-xTB          :
          :  restarted?                      false          :
          :  GBSA solvation                   true          :
          :  PC potential                    false          :
          :  electronic temp.          300.0000000     K    :
          :  accuracy                    1.0000000          :
          :  -> integral cutoff          0.2500000E+02      :
          :  -> integral neglect         0.1000000E-07      :
          :  -> SCF convergence          0.1000000E-05 Eh   :
          :  -> wf. convergence          0.1000000E-03 e    :
          :  Broyden damping             0.4000000          :
          ...................................................

 iter      E             dE          RMSdq      gap      omega  full diag
   1    -52.1377745 -0.521378E+02  0.478E+00    4.34       0.0  T
   2    -52.2289181 -0.911436E-01  0.250E+00    3.39       1.0  T
   3    -52.2319258 -0.300763E-02  0.123E+00    2.98       1.0  T
   4    -52.2333312 -0.140539E-02  0.614E-01    3.00       1.0  T
   5    -52.2365657 -0.323452E-02  0.275E-01    2.99       1.0  T
   6    -52.2368474 -0.281679E-03  0.197E-01    2.99       1.0  T
   7    -52.2371330 -0.285683E-03  0.797E-02    3.01       1.0  T
   8    -52.2371804 -0.473348E-04  0.410E-02    3.00       1.0  T
   9    -52.2371859 -0.548772E-05  0.959E-03    2.99       2.2  T
  10    -52.2371860 -0.175357E-06  0.288E-03    2.99       7.4  T
  11    -52.2371861 -0.280337E-07  0.159E-03    2.99      13.4  T
  12    -52.2371861 -0.111597E-07  0.509E-04    2.99      41.9  T
  13    -52.2371861 -0.173566E-08  0.292E-04    2.99      72.9  T

   *** convergence criteria satisfied after 13 iterations ***

         #    Occupation            Energy/Eh            Energy/eV
      -------------------------------------------------------------
         1        2.0000           -1.0074463             -27.4140
       ...           ...                  ...                  ...
        37        2.0000           -0.4848919             -13.1946
        38        2.0000           -0.4517400             -12.2925
        39        2.0000           -0.4489648             -12.2170
        40        2.0000           -0.4480468             -12.1920
        41        2.0000           -0.4029767             -10.9656
        42        2.0000           -0.4023655             -10.9489
        43        2.0000           -0.4020927             -10.9415 (HOMO)
        44                         -0.2923627              -7.9556 (LUMO)
        45                         -0.2905351              -7.9059
        46                         -0.1660837              -4.5194
        47                         -0.0525088              -1.4288
        48                         -0.0370896              -1.0093
       ...                                ...                  ...
        72                          0.5759643              15.6728
      -------------------------------------------------------------
                  HL-Gap            0.1097300 Eh            2.9859 eV
             Fermi-level           -0.3472277 Eh           -9.4485 eV

 SCC (total)                   0 d,  0 h,  0 min,  0.067 sec
 SCC setup                      ...        0 min,  0.001 sec (  0.763%)
 Dispersion                     ...        0 min,  0.001 sec (  0.813%)
 classical contributions        ...        0 min,  0.000 sec (  0.182%)
 integral evaluation            ...        0 min,  0.003 sec (  4.833%)
 iterations                     ...        0 min,  0.057 sec ( 84.413%)
 molecular gradient             ...        0 min,  0.005 sec (  7.621%)
 printout                       ...        0 min,  0.001 sec (  0.915%)

         :::::::::::::::::::::::::::::::::::::::::::::::::::::
         ::                     SUMMARY                     ::
         :::::::::::::::::::::::::::::::::::::::::::::::::::::
         :: total energy             -51.835651214690 Eh    ::
         :: total w/o Gsasa/hb       -51.831909752379 Eh    ::
         :: gradient norm              0.041290829665 Eh/a0 ::
         :: HOMO-LUMO gap              2.985904099109 eV    ::
         ::.................................................::
         :: SCC energy               -52.237186081141 Eh    ::
         :: -> isotropic ES            0.173616029853 Eh    ::
         :: -> anisotropic ES         -0.028588215879 Eh    ::
         :: -> anisotropic XC         -0.024059666462 Eh    ::
         :: -> dispersion             -0.018282756984 Eh    ::
         :: -> Gsolv                  -0.074276334155 Eh    ::
         ::    -> Gelec               -0.070534871844 Eh    ::
         ::    -> Gsasa                0.004632365777 Eh    ::
         ::    -> Ghb                 -0.009454587787 Eh    ::
         ::    -> Gshift               0.001080759698 Eh    ::
         :: repulsion energy           0.401523586930 Eh    ::
         :: add. restraining           0.000000000000 Eh    ::
         :: total charge              -0.000000000000 e     ::
         :::::::::::::::::::::::::::::::::::::::::::::::::::::

      ----------------------------------------------------------- 
     |                   =====================                   |
     |                        A N C O P T                        |
     |                   =====================                   |
     |               Approximate Normal Coordinate               |
     |                Rational Function Optimizer                |
      ----------------------------------------------------------- 

          ...................................................
          :                      SETUP                      :
          :.................................................:
          :   optimization level            normal          :
          :   max. optcycles                   200          :
          :   ANC micro-cycles                  20          :
          :   degrees of freedom                60          :
          :.................................................:
          :   RF solver                   davidson          :
          :   write xtbopt.log                true          :
          :   linear?                        false          :
          :   energy convergence         0.5000000E-05 Eh   :
          :   grad. convergence          0.1000000E-02 Eh/α :
          :   maximium RF displ.         1.0000000          :
          :   Hlow (freq-cutoff)         0.1000000E-01      :
          :   Hmax (freq-cutoff)         5.0000000          :
          :   S6 in model hess.         20.0000000          :
          ...................................................

generating ANC from model Hessian ...
Using Lindh-Hessian (1995)
 Shifting diagonal of input Hessian by    1.0216179086361904E-002
 Lowest  eigenvalues of input Hessian
    0.010000    0.000000    0.000000    0.000000    0.000000    0.000000
    0.000000    0.011221    0.012091    0.012320    0.012621    0.020330
    0.021227    0.024052    0.025509    0.029319    0.030417    0.034767
 Highest eigenvalues
    1.793795    1.873367    1.904662    1.913306    2.196330    2.214462


........................................................................
.............................. CYCLE    1 ..............................
........................................................................
   1    -52.2371861 -0.522372E+02  0.162E-04    2.99       0.0  T
   2    -52.2371861 -0.649436E-10  0.131E-04    2.99     163.3  T
   3    -52.2371861 -0.849099E-10  0.686E-05    2.99     310.9  T
     SCC iter.                  ...        0 min,  0.013 sec
     gradient                   ...        0 min,  0.005 sec
 * total energy  :   -51.8356512 Eh     change       -0.5200533E-09 Eh
   gradient norm :     0.0412902 Eh/α   predicted     0.0000000E+00 (-100.00%)
   displ. norm   :     0.5066685 α      lambda       -0.8467059E-02
   maximum displ.:     0.3368264 α      in ANC's #1, #7, #3, ...

........................................................................
.............................. CYCLE    2 ..............................
........................................................................
   1    -52.2459533 -0.522460E+02  0.214E-01    2.93       0.0  T
   2    -52.2460603 -0.106979E-03  0.116E-01    2.92       1.0  T
   3    -52.2460689 -0.868873E-05  0.410E-02    2.92       1.0  T
   4    -52.2460712 -0.224020E-05  0.167E-02    2.91       1.3  T
   5    -52.2460726 -0.139496E-05  0.123E-02    2.91       1.7  T
   6    -52.2460734 -0.772959E-06  0.724E-03    2.91       2.9  T
   7    -52.2460737 -0.385985E-06  0.310E-03    2.91       6.9  T
   8    -52.2460738 -0.414239E-07  0.160E-03    2.92      13.4  T
   9    -52.2460738 -0.229843E-07  0.262E-04    2.92      81.5  T
  10    -52.2460738 -0.169152E-09  0.136E-04    2.92     156.8  T
     SCC iter.                  ...        0 min,  0.040 sec
     gradient                   ...        0 min,  0.004 sec
 * total energy  :   -51.8398584 Eh     change       -0.4207188E-02 Eh
   gradient norm :     0.0282715 Eh/α   predicted    -0.5320343E-02 (  26.46%)
   displ. norm   :     0.1532226 α      lambda       -0.1723159E-02
   maximum displ.:     0.0979946 α      in ANC's #1, #19, #11, ...

........................................................................
.............................. CYCLE    3 ..............................
........................................................................
   1    -52.2500874 -0.522501E+02  0.101E-01    2.91       0.0  T
   2    -52.2500964 -0.902508E-05  0.572E-02    2.91       1.0  T
   3    -52.2500970 -0.573683E-06  0.137E-02    2.90       1.6  T
   4    -52.2500984 -0.137393E-05  0.679E-03    2.90       3.1  T
   5    -52.2500986 -0.248551E-06  0.417E-03    2.90       5.1  T
   6    -52.2500987 -0.608812E-07  0.223E-03    2.90       9.6  T
   7    -52.2500987 -0.241877E-07  0.152E-03    2.90      14.1  T
   8    -52.2500987 -0.140794E-07  0.868E-04    2.90      24.6  T
   9    -52.2500987 -0.551603E-08  0.162E-04    2.90     131.7  T
     SCC iter.                  ...        0 min,  0.035 sec
     gradient                   ...        0 min,  0.003 sec
 * total energy  :   -51.8409612 Eh     change       -0.1102843E-02 Eh
   gradient norm :     0.0107906 Eh/α   predicted    -0.8818078E-03 ( -20.04%)
   displ. norm   :     0.1937789 α      lambda       -0.5989978E-03
   maximum displ.:     0.1492176 α      in ANC's #1, #11, #7, ...

........................................................................
.............................. CYCLE    4 ..............................
........................................................................
   1    -52.2513381 -0.522513E+02  0.530E-02    2.90       0.0  T
   2    -52.2513406 -0.255718E-05  0.309E-02    2.90       1.0  T
   3    -52.2513403  0.266660E-06  0.123E-02    2.89       1.7  T
   4    -52.2513418 -0.144356E-05  0.580E-03    2.89       3.7  T
   5    -52.2513419 -0.115210E-06  0.401E-03    2.89       5.3  T
   6    -52.2513420 -0.937528E-07  0.179E-03    2.89      11.9  T
   7    -52.2513420 -0.151686E-07  0.102E-03    2.89      20.8  T
   8    -52.2513420 -0.690015E-08  0.213E-04    2.89     100.0  T
   9    -52.2513420 -0.185487E-09  0.961E-05    2.89     221.8  T
     SCC iter.                  ...        0 min,  0.035 sec
     gradient                   ...        0 min,  0.003 sec
 * total energy  :   -51.8414390 Eh     change       -0.4777245E-03 Eh
   gradient norm :     0.0074764 Eh/α   predicted    -0.3107473E-03 ( -34.95%)
   displ. norm   :     0.5065952 α      lambda       -0.1134041E-02
   maximum displ.:     0.3894421 α      in ANC's #1, #11, #7, ...

........................................................................
.............................. CYCLE    5 ..............................
........................................................................
   1    -52.2510775 -0.522511E+02  0.111E-01    2.90       0.0  T
   2    -52.2510886 -0.110953E-04  0.680E-02    2.90       1.0  T
   3    -52.2510895 -0.952316E-06  0.297E-02    2.89       1.0  T
   4    -52.2510964 -0.692359E-05  0.173E-02    2.89       1.2  T
   5    -52.2510977 -0.128881E-05  0.107E-02    2.89       2.0  T
   6    -52.2510984 -0.691671E-06  0.487E-03    2.89       4.4  T
   7    -52.2510986 -0.150619E-06  0.195E-03    2.89      10.9  T
   8    -52.2510986 -0.166729E-07  0.775E-04    2.89      27.5  T
   9    -52.2510986 -0.257422E-08  0.158E-04    2.89     135.3  T
     SCC iter.                  ...        0 min,  0.035 sec
     gradient                   ...        0 min,  0.003 sec
 * total energy  :   -51.8424243 Eh     change       -0.9852913E-03 Eh
   gradient norm :     0.0165922 Eh/α   predicted    -0.7125429E-03 ( -27.68%)
   displ. norm   :     0.7087451 α      lambda       -0.1562753E-02
   maximum displ.:     0.5297719 α      in ANC's #1, #11, #7, ...

........................................................................
.............................. CYCLE    6 ..............................
........................................................................
   1    -52.2480890 -0.522481E+02  0.148E-01    2.90       0.0  T
   2    -52.2481129 -0.238535E-04  0.968E-02    2.90       1.0  T
   3    -52.2481255 -0.126345E-04  0.441E-02    2.90       1.0  T
   4    -52.2481368 -0.112737E-04  0.304E-02    2.89       1.0  T
   5    -52.2481416 -0.482626E-05  0.172E-02    2.89       1.2  T
   6    -52.2481434 -0.178847E-05  0.607E-03    2.89       3.5  T
   7    -52.2481437 -0.315463E-06  0.234E-03    2.89       9.1  T
   8    -52.2481437 -0.137610E-07  0.813E-04    2.89      26.2  T
   9    -52.2481437 -0.336372E-08  0.214E-04    2.89      99.7  T
     SCC iter.                  ...        0 min,  0.035 sec
     gradient                   ...        0 min,  0.003 sec
 * total energy  :   -51.8435909 Eh     change       -0.1166675E-02 Eh
   gradient norm :     0.0225474 Eh/α   predicted    -0.1173881E-02 (   0.62%)
   displ. norm   :     0.4253117 α      lambda       -0.1431467E-02
   maximum displ.:     0.2648748 α      in ANC's #1, #7, #11, ...

........................................................................
.............................. CYCLE    7 ..............................
........................................................................
   1    -52.2503259 -0.522503E+02  0.998E-02    2.91       0.0  T
   2    -52.2503462 -0.202689E-04  0.663E-02    2.91       1.0  T
   3    -52.2503567 -0.105433E-04  0.328E-02    2.91       1.0  T
   4    -52.2503612 -0.453389E-05  0.203E-02    2.91       1.0  T
   5    -52.2503631 -0.186072E-05  0.137E-02    2.91       1.6  T
   6    -52.2503644 -0.132877E-05  0.276E-03    2.90       7.7  T
   7    -52.2503645 -0.606381E-07  0.119E-03    2.90      17.9  T
   8    -52.2503645 -0.852734E-08  0.555E-04    2.90      38.4  T
   9    -52.2503645 -0.966324E-09  0.180E-04    2.90     118.3  T
     SCC iter.                  ...        0 min,  0.035 sec
     gradient                   ...        0 min,  0.003 sec
 * total energy  :   -51.8445765 Eh     change       -0.9856117E-03 Eh
   gradient norm :     0.0178239 Eh/α   predicted    -0.8452039E-03 ( -14.25%)
   displ. norm   :     0.2757627 α      lambda       -0.8871842E-03
   maximum displ.:     0.1375841 α      in ANC's #11, #7, #1, ...

........................................................................
.............................. CYCLE    8 ..............................
........................................................................
   1    -52.2524452 -0.522524E+02  0.760E-02    2.92       0.0  T
   2    -52.2524563 -0.111339E-04  0.491E-02    2.93       1.0  T
   3    -52.2524587 -0.239233E-05  0.263E-02    2.93       1.0  T
   4    -52.2524626 -0.382291E-05  0.163E-02    2.93       1.3  T
   5    -52.2524639 -0.137147E-05  0.106E-02    2.92       2.0  T
   6    -52.2524646 -0.630067E-06  0.352E-03    2.92       6.1  T
   7    -52.2524647 -0.154154E-06  0.116E-03    2.92      18.4  T
   8    -52.2524647 -0.314230E-08  0.323E-04    2.92      66.0  T
   9    -52.2524647 -0.519435E-09  0.167E-04    2.92     127.4  T
     SCC iter.                  ...        0 min,  0.035 sec
     gradient                   ...        0 min,  0.003 sec
 * total energy  :   -51.8451773 Eh     change       -0.6007030E-03 Eh
   gradient norm :     0.0102943 Eh/α   predicted    -0.4773284E-03 ( -20.54%)
   displ. norm   :     0.2963518 α      lambda       -0.4903819E-03
   maximum displ.:     0.2009832 α      in ANC's #1, #7, #11, ...

........................................................................
.............................. CYCLE    9 ..............................
........................................................................
   1    -52.2531953 -0.522532E+02  0.687E-02    2.93       0.0  T
   2    -52.2532017 -0.636216E-05  0.459E-02    2.93       1.0  T
   3    -52.2532035 -0.185190E-05  0.258E-02    2.93       1.0  T
   4    -52.2532083 -0.478933E-05  0.155E-02    2.93       1.4  T
   5    -52.2532095 -0.122418E-05  0.852E-03    2.93       2.5  T
   6    -52.2532100 -0.460428E-06  0.315E-03    2.93       6.8  T
   7    -52.2532101 -0.728477E-07  0.106E-03    2.93      20.2  T
   8    -52.2532101 -0.527439E-08  0.421E-04    2.93      50.6  T
   9    -52.2532101 -0.528097E-09  0.119E-04    2.93     179.2  T
     SCC iter.                  ...        0 min,  0.035 sec
     gradient                   ...        0 min,  0.003 sec
 * total energy  :   -51.8454997 Eh     change       -0.3224026E-03 Eh
   gradient norm :     0.0052978 Eh/α   predicted    -0.2667769E-03 ( -17.25%)
   displ. norm   :     0.1561704 α      lambda       -0.2391963E-03
   maximum displ.:     0.1169960 α      in ANC's #3, #7, #1, ...

........................................................................
.............................. CYCLE   10 ..............................
........................................................................
   1    -52.2556924 -0.522557E+02  0.510E-02    2.93       0.0  T
   2    -52.2556947 -0.236355E-05  0.298E-02    2.94       1.0  T
   3    -52.2556941  0.576905E-06  0.121E-02    2.94       1.8  T
   4    -52.2556957 -0.157218E-05  0.449E-03    2.94       4.7  T
   5    -52.2556958 -0.643678E-07  0.300E-03    2.94       7.1  T
   6    -52.2556958 -0.399532E-07  0.175E-03    2.94      12.2  T
   7    -52.2556958 -0.180336E-07  0.994E-04    2.94      21.5  T
   8    -52.2556958 -0.532766E-08  0.448E-04    2.94      47.6  T
     SCC iter.                  ...        0 min,  0.031 sec
     gradient                   ...        0 min,  0.003 sec
 * total energy  :   -51.8455826 Eh     change       -0.8291322E-04 Eh
   gradient norm :     0.0071103 Eh/α   predicted    -0.1225160E-03 (  47.76%)
   displ. norm   :     0.2199319 α      lambda       -0.1923855E-03
   maximum displ.:     0.1569048 α      in ANC's #1, #7, #11, ...

........................................................................
.............................. CYCLE   11 ..............................
........................................................................
   1    -52.2534171 -0.522534E+02  0.500E-02    2.93       0.0  T
   2    -52.2534209 -0.380078E-05  0.328E-02    2.93       1.0  T
   3    -52.2534230 -0.214889E-05  0.146E-02    2.93       1.5  T
   4    -52.2534239 -0.814899E-06  0.993E-03    2.93       2.1  T
   5    -52.2534244 -0.530913E-06  0.653E-03    2.93       3.3  T
   6    -52.2534247 -0.270201E-06  0.181E-03    2.93      11.8  T
   7    -52.2534247 -0.296350E-07  0.725E-04    2.93      29.4  T
   8    -52.2534247 -0.215249E-08  0.300E-04    2.93      71.0  T
     SCC iter.                  ...        0 min,  0.032 sec
     gradient                   ...        0 min,  0.002 sec
 * total energy  :   -51.8456729 Eh     change       -0.9032629E-04 Eh
   gradient norm :     0.0049643 Eh/α   predicted    -0.1008468E-03 (  11.65%)
   displ. norm   :     0.0591230 α      lambda       -0.8892684E-04
   maximum displ.:     0.0448031 α      in ANC's #3, #7, #5, ...

........................................................................
.............................. CYCLE   12 ..............................
........................................................................
   1    -52.2536168 -0.522536E+02  0.213E-02    2.93       0.0  T
   2    -52.2536171 -0.289702E-06  0.123E-02    2.93       1.7  T
   3    -52.2536168  0.236023E-06  0.569E-03    2.93       3.7  T
   4    -52.2536172 -0.376750E-06  0.857E-04    2.93      24.9  T
   5    -52.2536172 -0.171879E-08  0.450E-04    2.93      47.4  T
     SCC iter.                  ...        0 min,  0.020 sec
     gradient                   ...        0 min,  0.002 sec
 * total energy  :   -51.8457483 Eh     change       -0.7541702E-04 Eh
   gradient norm :     0.0026460 Eh/α   predicted    -0.4462317E-04 ( -40.83%)
   displ. norm   :     0.3219490 α      lambda       -0.2572837E-03
   maximum displ.:     0.2505145 α      in ANC's #3, #7, #1, ...

........................................................................
.............................. CYCLE   13 ..............................
........................................................................
   1    -52.2536138 -0.522536E+02  0.872E-02    2.93       0.0  T
   2    -52.2536166 -0.271145E-05  0.522E-02    2.93       1.0  T
   3    -52.2536146  0.196668E-05  0.186E-02    2.93       1.1  T
   4    -52.2536186 -0.404135E-05  0.776E-03    2.93       2.7  T
   5    -52.2536189 -0.247726E-06  0.471E-03    2.93       4.5  T
   6    -52.2536190 -0.129419E-06  0.235E-03    2.93       9.1  T
   7    -52.2536190 -0.388927E-07  0.994E-04    2.93      21.5  T
   8    -52.2536190 -0.394265E-08  0.339E-04    2.93      62.9  T
     SCC iter.                  ...        0 min,  0.031 sec
     gradient                   ...        0 min,  0.002 sec
 * total energy  :   -51.8459334 Eh     change       -0.1851172E-03 Eh
   gradient norm :     0.0057246 Eh/α   predicted    -0.1419768E-03 ( -23.30%)
   displ. norm   :     0.4036742 α      lambda       -0.2061433E-03
   maximum displ.:     0.3087538 α      in ANC's #3, #1, #7, ...

........................................................................
.............................. CYCLE   14 ..............................
........................................................................
   1    -52.2530082 -0.522530E+02  0.981E-02    2.93       0.0  T
   2    -52.2530112 -0.293675E-05  0.602E-02    2.93       1.0  T
   3    -52.2530123 -0.113323E-05  0.171E-02    2.93       1.2  T
   4    -52.2530146 -0.233033E-05  0.116E-02    2.93       1.8  T
   5    -52.2530155 -0.818284E-06  0.432E-03    2.93       4.9  T
   6    -52.2530156 -0.129893E-06  0.225E-03    2.93       9.5  T
   7    -52.2530156 -0.272326E-07  0.722E-04    2.93      29.5  T
   8    -52.2530156 -0.167483E-08  0.227E-04    2.93      94.0  T
     SCC iter.                  ...        0 min,  0.031 sec
     gradient                   ...        0 min,  0.002 sec
 * total energy  :   -51.8461035 Eh     change       -0.1700307E-03 Eh
   gradient norm :     0.0083877 Eh/α   predicted    -0.1198696E-03 ( -29.50%)
   displ. norm   :     0.5525826 α      lambda       -0.3097509E-03
   maximum displ.:     0.4419683 α      in ANC's #3, #1, #7, ...

........................................................................
.............................. CYCLE   15 ..............................
........................................................................
   1    -52.2518623 -0.522519E+02  0.134E-01    2.93       0.0  T
   2    -52.2518674 -0.507813E-05  0.820E-02    2.93       1.0  T
   3    -52.2518719 -0.450776E-05  0.193E-02    2.93       1.1  T
   4    -52.2518735 -0.166312E-05  0.152E-02    2.93       1.4  T
   5    -52.2518751 -0.160280E-05  0.516E-03    2.93       4.1  T
   6    -52.2518753 -0.121165E-06  0.291E-03    2.93       7.3  T
   7    -52.2518753 -0.564070E-07  0.932E-04    2.93      22.9  T
   8    -52.2518753 -0.291246E-08  0.282E-04    2.93      75.7  T
     SCC iter.                  ...        0 min,  0.033 sec
     gradient                   ...        0 min,  0.002 sec
 * total energy  :   -51.8463300 Eh     change       -0.2265793E-03 Eh
   gradient norm :     0.0077827 Eh/α   predicted    -0.2021674E-03 ( -10.77%)
   displ. norm   :     0.3563935 α      lambda       -0.2436008E-03
   maximum displ.:     0.3073623 α      in ANC's #3, #7, #1, ...

........................................................................
.............................. CYCLE   16 ..............................
........................................................................
   1    -52.2529240 -0.522529E+02  0.903E-02    2.94       0.0  T
   2    -52.2529267 -0.262024E-05  0.545E-02    2.94       1.0  T
   3    -52.2529264  0.290622E-06  0.157E-02    2.94       1.4  T
   4    -52.2529289 -0.250852E-05  0.878E-03    2.94       2.4  T
   5    -52.2529292 -0.353621E-06  0.502E-03    2.94       4.2  T
   6    -52.2529294 -0.151251E-06  0.254E-03    2.94       8.4  T
   7    -52.2529294 -0.483559E-07  0.103E-03    2.94      20.7  T
   8    -52.2529294 -0.403256E-08  0.313E-04    2.94      68.1  T
   9    -52.2529294 -0.521091E-09  0.125E-04    2.94     170.4  T
     SCC iter.                  ...        0 min,  0.037 sec
     gradient                   ...        0 min,  0.002 sec
 * total energy  :   -51.8464862 Eh     change       -0.1561832E-03 Eh
   gradient norm :     0.0037266 Eh/α   predicted    -0.1372811E-03 ( -12.10%)
   displ. norm   :     0.3245503 α      lambda       -0.1298384E-03
   maximum displ.:     0.2300616 α      in ANC's #3, #1, #7, ...

........................................................................
.............................. CYCLE   17 ..............................
........................................................................
   1    -52.2532977 -0.522533E+02  0.723E-02    2.94       0.0  T
   2    -52.2533029 -0.513035E-05  0.469E-02    2.94       1.0  T
   3    -52.2533048 -0.188759E-05  0.197E-02    2.94       1.1  T
   4    -52.2533072 -0.247281E-05  0.130E-02    2.94       1.6  T
   5    -52.2533080 -0.807071E-06  0.845E-03    2.94       2.5  T
   6    -52.2533084 -0.403313E-06  0.294E-03    2.94       7.2  T
   7    -52.2533086 -0.108120E-06  0.880E-04    2.94      24.2  T
   8    -52.2533086 -0.201143E-08  0.317E-04    2.94      67.3  T
     SCC iter.                  ...        0 min,  0.033 sec
     gradient                   ...        0 min,  0.002 sec
 * total energy  :   -51.8465229 Eh     change       -0.3671192E-04 Eh
   gradient norm :     0.0036056 Eh/α   predicted    -0.7176112E-04 (  95.47%)
   displ. norm   :     0.0880828 α      lambda       -0.5747065E-04
   maximum displ.:     0.0629694 α      in ANC's #1, #7, #3, ...

........................................................................
.............................. CYCLE   18 ..............................
........................................................................
   1    -52.2548099 -0.522548E+02  0.252E-02    2.94       0.0  T
   2    -52.2548108 -0.878192E-06  0.157E-02    2.95       1.4  T
   3    -52.2548110 -0.196644E-06  0.688E-03    2.95       3.1  T
   4    -52.2548112 -0.243036E-06  0.434E-03    2.95       4.9  T
   5    -52.2548113 -0.979489E-07  0.296E-03    2.95       7.2  T
   6    -52.2548114 -0.492365E-07  0.119E-03    2.95      17.9  T
   7    -52.2548114 -0.125265E-07  0.342E-04    2.95      62.4  T
   8    -52.2548114 -0.773291E-09  0.178E-04    2.95     119.7  T
     SCC iter.                  ...        0 min,  0.033 sec
     gradient                   ...        0 min,  0.002 sec
 * total energy  :   -51.8465539 Eh     change       -0.3093522E-04 Eh
   gradient norm :     0.0023207 Eh/α   predicted    -0.2896001E-04 (  -6.38%)
   displ. norm   :     0.0795892 α      lambda       -0.2156176E-04
   maximum displ.:     0.0672473 α      in ANC's #3, #5, #2, ...

........................................................................
.............................. CYCLE   19 ..............................
........................................................................
   1    -52.2537702 -0.522538E+02  0.223E-02    2.95       0.0  T
   2    -52.2537704 -0.193920E-06  0.132E-02    2.95       1.6  T
   3    -52.2537703  0.909078E-07  0.379E-03    2.95       5.6  T
   4    -52.2537705 -0.186542E-06  0.153E-03    2.95      13.9  T
   5    -52.2537705 -0.771975E-08  0.100E-03    2.95      21.3  T
   6    -52.2537705 -0.432777E-08  0.639E-04    2.95      33.3  T
   7    -52.2537705 -0.319993E-08  0.298E-04    2.95      71.5  T
     SCC iter.                  ...        0 min,  0.031 sec
     gradient                   ...        0 min,  0.002 sec
 * total energy  :   -51.8465670 Eh     change       -0.1311516E-04 Eh
   gradient norm :     0.0019399 Eh/α   predicted    -0.1085014E-04 ( -17.27%)
   displ. norm   :     0.0879226 α      lambda       -0.2097720E-04
   maximum displ.:     0.0546329 α      in ANC's #2, #3, #4, ...

........................................................................
.............................. CYCLE   20 ..............................
........................................................................
   1    -52.2543762 -0.522544E+02  0.203E-02    2.95       0.0  T
   2    -52.2543766 -0.411370E-06  0.121E-02    2.95       1.8  T
   3    -52.2543767 -0.378171E-07  0.392E-03    2.95       5.4  T
   4    -52.2543768 -0.103823E-06  0.229E-03    2.95       9.3  T
   5    -52.2543768 -0.229898E-07  0.170E-03    2.95      12.6  T
   6    -52.2543768 -0.179055E-07  0.726E-04    2.95      29.4  T
   7    -52.2543768 -0.385140E-08  0.372E-04    2.95      57.2  T
     SCC iter.                  ...        0 min,  0.031 sec
     gradient                   ...        0 min,  0.002 sec
 * total energy  :   -51.8465877 Eh     change       -0.2071524E-04 Eh
   gradient norm :     0.0016033 Eh/α   predicted    -0.1052573E-04 ( -49.19%)
   displ. norm   :     0.1229235 α      lambda       -0.1697646E-04
   maximum displ.:     0.0867115 α      in ANC's #3, #2, #5, ...
 * RMSD in coord.:     0.8833974 α      energy gain  -0.1093648E-01 Eh

generating ANC from model Hessian ...
Using Lindh-Hessian (1995)
 Shifting diagonal of input Hessian by    1.0122892635080909E-002
 Lowest  eigenvalues of input Hessian
    0.010000    0.000000    0.000000    0.000000    0.000000    0.000000
    0.000000    0.010804    0.012307    0.012563    0.013103    0.020408
    0.024156    0.024964    0.026155    0.029892    0.033380    0.034912
 Highest eigenvalues
    1.802311    1.884199    1.916933    1.920431    2.208051    2.221102


........................................................................
.............................. CYCLE   21 ..............................
........................................................................
   1    -52.2547081 -0.522547E+02  0.261E-02    2.95       0.0  T
   2    -52.2547084 -0.352375E-06  0.160E-02    2.95       1.3  T
   3    -52.2547086 -0.180437E-06  0.468E-03    2.95       4.6  T
   4    -52.2547087 -0.140736E-06  0.347E-03    2.95       6.1  T
   5    -52.2547088 -0.679462E-07  0.193E-03    2.95      11.1  T
   6    -52.2547088 -0.262128E-07  0.648E-04    2.95      32.9  T
   7    -52.2547088 -0.208102E-08  0.322E-04    2.95      66.2  T
     SCC iter.                  ...        0 min,  0.031 sec
     gradient                   ...        0 min,  0.003 sec
 * total energy  :   -51.8466076 Eh     change       -0.1986550E-04 Eh
   gradient norm :     0.0014097 Eh/α   predicted     0.0000000E+00 (-100.00%)
   displ. norm   :     0.0263908 α      lambda       -0.2043106E-05
   maximum displ.:     0.0150390 α      in ANC's #2, #1, #7, ...

........................................................................
.............................. CYCLE   22 ..............................
........................................................................
   1    -52.2545812 -0.522546E+02  0.883E-03    2.95       0.0  T
   2    -52.2545813 -0.536889E-07  0.531E-03    2.95       4.0  T
   3    -52.2545813  0.168693E-08  0.171E-03    2.95      12.5  T
   4    -52.2545813 -0.273677E-07  0.947E-04    2.95      22.5  T
   5    -52.2545813 -0.338471E-08  0.679E-04    2.95      31.4  T
     SCC iter.                  ...        0 min,  0.022 sec
     gradient                   ...        0 min,  0.003 sec
 * total energy  :   -51.8466163 Eh     change       -0.8763181E-05 Eh
   gradient norm :     0.0003800 Eh/α   predicted    -0.3951972E-05 ( -54.90%)
   displ. norm   :     0.0547055 α      lambda       -0.8155062E-05
   maximum displ.:     0.0319626 α      in ANC's #2, #4, #1, ...

........................................................................
.............................. CYCLE   23 ..............................
........................................................................
   1    -52.2544841 -0.522545E+02  0.145E-02    2.95       0.0  T
   2    -52.2544842 -0.990631E-07  0.876E-03    2.95       2.4  T
   3    -52.2544842 -0.265071E-07  0.266E-03    2.95       8.0  T
   4    -52.2544842 -0.551777E-07  0.176E-03    2.95      12.1  T
   5    -52.2544843 -0.136723E-07  0.107E-03    2.95      19.9  T
   6    -52.2544843 -0.772559E-08  0.450E-04    2.95      47.4  T
   7    -52.2544843 -0.118355E-08  0.230E-04    2.95      92.6  T
     SCC iter.                  ...        0 min,  0.029 sec
     gradient                   ...        0 min,  0.002 sec
 * total energy  :   -51.8466254 Eh     change       -0.9023986E-05 Eh
   gradient norm :     0.0008308 Eh/α   predicted    -0.4083828E-05 ( -54.74%)
   displ. norm   :     0.0736442 α      lambda       -0.7474715E-05
   maximum displ.:     0.0429601 α      in ANC's #2, #4, #1, ...

........................................................................
.............................. CYCLE   24 ..............................
........................................................................
   1    -52.2543781 -0.522544E+02  0.182E-02    2.95       0.0  T
   2    -52.2543782 -0.107927E-06  0.110E-02    2.95       1.9  T
   3    -52.2543783 -0.662050E-07  0.285E-03    2.95       7.5  T
   4    -52.2543783 -0.478904E-07  0.210E-03    2.95      10.2  T
   5    -52.2543784 -0.261857E-07  0.896E-04    2.95      23.8  T
   6    -52.2543784 -0.515255E-08  0.450E-04    2.95      47.4  T
     SCC iter.                  ...        0 min,  0.024 sec
     gradient                   ...        0 min,  0.002 sec
 * total energy  :   -51.8466340 Eh     change       -0.8623025E-05 Eh
   gradient norm :     0.0011174 Eh/α   predicted    -0.3747779E-05 ( -56.54%)
   displ. norm   :     0.0889319 α      lambda       -0.7664205E-05
   maximum displ.:     0.0541247 α      in ANC's #2, #4, #1, ...

........................................................................
.............................. CYCLE   25 ..............................
........................................................................
   1    -52.2543912 -0.522544E+02  0.217E-02    2.95       0.0  T
   2    -52.2543914 -0.152365E-06  0.132E-02    2.95       1.6  T
   3    -52.2543915 -0.132505E-06  0.316E-03    2.96       6.7  T
   4    -52.2543915 -0.348773E-07  0.250E-03    2.96       8.5  T
   5    -52.2543916 -0.390653E-07  0.110E-03    2.96      19.3  T
   6    -52.2543916 -0.837091E-08  0.489E-04    2.96      43.6  T
   7    -52.2543916 -0.689845E-09  0.215E-04    2.96      99.2  T
     SCC iter.                  ...        0 min,  0.028 sec
     gradient                   ...        0 min,  0.002 sec
 * total energy  :   -51.8466427 Eh     change       -0.8679562E-05 Eh
   gradient norm :     0.0008357 Eh/α   predicted    -0.3850092E-05 ( -55.64%)
   displ. norm   :     0.0798287 α      lambda       -0.5628955E-05
   maximum displ.:     0.0515981 α      in ANC's #2, #4, #1, ...

........................................................................
.............................. CYCLE   26 ..............................
........................................................................
   1    -52.2544926 -0.522545E+02  0.194E-02    2.96       0.0  T
   2    -52.2544928 -0.142574E-06  0.118E-02    2.96       1.8  T
   3    -52.2544929 -0.109209E-06  0.281E-03    2.96       7.6  T
   4    -52.2544929 -0.278457E-07  0.219E-03    2.96       9.7  T
   5    -52.2544929 -0.248406E-07  0.121E-03    2.96      17.7  T
   6    -52.2544929 -0.118323E-07  0.428E-04    2.96      49.8  T
   7    -52.2544929 -0.490736E-09  0.231E-04    2.96      92.2  T
     SCC iter.                  ...        0 min,  0.028 sec
     gradient                   ...        0 min,  0.002 sec
 * total energy  :   -51.8466490 Eh     change       -0.6309539E-05 Eh
   gradient norm :     0.0003590 Eh/α   predicted    -0.2827859E-05 ( -55.18%)
   displ. norm   :     0.0658943 α      lambda       -0.3956357E-05
   maximum displ.:     0.0443683 α      in ANC's #2, #4, #1, ...

........................................................................
.............................. CYCLE   27 ..............................
........................................................................
   1    -52.2545849 -0.522546E+02  0.164E-02    2.96       0.0  T
   2    -52.2545850 -0.938070E-07  0.100E-02    2.96       2.1  T
   3    -52.2545851 -0.603259E-07  0.234E-03    2.96       9.1  T
   4    -52.2545851 -0.274205E-07  0.179E-03    2.96      11.9  T
   5    -52.2545851 -0.174066E-07  0.951E-04    2.96      22.4  T
   6    -52.2545851 -0.685812E-08  0.355E-04    2.96      60.1  T
     SCC iter.                  ...        0 min,  0.024 sec
     gradient                   ...        0 min,  0.002 sec
 * total energy  :   -51.8466537 Eh     change       -0.4781680E-05 Eh
   gradient norm :     0.0003785 Eh/α   predicted    -0.1982262E-05 ( -58.54%)
   displ. norm   :     0.0744331 α      lambda       -0.4575556E-05
   maximum displ.:     0.0481650 α      in ANC's #2, #5, #4, ...

   *** GEOMETRY OPTIMIZATION CONVERGED AFTER 27 ITERATIONS ***

------------------------------------------------------------------------
 total energy gain   :        -0.0110025 Eh       -6.9042 kcal/mol
 total RMSD          :         0.8895964 a0        0.4708 Å
 total power (kW/mol):        -1.0698941 (step)  -29.2618 (real)
------------------------------------------------------------------------

 ANCopt (total)                0 d,  0 h,  0 min,  0.987 sec
 optimizer setup                ...        0 min,  0.000 sec (  0.013%)
 model hessian                  ...        0 min,  0.011 sec (  1.122%)
 ANC generation                 ...        0 min,  0.003 sec (  0.291%)
 coordinate transformation      ...        0 min,  0.001 sec (  0.070%)
 single point calculation       ...        0 min,  0.959 sec ( 97.158%)
 optimization log               ...        0 min,  0.004 sec (  0.385%)
 hessian update                 ...        0 min,  0.001 sec (  0.085%)
 rational function              ...        0 min,  0.005 sec (  0.457%)

================
 final structure:
================
22
 xtb: 6.5.1 (fef0646)
N            0.99640079201163       -0.08124693270706       -0.26819180116296
C            2.46864863829667       -0.11622827287613       -0.28821358769851
C            2.99470465218837        1.05862248896480        0.54523498643506
C            4.47843710989537        1.00922153005908        0.73625527230514
C            5.33075440266098        1.91122043754123        0.10443785144920
F            4.81278446240211        2.83812427144708       -0.71339712975907
C            6.70802627896765        1.89039906281453        0.29211260279856
F            7.49032957367586        2.78116138012677       -0.33387737606102
C            7.27302582131588        0.94021631667690        1.13311905848715
F            8.59819680383452        0.91016759680363        1.32632103934193
C            6.44972854316669        0.02113739626280        1.77343351000360
F            6.98580064031618       -0.89994599506783        2.58768056629930
C            5.07628681299269        0.06436171593728        1.56832158201055
F            4.30879799060251       -0.83513398837777        2.19611002299430
Cl           0.23771603806403        0.17083638754025        2.67261301108494
H            0.59459114939755       -0.91135463446760       -0.70939058308294
H            0.64013731751271        0.76124642485002       -0.72659462937334
H            0.66725680397585       -0.04816965565593        0.73355041021725
H            2.83194098643504       -0.04789453223592       -1.31420277619838
H            2.80125142039664       -1.05391229286022        0.15596639611721
H            2.50717838550168        1.00401269585059        1.52253075684822
H            2.72968537639141        2.00267859938554        0.07257081693777

 Bond Distances (Angstroems)
 ---------------------------
N1-C2=1.4728         N1-H16=1.0223        N1-H17=1.0232        N1-H18=1.0549        C2-N1=1.4728         C2-C3=1.5335         
C2-H19=1.0906        C2-H20=1.0896        C3-C2=1.5335         C3-C4=1.4968         C3-H21=1.0935        C3-H22=1.0885        
C4-C3=1.4968         C4-C5=1.3926         C4-C13=1.3937        C5-C4=1.3926         C5-F6=1.3403         C5-C7=1.3902         
F6-C5=1.3403         C7-C5=1.3902         C7-F8=1.3406         C7-C9=1.3890         F8-C7=1.3406         C9-C7=1.3890         
C9-F10=1.3395        C9-C11=1.3902        F10-C9=1.3395        C11-C9=1.3902        C11-F12=1.3412       C11-C13=1.3893       
F12-C11=1.3412       C13-C4=1.3937        C13-C11=1.3893       C13-F14=1.3387       F14-C13=1.3387       H16-N1=1.0223        
H17-N1=1.0232        H18-N1=1.0549        H19-C2=1.0906        H20-C2=1.0896        H21-C3=1.0935        H22-C3=1.0885        
 C  H  Rav=1.0905 sigma=0.0019  Rmin=1.0885  Rmax=1.0935     4
 C  C  Rav=1.4219 sigma=0.0546  Rmin=1.3890  Rmax=1.5335     8
 N  H  Rav=1.0335 sigma=0.0152  Rmin=1.0223  Rmax=1.0549     3
 N  C  Rav=1.4728 sigma=0.0000  Rmin=1.4728  Rmax=1.4728     1
 F  C  Rav=1.3401 sigma=0.0009  Rmin=1.3387  Rmax=1.3412     5

 selected bond angles (degree)
 --------------------
H16-N1-C2=111.58               H17-N1-C2=111.19               H17-N1-H16=109.78              H18-N1-C2=109.00               
H18-N1-H16=108.22              H18-N1-H17=106.92              C3-C2-N1=108.50                H19-C2-N1=110.14               
H19-C2-C3=110.43               H20-C2-N1=108.67               H20-C2-C3=109.45               H20-C2-H19=109.62              
C4-C3-C2=112.59                H21-C3-C2=107.13               H21-C3-C4=109.04               H22-C3-C2=110.18               
H22-C3-C4=108.99               H22-C3-H21=108.83              C5-C4-C3=121.83                C13-C4-C3=121.59               
C13-C4-C5=116.58               F6-C5-C4=119.23                C7-C5-C4=122.37                C7-C5-F6=118.40                
F8-C7-C5=120.34                C9-C7-C5=119.67                C9-C7-F8=119.99                F10-C9-C7=120.34               
C11-C9-C7=119.36               C11-C9-F10=120.31              

 selected dihedral angles (degree)
 ---------------------------------
C3-C2-N1-H16=187.29           C3-C2-N1-H17= 64.36           C3-C2-N1-H18=306.74           H19-C2-N1-H16= 66.31          
H19-C2-N1-H17=303.38          H19-C2-N1-H18=185.76          H20-C2-N1-H16=306.22          H20-C2-N1-H17=183.29          
H20-C2-N1-H18= 65.67          C4-C3-C2-N1=172.49            C4-C3-C2-H19=293.29           C4-C3-C2-H20= 54.06           
H21-C3-C2-N1= 52.63           H21-C3-C2-H19=173.43          H21-C3-C2-H20=294.20          H22-C3-C2-N1=294.39           
H22-C3-C2-H19= 55.19          H22-C3-C2-H20=175.96          C5-C4-C3-C2=109.13            C5-C4-C3-H21=227.88           
C5-C4-C3-H22=346.56           C13-C4-C3-C2=288.45           C13-C4-C3-H21= 47.21          C13-C4-C3-H22=165.89          
F6-C5-C4-C3=359.00            F6-C5-C4-C13=179.64           C7-C5-C4-C3=178.85            C7-C5-C4-C13=359.49           
F8-C7-C5-C4=180.20            F8-C7-C5-F6=  0.05            C9-C7-C5-C4=  0.21            C9-C7-C5-F6=180.06            
F10-C9-C7-C5=180.17           F10-C9-C7-F8=  0.18           C11-C9-C7-C5=  0.12           C11-C9-C7-F8=180.13           

 CMA Distance (Angstroems)
 ---------------------------
R(CMA):  5.4649
           -------------------------------------------------
          |                Final Singlepoint                |
           -------------------------------------------------

          ...................................................
          :                      SETUP                      :
          :.................................................:
          :  # basis functions                  73          :
          :  # atomic orbitals                  72          :
          :  # shells                           38          :
          :  # electrons                        86          :
          :  max. iterations                   250          :
          :  Hamiltonian                  GFN2-xTB          :
          :  restarted?                      false          :
          :  GBSA solvation                   true          :
          :  PC potential                    false          :
          :  electronic temp.          300.0000000     K    :
          :  accuracy                    1.0000000          :
          :  -> integral cutoff          0.2500000E+02      :
          :  -> integral neglect         0.1000000E-07      :
          :  -> SCF convergence          0.1000000E-05 Eh   :
          :  -> wf. convergence          0.1000000E-03 e    :
          :  Broyden damping             0.4000000          :
          ...................................................

 iter      E             dE          RMSdq      gap      omega  full diag
   1    -52.2545851 -0.522546E+02  0.180E-04    2.96       0.0  T
   2    -52.2545851 -0.116088E-09  0.119E-04    2.96     179.1  T
   3    -52.2545851 -0.670823E-10  0.815E-05    2.96     261.7  T

   *** convergence criteria satisfied after 3 iterations ***

         #    Occupation            Energy/Eh            Energy/eV
      -------------------------------------------------------------
         1        2.0000           -1.0074828             -27.4150
       ...           ...                  ...                  ...
        37        2.0000           -0.4833637             -13.1530
        38        2.0000           -0.4534364             -12.3386
        39        2.0000           -0.4510012             -12.2724
        40        2.0000           -0.4445910             -12.0979
        41        2.0000           -0.4027578             -10.9596
        42        2.0000           -0.3999713             -10.8838
        43        2.0000           -0.3997069             -10.8766 (HOMO)
        44                         -0.2909152              -7.9162 (LUMO)
        45                         -0.2887719              -7.8579
        46                         -0.1637421              -4.4556
        47                         -0.0492057              -1.3390
        48                         -0.0321492              -0.8748
       ...                                ...                  ...
        72                          0.5824246              15.8486
      -------------------------------------------------------------
                  HL-Gap            0.1087916 Eh            2.9604 eV
             Fermi-level           -0.3453110 Eh           -9.3964 eV

 SCC (total)                   0 d,  0 h,  0 min,  0.018 sec
 SCC setup                      ...        0 min,  0.000 sec (  1.362%)
 Dispersion                     ...        0 min,  0.000 sec (  0.878%)
 classical contributions        ...        0 min,  0.000 sec (  0.180%)
 integral evaluation            ...        0 min,  0.001 sec (  4.963%)
 iterations                     ...        0 min,  0.014 sec ( 74.686%)
 molecular gradient             ...        0 min,  0.002 sec ( 13.395%)
 printout                       ...        0 min,  0.001 sec (  3.631%)

         :::::::::::::::::::::::::::::::::::::::::::::::::::::
         ::                     SUMMARY                     ::
         :::::::::::::::::::::::::::::::::::::::::::::::::::::
         :: total energy             -51.846653746388 Eh    ::
         :: total w/o Gsasa/hb       -51.842449232772 Eh    ::
         :: gradient norm              0.000378970319 Eh/a0 ::
         :: HOMO-LUMO gap              2.960371464919 eV    ::
         ::.................................................::
         :: SCC energy               -52.254585145961 Eh    ::
         :: -> isotropic ES            0.181445153420 Eh    ::
         :: -> anisotropic ES         -0.030582800372 Eh    ::
         :: -> anisotropic XC         -0.025111800286 Eh    ::
         :: -> dispersion             -0.018668265031 Eh    ::
         :: -> Gsolv                  -0.082256372518 Eh    ::
         ::    -> Gelec               -0.078051858902 Eh    ::
         ::    -> Gsasa                0.004537949807 Eh    ::
         ::    -> Ghb                 -0.009823223121 Eh    ::
         ::    -> Gshift               0.001080759698 Eh    ::
         :: repulsion energy           0.407887944854 Eh    ::
         :: add. restraining           0.000000000000 Eh    ::
         :: total charge              -0.000000000000 e     ::
         :::::::::::::::::::::::::::::::::::::::::::::::::::::

           -------------------------------------------------
          |                Property Printout                |
           -------------------------------------------------

    * Orbital Energies and Occupations

         #    Occupation            Energy/Eh            Energy/eV
      -------------------------------------------------------------
         1        2.0000           -1.0074828             -27.4150
       ...           ...                  ...                  ...
        31        2.0000           -0.5271955             -14.3457
        32        2.0000           -0.5199650             -14.1490
        33        2.0000           -0.5063251             -13.7778
        34        2.0000           -0.5006275             -13.6228
        35        2.0000           -0.4938204             -13.4375
        36        2.0000           -0.4898243             -13.3288
        37        2.0000           -0.4833637             -13.1530
        38        2.0000           -0.4534364             -12.3386
        39        2.0000           -0.4510012             -12.2724
        40        2.0000           -0.4445910             -12.0979
        41        2.0000           -0.4027578             -10.9596
        42        2.0000           -0.3999713             -10.8838
        43        2.0000           -0.3997069             -10.8766 (HOMO)
        44                         -0.2909152              -7.9162 (LUMO)
        45                         -0.2887719              -7.8579
        46                         -0.1637421              -4.4556
        47                         -0.0492057              -1.3390
        48                         -0.0321492              -0.8748
        49                         -0.0125594              -0.3418
        50                          0.0157492               0.4286
        51                          0.0480680               1.3080
        52                          0.0745254               2.0279
        53                          0.0791441               2.1536
        54                          0.0861967               2.3455
       ...                                ...                  ...
        72                          0.5824246              15.8486
      -------------------------------------------------------------
                  HL-Gap            0.1087916 Eh            2.9604 eV
             Fermi-level           -0.3453110 Eh           -9.3964 eV

     #   Z          covCN         q      C6AA      α(0)
     1   7 N        3.485    -0.173    24.736     7.387
     2   6 C        3.732    -0.025    21.109     6.558
     3   6 C        3.809    -0.084    22.089     6.690
     4   6 C        2.963     0.006    27.896     8.663
     5   6 C        2.789     0.156    24.602     8.125
     6   9 F        0.787    -0.180    11.026     3.922
     7   6 C        2.774     0.147    24.783     8.153
     8   9 F        0.786    -0.187    11.101     3.936
     9   6 C        2.779     0.148    24.761     8.150
    10   9 F        0.786    -0.188    11.112     3.938
    11   6 C        2.775     0.147    24.795     8.155
    12   9 F        0.786    -0.191    11.141     3.943
    13   6 C        2.788     0.157    24.584     8.122
    14   9 F        0.787    -0.182    11.052     3.927
    15  17 Cl       0.054    -0.942   124.654    16.992
    16   1 H        0.859     0.313     0.676     1.288
    17   1 H        0.859     0.306     0.696     1.306
    18   1 H        0.910     0.304     0.698     1.307
    19   1 H        0.924     0.121     1.603     1.980
    20   1 H        0.925     0.111     1.684     2.029
    21   1 H        0.924     0.121     1.603     1.980
    22   1 H        0.925     0.112     1.680     2.027

 Mol. C6AA /au·bohr⁶  :       6296.043820
 Mol. C8AA /au·bohr⁸  :     160593.629132
 Mol. α(0) /au        :        118.579404


Wiberg/Mayer (AO) data.
largest (>0.10) Wiberg bond orders for each atom

 ---------------------------------------------------------------------------
     #   Z sym  total        # sym  WBO       # sym  WBO       # sym  WBO
 ---------------------------------------------------------------------------
     1   7 N    3.637 --     2 C    0.982    17 H    0.892    16 H    0.888
                            18 H    0.823
     2   6 C    3.932 --     3 C    0.983     1 N    0.982    20 H    0.966
                            19 H    0.964
     3   6 C    3.969 --     4 C    1.020     2 C    0.983    22 H    0.963
                            21 H    0.938
     4   6 C    3.975 --     5 C    1.357    13 C    1.348     3 C    1.020
     5   6 C    3.898 --     4 C    1.357     7 C    1.344     6 F    0.990
     6   9 F    1.131 --     5 C    0.990
     7   6 C    3.894 --     9 C    1.345     5 C    1.344     8 F    0.985
     8   9 F    1.124 --     7 C    0.985
     9   6 C    3.893 --     7 C    1.345    11 C    1.340    10 F    0.985
    10   9 F    1.124 --     9 C    0.985
    11   6 C    3.892 --    13 C    1.351     9 C    1.340    12 F    0.983
    12   9 F    1.120 --    11 C    0.983
    13   6 C    3.895 --    11 C    1.351     4 C    1.348    14 F    0.990
    14   9 F    1.134 --    13 C    0.990
    15  17 Cl   0.113
    16   1 H    0.902 --     1 N    0.888
    17   1 H    0.906 --     1 N    0.892
    18   1 H    0.908 --     1 N    0.823
    19   1 H    0.985 --     2 C    0.964
    20   1 H    0.988 --     2 C    0.966
    21   1 H    0.984 --     3 C    0.938
    22   1 H    0.987 --     3 C    0.963
 ---------------------------------------------------------------------------

Topologies differ in total number of bonds
Writing topology from bond orders to xtbtopo.mol

molecular dipole:
                 x           y           z       tot (Debye)
 q only:       -0.348      -0.411      -5.467
   full:       -0.507      -0.407      -4.639      11.907
molecular quadrupole (traceless):
                xx          xy          yy          xz          yz          zz
 q only:      -18.350      -6.051      25.908     -12.839       5.974      -7.557
  q+dip:      -20.795      -6.336      21.039     -12.310       8.347      -0.244
   full:      -21.124      -6.293      21.141     -12.360       9.461      -0.018

           -------------------------------------------------
          |                Geometry Summary                 |
           -------------------------------------------------

      molecular mass/u    :      247.5931290
   center of mass at/Å    :        4.5910871       0.7235437       1.0394192
  moments of inertia/u·Å² :        0.6374887E+03   0.1930356E+04   0.2361808E+04
rotational constants/cm⁻¹ :        0.2644381E-01   0.8732914E-02   0.7137596E-02

 * 18 selected distances

     #   Z          #   Z                                           value/Å
     1   7 N        2   6 C                                       1.4727996
     2   6 C        3   6 C                                       1.5335078 (max)
     4   6 C        5   6 C                                       1.3925661
     5   6 C        6   9 F                                       1.3402604
     5   6 C        7   6 C                                       1.3901559
     7   6 C        9   6 C                                       1.3890155
     9   6 C       10   9 F                                       1.3395180
     9   6 C       11   6 C                                       1.3901537
     4   6 C       13   6 C                                       1.3937428
    11   6 C       13   6 C                                       1.3893458
    13   6 C       14   9 F                                       1.3387495
     1   7 N       16   1 H                                       1.0223436 (min)
     1   7 N       17   1 H                                       1.0231579
     1   7 N       18   1 H                                       1.0549491
     2   6 C       19   1 H                                       1.0905526
     2   6 C       20   1 H                                       1.0895742
     3   6 C       21   1 H                                       1.0935133
     3   6 C       22   1 H                                       1.0885260

 * 5 distinct bonds (by element types)

   Z      Z             #   av. dist./Å        max./Å        min./Å
   1 H    6 C           4     1.0905415     1.0935133     1.0885260
   6 C    6 C           7     1.4112125     1.5335078     1.3890155
   1 H    7 N           3     1.0334835     1.0549491     1.0223436
   6 C    7 N           1     1.4727996     1.4727996     1.4727996
   6 C    9 F           3     1.3395093     1.3402604     1.3387495


optimized geometry written to: xtbopt.xyz


           -------------------------------------------------
          | TOTAL ENERGY              -51.846653746388 Eh   |
          | GRADIENT NORM               0.000378970319 Eh/α |
          | HOMO-LUMO GAP               2.960371464919 eV   |
           -------------------------------------------------

------------------------------------------------------------------------
 * finished run on 2023/01/24 at 15:27:01.839     
------------------------------------------------------------------------
 total:
 * wall-time:     0 d,  0 h,  0 min,  1.091 sec
 *  cpu-time:     0 d,  0 h,  1 min, 40.146 sec
 * ratio c/w:    91.780 speedup
 SCF:
 * wall-time:     0 d,  0 h,  0 min,  0.067 sec
 *  cpu-time:     0 d,  0 h,  0 min,  9.205 sec
 * ratio c/w:   136.771 speedup
 ANC optimizer:
 * wall-time:     0 d,  0 h,  0 min,  1.007 sec
 *  cpu-time:     0 d,  0 h,  1 min, 28.876 sec
 * ratio c/w:    88.262 speedup

