18
 energy: -23.663101274256 gnorm: 0.000673791748 xtb: 6.5.1 (fef0646)
N            2.87957696701416       -0.69353765102402       -1.21037359810657
C            2.50642564088888        0.09977119657026       -0.00517667182344
C            3.00062864801735       -0.62531209047849        1.24901537249366
C            4.49165732381649       -0.71595931274784        1.27021394641743
C            5.38328782390648        0.03638950664946        1.96314382442643
C            6.73183304826855       -0.29968919362438        1.68631824304390
C            6.85862418887004       -1.29367738972159        0.77822781068201
S            5.32765512779607       -1.88064153733238        0.25567126903637
H            2.77068289870413       -0.15774780992967       -2.07719396350932
H            2.30984409223755       -1.54529409055824       -1.27096633847872
H            3.87937521697684       -0.99429669003051       -1.09004472193993
H            1.42446884038778        0.22986732737092        0.02396492649770
H            2.98096933426279        1.07956895860659       -0.07615895074763
H            2.55746453749597       -1.62206302037377        1.29852289945995
H            2.66665485005345       -0.06896518494471        2.12501391101558
H            5.09902292223221        0.80538931658278        2.65832154095016
H            7.57112553701816        0.18362697702212        2.15098562134582
H            7.74586300205286       -1.74747931203644        0.38497487923670
