      -----------------------------------------------------------      
     |                   =====================                   |     
     |                           x T B                           |     
     |                   =====================                   |     
     |                         S. Grimme                         |     
     |          Mulliken Center for Theoretical Chemistry        |     
     |                    University of Bonn                     |     
      -----------------------------------------------------------      

   * xtb version 6.5.1 (fef0646) compiled by 'conda@b96dff2e9fd6' on 2023-01-04

   xtb is free software: you can redistribute it and/or modify it under
   the terms of the GNU Lesser General Public License as published by
   the Free Software Foundation, either version 3 of the License, or
   (at your option) any later version.
   
   xtb is distributed in the hope that it will be useful,
   but WITHOUT ANY WARRANTY; without even the implied warranty of
   MERCHANTABILITY or FITNESS FOR A PARTICULAR PURPOSE.  See the
   GNU Lesser General Public License for more details.
   
   Cite this work as:
   * C. Bannwarth, E. Caldeweyher, S. Ehlert, A. Hansen, P. Pracht,
     J. Seibert, S. Spicher, S. Grimme, WIREs Comput. Mol. Sci., 2020, 11,
     e01493. DOI: 10.1002/wcms.1493
   
   for GFN2-xTB:
   * C. Bannwarth, S. Ehlert and S. Grimme., J. Chem. Theory Comput., 2019,
     15, 1652-1671. DOI: 10.1021/acs.jctc.8b01176
   for GFN1-xTB:
   * S. Grimme, C. Bannwarth, P. Shushkov, J. Chem. Theory Comput., 2017,
     13, 1989-2009. DOI: 10.1021/acs.jctc.7b00118
   for GFN0-xTB:
   * P. Pracht, E. Caldeweyher, S. Ehlert, S. Grimme, ChemRxiv, 2019, preprint.
     DOI: 10.26434/chemrxiv.8326202.v1
   for GFN-FF:
   * S. Spicher and S. Grimme, Angew. Chem. Int. Ed., 2020, 59, 15665-15673.
     DOI: 10.1002/anie.202004239
   
   for ALPB and GBSA implicit solvation:
   * S. Ehlert, M. Stahn, S. Spicher, S. Grimme, J. Chem. Theory Comput.,
     2021, 17, 4250-4261. DOI: 10.1021/acs.jctc.1c00471
   
   for DFT-D4:
   * E. Caldeweyher, C. Bannwarth and S. Grimme, J. Chem. Phys., 2017,
     147, 034112. DOI: 10.1063/1.4993215
   * E. Caldeweyher, S. Ehlert, A. Hansen, H. Neugebauer, S. Spicher,
     C. Bannwarth and S. Grimme, J. Chem. Phys., 2019, 150, 154122.
     DOI: 10.1063/1.5090222
   * E. Caldeweyher, J.-M. Mewes, S. Ehlert and S. Grimme, Phys. Chem. Chem. Phys.
     2020, 22, 8499-8512. DOI: 10.1039/D0CP00502A
   
   for sTDA-xTB:
   * S. Grimme and C. Bannwarth, J. Chem. Phys., 2016, 145, 054103.
     DOI: 10.1063/1.4959605
   
   in the mass-spec context:
   * V. Asgeirsson, C. Bauer and S. Grimme, Chem. Sci., 2017, 8, 4879.
     DOI: 10.1039/c7sc00601b
   * J. Koopman and S. Grimme, ACS Omega 2019, 4, 12, 15120-15133.
     DOI: 10.1021/acsomega.9b02011
   
   for metadynamics refer to:
   * S. Grimme, J. Chem. Theory Comput., 2019, 155, 2847-2862
     DOI: 10.1021/acs.jctc.9b00143
   
   for SPH calculations refer to:
   * S. Spicher and S. Grimme, J. Chem. Theory Comput., 2021, 17, 1701-1714
     DOI: 10.1021/acs.jctc.0c01306
   
   with help from (in alphabetical order)
   P. Atkinson, C. Bannwarth, F. Bohle, G. Brandenburg, E. Caldeweyher
   M. Checinski, S. Dohm, S. Ehlert, S. Ehrlich, I. Gerasimov, C. Hölzer
   A. Katbashev, J. Koopman, C. Lavigne, S. Lehtola, F. März, M. Müller,
   F. Musil, H. Neugebauer, J. Pisarek, C. Plett, P. Pracht, F. Pultar,
   J. Seibert, P. Shushkov, S. Spicher, M. Stahn, M. Steiner, T. Strunk,
   J. Stückrath, T. Rose, and J. Unsleber
   
 * started run on 2023/01/23 at 13:58:59.614     

           -------------------------------------------------
          |                Calculation Setup                |
           -------------------------------------------------

          program call               : xtb tmpcoord --gff --opt
          hostname                   : gpg-woodward
          coordinate file            : tmpcoord
          omp threads                :                   128

   ID    Z sym.   atoms
    1    7 n      1, 24, 26
    2    6 c      2-21, 23, 27
    3   16 s      22, 25, 28, 29
    4    1 h      30-49
constraining bond 1 2 to    1.4893200 Å, actual value:    1.4893185 Å
constraining bond 1 30 to    1.0238000 Å, actual value:    1.0238008 Å
constraining bond 1 31 to    1.0256900 Å, actual value:    1.0256912 Å
constraining bond 1 32 to    1.0607200 Å, actual value:    1.0607196 Å
constraining bond 2 3 to    1.5326400 Å, actual value:    1.5326392 Å
constraining bond 2 33 to    1.0899800 Å, actual value:    1.0899848 Å
constraining bond 2 34 to    1.0907000 Å, actual value:    1.0907026 Å
constraining bond 3 4 to    1.4923800 Å, actual value:    1.4923804 Å
constraining bond 3 35 to    1.0918600 Å, actual value:    1.0918556 Å
constraining bond 3 36 to    1.0897800 Å, actual value:    1.0897775 Å
constraining bond 4 5 to    1.3591400 Å, actual value:    1.3591391 Å
constraining bond 4 29 to    1.7644900 Å, actual value:    1.7644868 Å
constraining bond 5 6 to    1.4070800 Å, actual value:    1.4070836 Å
constraining bond 5 37 to    1.0752500 Å, actual value:    1.0752509 Å
constraining bond 6 7 to    1.3703700 Å, actual value:    1.3703724 Å
constraining bond 6 38 to    1.0741500 Å, actual value:    1.0741480 Å
constraining bond 7 8 to    1.4163000 Å, actual value:    1.4162964 Å
constraining bond 7 29 to    1.7518900 Å, actual value:    1.7518876 Å
constraining bond 8 9 to    1.3766500 Å, actual value:    1.3766458 Å
constraining bond 8 28 to    1.7411100 Å, actual value:    1.7411059 Å
constraining bond 9 10 to    1.3996600 Å, actual value:    1.3996587 Å
constraining bond 9 39 to    1.0781100 Å, actual value:    1.0781085 Å
constraining bond 10 11 to    1.4937600 Å, actual value:    1.4937629 Å
constraining bond 10 12 to    1.3893000 Å, actual value:    1.3892991 Å
constraining bond 11 40 to    1.0876900 Å, actual value:    1.0876857 Å
constraining bond 11 41 to    1.0880700 Å, actual value:    1.0880660 Å
constraining bond 11 42 to    1.0901900 Å, actual value:    1.0901865 Å
constraining bond 12 13 to    1.4380400 Å, actual value:    1.4380389 Å
constraining bond 12 28 to    1.7381900 Å, actual value:    1.7381950 Å
constraining bond 13 14 to    1.3874500 Å, actual value:    1.3874453 Å
constraining bond 13 27 to    1.4194700 Å, actual value:    1.4194733 Å
constraining bond 14 15 to    1.3959700 Å, actual value:    1.3959657 Å
constraining bond 14 43 to    1.0756600 Å, actual value:    1.0756610 Å
constraining bond 15 16 to    1.3869200 Å, actual value:    1.3869155 Å
constraining bond 15 44 to    1.0767700 Å, actual value:    1.0767674 Å
constraining bond 16 17 to    1.4373800 Å, actual value:    1.4373751 Å
constraining bond 16 23 to    1.4204400 Å, actual value:    1.4204386 Å
constraining bond 17 18 to    1.3825000 Å, actual value:    1.3824983 Å
constraining bond 17 22 to    1.7443800 Å, actual value:    1.7443828 Å
constraining bond 18 19 to    1.4932000 Å, actual value:    1.4932002 Å
constraining bond 18 20 to    1.4110700 Å, actual value:    1.4110673 Å
constraining bond 19 45 to    1.0880700 Å, actual value:    1.0880713 Å
constraining bond 19 46 to    1.0906400 Å, actual value:    1.0906442 Å
constraining bond 19 47 to    1.0876300 Å, actual value:    1.0876326 Å
constraining bond 20 21 to    1.3598700 Å, actual value:    1.3598714 Å
constraining bond 20 48 to    1.0755000 Å, actual value:    1.0754957 Å
constraining bond 21 22 to    1.7095900 Å, actual value:    1.7095872 Å
constraining bond 21 49 to    1.0719000 Å, actual value:    1.0718951 Å
constraining bond 23 24 to    1.3307500 Å, actual value:    1.3307490 Å
constraining bond 23 25 to    2.3992700 Å, actual value:    2.3992705 Å
constraining bond 23 27 to    1.4341900 Å, actual value:    1.4341875 Å
constraining bond 24 25 to    1.6006500 Å, actual value:    1.6006453 Å
constraining bond 25 26 to    1.6133700 Å, actual value:    1.6133687 Å
constraining bond 25 27 to    2.4022300 Å, actual value:    2.4022330 Å
constraining bond 26 27 to    1.3313600 Å, actual value:    1.3313625 Å
          charge from .CHRG file: 1

          ==================== Thresholds ====================
          CN  :   150.00000
          rep :   500.00000
          disp:  2500.00000
          HB1 :   250.00000
          HB2 :   450.00000

          Pauling EN used:
          Z : 1  EN :  2.20
          Z : 6  EN :  2.55
          Z : 7  EN :  3.04
          Z :16  EN :  2.58
          electric field strengths (au): 0.000

           ------------------------------------------------- 
          |           Force Field Initialization            |
           ------------------------------------------------- 

          distances ...
          ----------------------------------------
          generating topology and atomic info file ...
          pair mat ...
          computing topology distances matrix with Floyd-Warshall algo ...
          making topology EEQ charges ...
          #fragments for EEQ constrain: 1
          ----------------------------------------
          generating topology and atomic info file ...
          pair mat ...
          computing topology distances matrix with Floyd-Warshall algo ...
          making topology EEQ charges ...
          #fragments for EEQ constrain: 1
          rings ...
          # BATM   472
          # H in HB   20
          doing iterative Hueckel for 1 subsystem(s) ...

  atom   neighbors  erfCN metchar sp-hybrid imet pi  qest     coordinates
    1  n       4    3.49   0.00         3    0    0  -0.268  -14.916515    2.388989    2.544844
    2  c       4    3.49   0.00         3    0    0  -0.003  -15.930361   -0.234883    2.453846
    3  c       4    3.50   0.00         3    0    0  -0.040  -15.099028   -1.473211   -0.028854
    4  c       3    2.83   0.00         2    0    1   0.009  -12.287036   -1.635959   -0.169166
    5  c       3    2.95   0.00         2    0    1  -0.022  -10.746364   -3.626615    0.341030
    6  c       3    2.96   0.00         2    0    1  -0.019   -8.156035   -3.042730    0.201147
    7  c       3    2.86   0.00         2    0    1   0.013   -7.654429   -0.573133   -0.395223
    8  c       3    2.86   0.00         2    0    1   0.011   -5.296674    0.666925   -0.652960
    9  c       3    2.96   0.00         2    0    1  -0.019   -4.832138    3.129785   -1.350268
   10  c       3    2.94   0.00         2    0    1   0.005   -2.265940    3.767978   -1.406958
   11  c       4    3.49   0.00         3    0    0  -0.063   -1.416102    6.337910   -2.207858
   12  c       3    2.84   0.00         2    0    1   0.012   -0.724835    1.755132   -0.724212
   13  c       3    2.84   0.00         2    0    1   0.010    1.975612    1.586856   -0.471080
   14  c       3    2.82   0.00         2    0    1  -0.018    3.628868    3.617483   -0.338373
   15  c       3    2.82   0.00         2    0    1  -0.018    6.238587    3.336446   -0.074953
   16  c       3    2.84   0.00         2    0    1   0.010    7.428627    1.007027    0.088371
   17  c       3    2.84   0.00         2    0    1   0.012   10.110124    0.674090    0.365344
   18  c       3    2.95   0.00         2    0    1   0.005   11.897530    2.252958    1.431990
   19  c       4    3.49   0.00         3    0    0  -0.063   11.400172    4.717683    2.712607
   20  c       3    2.97   0.00         2    0    1  -0.020   14.349432    1.213569    1.296958
   21  c       3    2.83   0.00         2    0    1  -0.010   14.422667   -1.086580    0.153392
   22  s       2    2.28   0.00         3    0    1  -0.007   11.492029   -2.103440   -0.749088
   23  c       3    3.17   0.00         2    0    1   0.064    5.804058   -1.125235   -0.050830
   24  n       2    1.97   0.00         2    0    1  -0.200    6.466559   -3.547506    0.082103
   25  s       2    2.67   0.00         3    0    1   0.187    3.994311   -5.282210   -0.085504
   26  n       2    2.04   0.00         2    0    1  -0.199    1.931885   -3.049514   -0.323832
   27  c       3    3.17   0.00         2    0    1   0.064    3.120429   -0.832291   -0.290866
   28  s       2    2.37   0.00         3    0    1  -0.007   -2.483875   -0.947232   -0.097842
   29  s       2    2.31   0.00         3    0    1  -0.020  -10.483263    1.076235   -0.882331
   30  h       1    0.98   0.00         0    0    0   0.128  -14.999831    3.153423    4.320167
   31  h       1    0.98   0.00         0    0    0   0.128  -15.879853    3.532566    1.311505
   32  h       1    1.00   0.02         0    0    0   0.128  -13.021004    2.300259    1.899039
   33  h       1    0.97   0.00         0    0    0   0.063  -17.983607   -0.191328    2.611790
   34  h       1    0.97   0.00         0    0    0   0.063  -15.151722   -1.287740    4.045532
   35  h       1    0.97   0.00         0    0    0   0.067  -15.847179   -0.402487   -1.626058
   36  h       1    0.97   0.00         0    0    0   0.067  -15.889904   -3.372853   -0.112065
   37  h       1    0.98   0.00         0    0    0   0.073  -11.443161   -5.479531    0.799195
   38  h       1    0.98   0.00         0    0    0   0.073   -6.667708   -4.385221    0.521888
   39  h       1    0.97   0.00         0    0    0   0.073   -6.313382    4.442870   -1.832385
   40  h       1    0.97   0.00         0    0    0   0.072   -2.970121    7.321872   -3.125260
   41  h       1    0.97   0.00         0    0    0   0.072    0.152013    6.213831   -3.532002
   42  h       1    0.97   0.00         0    0    0   0.072   -0.824302    7.461010   -0.585313
   43  h       1    0.97   0.00         0    0    0   0.075    2.901819    5.514606   -0.403267
   44  h       1    0.97   0.00         0    0    0   0.075    7.369201    5.028076   -0.052842
   45  h       1    0.97   0.00         0    0    0   0.072    9.589870    4.696563    3.687359
   46  h       1    0.97   0.00         0    0    0   0.072   11.397357    6.263885    1.349871
   47  h       1    0.97   0.00         0    0    0   0.072   12.886810    5.093299    4.081252
   48  h       1    0.98   0.00         0    0    0   0.073   15.993578    2.156692    2.030387
   49  h       1    0.98   0.00         0    0    0   0.075   16.039776   -2.256115   -0.193239

          #atoms :   49
          #bonds :   53
          #angl  :   90
          #tors  :   144
          #nmol  :   1
          #optfrag :   1
           ------------------------------------------------- 
          |                   G F N - F F                   |
          |          A general generic force-field          |
          |                  Version 1.0.3                  | 
           ------------------------------------------------- 
          Number of HB bonds (bound hydrogen)     2124
          Number of HB bonds (unbound hydrogen)   137
          Number of XB bonds                      112

 E+G (total)                   0 d,  0 h,  0 min,  0.032 sec
 distance/D3 list               ...        0 min,  0.000 sec (  0.117%)
 non bonded repulsion           ...        0 min,  0.005 sec ( 14.395%)
 dCN                            ...        0 min,  0.000 sec (  0.303%)
 EEQ energy and q               ...        0 min,  0.008 sec ( 25.816%)
 D3                             ...        0 min,  0.007 sec ( 20.711%)
 EEQ gradient                   ...        0 min,  0.003 sec (  9.835%)
 bonds                          ...        0 min,  0.002 sec (  6.607%)
 bend and torsion               ...        0 min,  0.002 sec (  6.741%)
 bonded ATM                     ...        0 min,  0.001 sec (  3.420%)
 HB/XB (incl list setup)        ...        0 min,  0.003 sec ( 10.243%)

         :::::::::::::::::::::::::::::::::::::::::::::::::::::
         ::                     SUMMARY                     ::
         :::::::::::::::::::::::::::::::::::::::::::::::::::::
         :: total energy              -8.162870811765 Eh    ::
         :: gradient norm              0.070311022003 Eh/a0 ::
         ::.................................................::
         :: bond energy              -10.055137853203 Eh    ::
         :: angle energy               0.026009227195 Eh    ::
         :: torsion energy             0.007004624458 Eh    ::
         :: repulsion energy           0.674892941322 Eh    ::
         :: electrostat energy         1.244427217694 Eh    ::
         :: dispersion energy         -0.050572432352 Eh    ::
         :: HB energy                 -0.001868635556 Eh    ::
         :: XB energy                 -0.007576408726 Eh    ::
         :: bonded atm energy         -0.000049492630 Eh    ::
         :: external energy            0.000000000000 Eh    ::
         :: add. restraining           0.000000000034 Eh    ::
         :: total charge               1.000000000000 e     ::
         :::::::::::::::::::::::::::::::::::::::::::::::::::::

      ----------------------------------------------------------- 
     |                   =====================                   |
     |                        A N C O P T                        |
     |                   =====================                   |
     |               Approximate Normal Coordinate               |
     |                Rational Function Optimizer                |
      ----------------------------------------------------------- 

          ...................................................
          :                      SETUP                      :
          :.................................................:
          :   optimization level            normal          :
          :   max. optcycles                   200          :
          :   ANC micro-cycles                  20          :
          :   degrees of freedom               141          :
          :.................................................:
          :   RF solver                   davidson          :
          :   write xtbopt.log                true          :
          :   linear?                        false          :
          :   energy convergence         0.5000000E-05 Eh   :
          :   grad. convergence          0.1000000E-02 Eh/α :
          :   maximium RF displ.         1.0000000          :
          :   Hlow (freq-cutoff)         0.1000000E-01      :
          :   Hmax (freq-cutoff)         5.0000000          :
          :   S6 in model hess.         20.0000000          :
          ...................................................

generating ANC from model Hessian ...
Using GFN-FF Lindh-Hessian
 Shifting diagonal of input Hessian by    9.7834360848854055E-003
 Lowest  eigenvalues of input Hessian
    0.000000    0.000000    0.000000    0.000000    0.000000    0.000000
    0.010000    0.010170    0.010457    0.010633    0.011077    0.011746
    0.012388    0.013691    0.015045    0.016856    0.017009    0.017539
 Highest eigenvalues
    2.677438    2.706150    2.744130    2.802095    3.037877    3.066241


........................................................................
.............................. CYCLE    1 ..............................
........................................................................
 * total energy  :    -8.1628708 Eh     change       -0.3552714E-14 Eh
   gradient norm :     0.0703110 Eh/α   predicted     0.0000000E+00 (-100.00%)
   displ. norm   :     0.2791798 α      lambda       -0.6511957E-02
   maximum displ.:     0.1184291 α      in ANC's #6, #4, #20, ...

........................................................................
.............................. CYCLE    2 ..............................
........................................................................
 * total energy  :    -8.1680689 Eh     change       -0.5198068E-02 Eh
   gradient norm :     0.0404990 Eh/α   predicted    -0.3515826E-02 ( -32.36%)
   displ. norm   :     0.4379346 α      lambda       -0.5824397E-02
   maximum displ.:     0.1963219 α      in ANC's #6, #4, #5, ...

........................................................................
.............................. CYCLE    3 ..............................
........................................................................
 * total energy  :    -8.1717367 Eh     change       -0.3667856E-02 Eh
   gradient norm :     0.0170564 Eh/α   predicted    -0.3470818E-02 (  -5.37%)
   displ. norm   :     0.3124875 α      lambda       -0.1344403E-02
   maximum displ.:     0.1573963 α      in ANC's #6, #4, #5, ...

........................................................................
.............................. CYCLE    4 ..............................
........................................................................
 * total energy  :    -8.1727565 Eh     change       -0.1019735E-02 Eh
   gradient norm :     0.0134686 Eh/α   predicted    -0.7380249E-03 ( -27.63%)
   displ. norm   :     0.4015284 α      lambda       -0.1166888E-02
   maximum displ.:     0.2063583 α      in ANC's #6, #4, #5, ...

........................................................................
.............................. CYCLE    5 ..............................
........................................................................
 * total energy  :    -8.1736037 Eh     change       -0.8472754E-03 Eh
   gradient norm :     0.0104393 Eh/α   predicted    -0.6775245E-03 ( -20.03%)
   displ. norm   :     0.3619494 α      lambda       -0.6880410E-03
   maximum displ.:     0.1912591 α      in ANC's #4, #6, #5, ...

........................................................................
.............................. CYCLE    6 ..............................
........................................................................
 * total energy  :    -8.1741051 Eh     change       -0.5013422E-03 Eh
   gradient norm :     0.0094941 Eh/α   predicted    -0.3891047E-03 ( -22.39%)
   displ. norm   :     0.3120465 α      lambda       -0.4223260E-03
   maximum displ.:     0.1731724 α      in ANC's #4, #6, #5, ...

........................................................................
.............................. CYCLE    7 ..............................
........................................................................
 * total energy  :    -8.1744103 Eh     change       -0.3052166E-03 Eh
   gradient norm :     0.0076499 Eh/α   predicted    -0.2317650E-03 ( -24.07%)
   displ. norm   :     0.2525013 α      lambda       -0.2530116E-03
   maximum displ.:     0.1486266 α      in ANC's #4, #6, #5, ...

........................................................................
.............................. CYCLE    8 ..............................
........................................................................
 * total energy  :    -8.1745960 Eh     change       -0.1857374E-03 Eh
   gradient norm :     0.0057136 Eh/α   predicted    -0.1345720E-03 ( -27.55%)
   displ. norm   :     0.2205433 α      lambda       -0.1779274E-03
   maximum displ.:     0.1326300 α      in ANC's #4, #6, #5, ...

........................................................................
.............................. CYCLE    9 ..............................
........................................................................
 * total energy  :    -8.1747283 Eh     change       -0.1322327E-03 Eh
   gradient norm :     0.0050048 Eh/α   predicted    -0.9329335E-04 ( -29.45%)
   displ. norm   :     0.2109671 α      lambda       -0.1412696E-03
   maximum displ.:     0.1245909 α      in ANC's #4, #6, #5, ...

........................................................................
.............................. CYCLE   10 ..............................
........................................................................
 * total energy  :    -8.1748327 Eh     change       -0.1043751E-03 Eh
   gradient norm :     0.0052542 Eh/α   predicted    -0.7378033E-04 ( -29.31%)
   displ. norm   :     0.2053508 α      lambda       -0.1140709E-03
   maximum displ.:     0.1173893 α      in ANC's #4, #7, #5, ...

........................................................................
.............................. CYCLE   11 ..............................
........................................................................
 * total energy  :    -8.1749160 Eh     change       -0.8337101E-04 Eh
   gradient norm :     0.0051890 Eh/α   predicted    -0.5944227E-04 ( -28.70%)
   displ. norm   :     0.1936109 α      lambda       -0.9120187E-04
   maximum displ.:     0.1064555 α      in ANC's #4, #5, #7, ...

........................................................................
.............................. CYCLE   12 ..............................
........................................................................
 * total energy  :    -8.1749819 Eh     change       -0.6585183E-04 Eh
   gradient norm :     0.0045344 Eh/α   predicted    -0.4731320E-04 ( -28.15%)
   displ. norm   :     0.1657734 α      lambda       -0.6894211E-04
   maximum displ.:     0.0851547 α      in ANC's #4, #5, #7, ...

........................................................................
.............................. CYCLE   13 ..............................
........................................................................
 * total energy  :    -8.1750308 Eh     change       -0.4895110E-04 Eh
   gradient norm :     0.0036632 Eh/α   predicted    -0.3542293E-04 ( -27.64%)
   displ. norm   :     0.1260080 α      lambda       -0.4511988E-04
   maximum displ.:     0.0565632 α      in ANC's #4, #5, #7, ...

........................................................................
.............................. CYCLE   14 ..............................
........................................................................
 * total energy  :    -8.1750622 Eh     change       -0.3140150E-04 Eh
   gradient norm :     0.0028497 Eh/α   predicted    -0.2292088E-04 ( -27.01%)
   displ. norm   :     0.0865211 α      lambda       -0.2581848E-04
   maximum displ.:     0.0338879 α      in ANC's #1, #8, #4, ...

........................................................................
.............................. CYCLE   15 ..............................
........................................................................
 * total energy  :    -8.1750804 Eh     change       -0.1816727E-04 Eh
   gradient norm :     0.0021387 Eh/α   predicted    -0.1300757E-04 ( -28.40%)
   displ. norm   :     0.0655237 α      lambda       -0.1678345E-04
   maximum displ.:     0.0303239 α      in ANC's #1, #8, #2, ...

........................................................................
.............................. CYCLE   16 ..............................
........................................................................
 * total energy  :    -8.1750925 Eh     change       -0.1208337E-04 Eh
   gradient norm :     0.0017519 Eh/α   predicted    -0.8429771E-05 ( -30.24%)
   displ. norm   :     0.0904231 α      lambda       -0.1272660E-04
   maximum displ.:     0.0456817 α      in ANC's #1, #2, #8, ...

........................................................................
.............................. CYCLE   17 ..............................
........................................................................
 * total energy  :    -8.1751040 Eh     change       -0.1148698E-04 Eh
   gradient norm :     0.0020972 Eh/α   predicted    -0.6393838E-05 ( -44.34%)
   displ. norm   :     0.0321319 α      lambda       -0.6709864E-05
   maximum displ.:     0.0186126 α      in ANC's #1, #2, #10, ...

........................................................................
.............................. CYCLE   18 ..............................
........................................................................
 * total energy  :    -8.1751098 Eh     change       -0.5813768E-05 Eh
   gradient norm :     0.0016469 Eh/α   predicted    -0.3362870E-05 ( -42.16%)
   displ. norm   :     0.1110132 α      lambda       -0.1350042E-04
   maximum displ.:     0.0652330 α      in ANC's #1, #2, #10, ...

........................................................................
.............................. CYCLE   19 ..............................
........................................................................
 * total energy  :    -8.1751204 Eh     change       -0.1061055E-04 Eh
   gradient norm :     0.0014488 Eh/α   predicted    -0.6791994E-05 ( -35.99%)
   displ. norm   :     0.0417188 α      lambda       -0.3225255E-05
   maximum displ.:     0.0260914 α      in ANC's #1, #2, #7, ...

........................................................................
.............................. CYCLE   20 ..............................
........................................................................
 * total energy  :    -8.1751246 Eh     change       -0.4208214E-05 Eh
   gradient norm :     0.0010740 Eh/α   predicted    -0.1617440E-05 ( -61.56%)
   displ. norm   :     0.0662691 α      lambda       -0.6508043E-05
   maximum displ.:     0.0441321 α      in ANC's #1, #2, #7, ...
 * RMSD in coord.:     0.4514790 α      energy gain  -0.1225378E-01 Eh

generating ANC from model Hessian ...
Using GFN-FF Lindh-Hessian
 Shifting diagonal of input Hessian by    9.7930587625550073E-003
 Lowest  eigenvalues of input Hessian
    0.000000    0.000000    0.000000    0.000000    0.000000    0.000000
    0.010000    0.010188    0.010419    0.010726    0.010973    0.011657
    0.012275    0.013356    0.014910    0.016592    0.016855    0.017444
 Highest eigenvalues
    2.626656    2.664766    2.703008    2.773923    2.968998    2.995111


........................................................................
.............................. CYCLE   21 ..............................
........................................................................
 * total energy  :    -8.1751315 Eh     change       -0.6930913E-05 Eh
   gradient norm :     0.0007120 Eh/α   predicted     0.0000000E+00 (-100.00%)
   displ. norm   :     0.0146094 α      lambda       -0.1005400E-05
   maximum displ.:     0.0107186 α      in ANC's #1, #2, #10, ...

........................................................................
.............................. CYCLE   22 ..............................
........................................................................
 * total energy  :    -8.1751337 Eh     change       -0.2194167E-05 Eh
   gradient norm :     0.0003315 Eh/α   predicted    -0.8358903E-06 ( -61.90%)
   displ. norm   :     0.0464657 α      lambda       -0.3958502E-05
   maximum displ.:     0.0312854 α      in ANC's #1, #2, #10, ...

   *** GEOMETRY OPTIMIZATION CONVERGED AFTER 22 ITERATIONS ***

------------------------------------------------------------------------
 total energy gain   :        -0.0122629 Eh       -7.6951 kcal/mol
 total RMSD          :         0.4518051 a0        0.2391 Å
 total power (kW/mol):        -1.4634666 (step) -122.8031 (real)
------------------------------------------------------------------------

 ANCopt (total)                0 d,  0 h,  0 min,  0.262 sec
 optimizer setup                ...        0 min,  0.000 sec (  0.078%)
 model hessian                  ...        0 min,  0.004 sec (  1.398%)
 ANC generation                 ...        0 min,  0.046 sec ( 17.529%)
 coordinate transformation      ...        0 min,  0.003 sec (  0.994%)
 single point calculation       ...        0 min,  0.188 sec ( 71.681%)
 optimization log               ...        0 min,  0.005 sec (  1.792%)
 hessian update                 ...        0 min,  0.006 sec (  2.170%)
 rational function              ...        0 min,  0.004 sec (  1.494%)

================
 final structure:
================
$coord
      -15.77036926569934        2.39544490845499        2.77111271657966      n
      -16.25389172376574       -0.35799360113534        2.43032790402826      c
      -15.19208873019490       -1.33832674642528       -0.07019403091802      c
      -12.37975544904887       -1.34552299869179       -0.13186645357626      c
      -10.87730646954165       -3.39451871011723        0.25977136582771      c
       -8.26147152908742       -2.87823990712017        0.09914114314370      c
       -7.70634392834958       -0.40303240526632       -0.41643802658718      c
       -5.23076753601227        0.64065900325372       -0.68381919027065      c
       -4.65612731900851        3.10741044504334       -1.26542799414290      c
       -2.05259458857656        3.67045897449681       -1.38346800855463      c
       -1.17248482171783        6.25458526156196       -2.06562340426549      c
       -0.51943472893974        1.60710815896642       -0.81834728818061      c
        2.18501381521620        1.39348677940060       -0.59137993878847      c
        3.84086182127212        3.45288833045605       -0.64988332224473      c
        6.42594763500056        3.20049572515370       -0.37541514380303      c
        7.60012031276894        0.86678110974511       -0.00374697573625      c
       10.31567863867940        0.60321296601700        0.26712407648795      c
       11.99869676086439        2.26752050471719        1.37091654253893      c
       11.30384851633486        4.68119306859131        2.63944127568487      c
       14.54465293862026        1.41903619234381        1.24485480293937      c
       14.84105825025280       -0.85569379474384        0.11586579124588      c
       11.97392062274453       -2.03015672667631       -0.83068545436169      s
        6.00040957719431       -1.29944887650948        0.06305252370836      c
        6.70719685744701       -3.68538124701511        0.44033875387057      n
        4.19604893907914       -5.46064848601386        0.42380193182459      s
        2.10549012245737       -3.24573237095064       -0.03353622816754      n
        3.30299800238649       -1.03726275762534       -0.20992940922855      c
       -2.43263532394126       -1.02082371647172       -0.33476985156538      s
      -10.51379974407662        1.30388403805039       -0.69037845073181      s
      -16.22839633797490        3.01879491212350        4.56097655794615      h
      -16.79105605495560        3.45103335551068        1.49012707478644      h
      -13.88189485450159        2.77218795342728        2.44978760723005      h
      -18.29215999942732       -0.71245382939896        2.55449212498711      h
      -15.39909354287085       -1.40981351992209        3.99673580785703      h
      -15.89310382813621       -0.16764603796053       -1.62511223863237      h
      -15.88164483190647       -3.25286277402835       -0.45157505121276      h
      -11.62340267368108       -5.25187225866709        0.64763436232551      h
       -6.81962544848871       -4.29688829083002        0.34922599932101      h
       -6.10002273538866        4.50283770478692       -1.61204758332346      h
       -2.73211545602534        7.39106447673307       -2.78552227010836      h
        0.25608950806122        6.18456057715026       -3.54731112283907      h
       -0.40581460172924        7.23622646339781       -0.42525086289711      h
        3.08684499086163        5.32044297910679       -0.87896959157662      h
        7.59362490606812        4.85720519516024       -0.51893810295312      h
        9.44555540697371        4.55141782442605        3.51740953087783      h
       11.29333822748779        6.24511759716492        1.29902282140358      h
       12.65388749305125        5.13990844953890        4.12580081223772      h
       16.09763776774541        2.50119202523428        2.00573915195343      h
       16.60542642123064       -1.81963405379398       -0.15607586054429      h
$eht charge=1 unpaired=0
$end

 Bond Distances (Angstroems)
 ---------------------------
N1-C2=1.4903         N1-H30=1.0318        N1-H31=1.0311        N1-H32=1.0331        C2-N1=1.4903         C2-C3=1.5283         
C2-H33=1.0968        C2-H34=1.0961        C3-C2=1.5283         C3-C4=1.4886         C3-H35=1.0947        C3-H36=1.0956        
C4-C3=1.4886         C4-C5=1.3604         C4-S29=1.7401        C5-C4=1.3604         C5-C6=1.4135         C5-H37=1.0789        
C6-C5=1.4135         C6-C7=1.3698         C6-H38=1.0785        C7-C6=1.3698         C7-C8=1.4287         C7-S29=1.7447        
C8-C7=1.4287         C8-C9=1.3752         C8-S28=1.7319        C9-C8=1.3752         C9-C10=1.4110        C9-H39=1.0783        
C10-C9=1.4110        C10-C11=1.4890       C10-C12=1.3928       C11-C10=1.4890       C11-H40=1.0899       C11-H41=1.0898       
C11-H42=1.0899       C12-C10=1.3928       C12-C13=1.4406       C12-S28=1.7391       C13-C12=1.4406       C13-C14=1.3987       
C13-C27=1.4301       C14-C13=1.3987       C14-C15=1.3821       C14-H43=1.0726       C15-C14=1.3821       C15-C16=1.3964       
C15-H44=1.0753       C16-C15=1.3964       C16-C17=1.4509       C16-C23=1.4255       C17-C16=1.4509       C17-C18=1.3820       
C17-S22=1.7463       C18-C17=1.3820       C18-C19=1.4890       C18-C20=1.4217       C19-C18=1.4890       C19-H45=1.0898       
C19-H46=1.0900       C19-H47=1.0899       C20-C18=1.4217       C20-C21=1.3530       C20-H48=1.0795       C21-C20=1.3530       
C21-S22=1.7144       C21-H49=1.0736       S22-C17=1.7463       S22-C21=1.7144       C23-C16=1.4255       C23-N24=1.3319       
C23-C27=1.4414       N24-C23=1.3319       N24-S25=1.6274       S25-N24=1.6274       S25-N26=1.6298       N26-S25=1.6298       
N26-C27=1.3327       C27-C13=1.4301       C27-C23=1.4414       C27-N26=1.3327       S28-C8=1.7319        S28-C12=1.7391       
S29-C4=1.7401        S29-C7=1.7447        H30-N1=1.0318        H31-N1=1.0311        H32-N1=1.0331        H33-C2=1.0968        
H34-C2=1.0961        H35-C3=1.0947        H36-C3=1.0956        H37-C5=1.0789        H38-C6=1.0785        H39-C9=1.0783        
H40-C11=1.0899       H41-C11=1.0898       H42-C11=1.0899       H43-C14=1.0726       H44-C15=1.0753       H45-C19=1.0898       
H46-C19=1.0900       H47-C19=1.0899       H48-C20=1.0795       H49-C21=1.0736       
 C  H  Rav=1.0858 sigma=0.0082  Rmin=1.0726  Rmax=1.0968    17
 C  C  Rav=1.4213 sigma=0.0454  Rmin=1.3530  Rmax=1.5283    22
 N  H  Rav=1.0320 sigma=0.0008  Rmin=1.0311  Rmax=1.0331     3
 N  C  Rav=1.3850 sigma=0.0745  Rmin=1.3319  Rmax=1.4903     3
 S  C  Rav=1.7361 sigma=0.0107  Rmin=1.7144  Rmax=1.7463     6
 S  N  Rav=1.6286 sigma=0.0012  Rmin=1.6274  Rmax=1.6298     2

 selected bond angles (degree)
 --------------------
H30-N1-C2=112.54               H31-N1-C2=111.11               H31-N1-H30=107.89              H32-N1-C2=109.56               
H32-N1-H30=108.46              H32-N1-H31=107.09              C3-C2-N1=111.93                H33-C2-N1=109.20               
H33-C2-C3=110.82               H34-C2-N1=109.52               H34-C2-C3=109.31               H34-C2-H33=105.88              
C4-C3-C2=112.79                H35-C3-C2=109.52               H35-C3-C4=108.89               H36-C3-C2=110.54               
H36-C3-C4=109.06               H36-C3-H35=105.78              C5-C4-C3=125.66                S29-C4-C3=124.68               
S29-C4-C5=109.66               C6-C5-C4=114.15                H37-C5-C4=122.76               H37-C5-C6=123.09               
C7-C6-C5=114.00                H38-C6-C5=123.43               H38-C6-C7=122.57               C8-C7-C6=125.87                
S29-C7-C6=109.21               S29-C7-C8=124.92               C9-C8-C7=126.29                S28-C8-C7=125.25               
S28-C8-C9=108.46               C10-C9-C8=115.23               H39-C9-C8=122.10               H39-C9-C10=122.67              
C11-C10-C9=120.67              C12-C10-C9=113.19              C12-C10-C11=126.14             

 selected dihedral angles (degree)
 ---------------------------------
C3-C2-N1-H30=188.90           C3-C2-N1-H31= 67.78           C3-C2-N1-H32=309.64           H33-C2-N1-H30= 65.81          
H33-C2-N1-H31=304.70          H33-C2-N1-H32=186.56          H34-C2-N1-H30=310.29          H34-C2-N1-H31=189.17          
H34-C2-N1-H32= 71.04          C4-C3-C2-N1= 68.66            C4-C3-C2-H33=190.82           C4-C3-C2-H34=307.15           
H35-C3-C2-N1=307.23           H35-C3-C2-H33= 69.39          H35-C3-C2-H34=185.71          H36-C3-C2-N1=191.06           
H36-C3-C2-H33=313.22          H36-C3-C2-H34= 69.54          C5-C4-C3-C2= 99.81            C5-C4-C3-H35=221.60           
C5-C4-C3-H36=336.59           S29-C4-C3-C2=280.51           S29-C4-C3-H35= 42.30          S29-C4-C3-H36=157.28          
C6-C5-C4-C3=180.12            C6-C5-C4-S29=359.52           H37-C5-C4-C3=  0.47           H37-C5-C4-S29=179.87          
C7-C6-C5-C4=  0.16            C7-C6-C5-H37=179.80           H38-C6-C5-C4=180.42           H38-C6-C5-H37=  0.07          
C8-C7-C6-C5=180.06            C8-C7-C6-H38=359.80           S29-C7-C6-C5=  0.25           S29-C7-C6-H38=179.99          
C9-C8-C7-C6=178.20            C9-C8-C7-S29=357.98           S28-C8-C7-C6=358.45           S28-C8-C7-S29=178.24          
C10-C9-C8-C7=179.11           C10-C9-C8-S28=358.89          H39-C9-C8-C7=358.89           H39-C9-C8-S28=178.66          
C11-C10-C9-C8=178.28          C11-C10-C9-H39=358.51         C12-C10-C9-C8=358.46          C12-C10-C9-H39=178.69         
           -------------------------------------------------
          |                Final Singlepoint                |
           -------------------------------------------------
         :::::::::::::::::::::::::::::::::::::::::::::::::::::
         ::                     SUMMARY                     ::
         :::::::::::::::::::::::::::::::::::::::::::::::::::::
         :: total energy              -8.175133721294 Eh    ::
         :: gradient norm              0.000331530938 Eh/a0 ::
         ::.................................................::
         :: bond energy              -10.046590369397 Eh    ::
         :: angle energy               0.023792026011 Eh    ::
         :: torsion energy             0.006774418173 Eh    ::
         :: repulsion energy           0.654644393631 Eh    ::
         :: electrostat energy         1.244211738485 Eh    ::
         :: dispersion energy         -0.049875752450 Eh    ::
         :: HB energy                 -0.001060114645 Eh    ::
         :: XB energy                 -0.008252768898 Eh    ::
         :: bonded atm energy          0.000914544956 Eh    ::
         :: external energy            0.000000000000 Eh    ::
         :: add. restraining           0.000308162840 Eh    ::
         :: total charge               1.000000000000 e     ::
         :::::::::::::::::::::::::::::::::::::::::::::::::::::

           -------------------------------------------------
          |                Property Printout                |
           -------------------------------------------------
           -------------------------------------------------
          |                Geometry Summary                 |
           -------------------------------------------------

      molecular mass/u    :      454.6742641
   center of mass at/Å    :        0.0455793      -0.0055183       0.0135091
  moments of inertia/u·Å² :        0.1217941E+04   0.1114966E+05   0.1203926E+05
rotational constants/cm⁻¹ :        0.1384109E-01   0.1511942E-02   0.1400222E-02

 * 51 selected distances

     #   Z          #   Z                                           value/Å
     1   7 n        2   6 c                                       1.4903037
     2   6 c        3   6 c                                       1.5283138
     3   6 c        4   6 c                                       1.4885855
     4   6 c        5   6 c                                       1.3604196
     5   6 c        6   6 c                                       1.4135015
     6   6 c        7   6 c                                       1.3698069
     7   6 c        8   6 c                                       1.4287064
     8   6 c        9   6 c                                       1.3751832
     9   6 c       10   6 c                                       1.4109636
    10   6 c       11   6 c                                       1.4890147
    10   6 c       12   6 c                                       1.3927878
    13   6 c       14   6 c                                       1.3987097
    14   6 c       15   6 c                                       1.3821259
    15   6 c       16   6 c                                       1.3963706
    17   6 c       18   6 c                                       1.3820371
    18   6 c       19   6 c                                       1.4890285
    18   6 c       20   6 c                                       1.4216768
    20   6 c       21   6 c                                       1.3529634
    17   6 c       22  16 s                                       1.7462519 (max)
    21   6 c       22  16 s                                       1.7143874
    16   6 c       23   6 c                                       1.4254516
    23   6 c       24   7 n                                       1.3318632
    24   7 n       25  16 s                                       1.6273996
    25  16 s       26   7 n                                       1.6297842
    13   6 c       27   6 c                                       1.4301437
    23   6 c       27   6 c                                       1.4413928
    26   7 n       27   6 c                                       1.3326946
     8   6 c       28  16 s                                       1.7319467
    12   6 c       28  16 s                                       1.7390708
     4   6 c       29  16 s                                       1.7401070
     7   6 c       29  16 s                                       1.7447140
     1   7 n       30   1 h                                       1.0318233
     1   7 n       31   1 h                                       1.0311481 (min)
     1   7 n       32   1 h                                       1.0331189
     2   6 c       33   1 h                                       1.0967633
     2   6 c       34   1 h                                       1.0961302
     3   6 c       35   1 h                                       1.0947303
     3   6 c       36   1 h                                       1.0955870
     5   6 c       37   1 h                                       1.0789066
     6   6 c       38   1 h                                       1.0785388
     9   6 c       39   1 h                                       1.0783013
    11   6 c       40   1 h                                       1.0899365
    11   6 c       41   1 h                                       1.0897874
    11   6 c       42   1 h                                       1.0899285
    14   6 c       43   1 h                                       1.0726493
    15   6 c       44   1 h                                       1.0752532
    19   6 c       45   1 h                                       1.0897613
    19   6 c       46   1 h                                       1.0899885
    19   6 c       47   1 h                                       1.0899368
    20   6 c       48   1 h                                       1.0795434
    21   6 c       49   1 h                                       1.0736077

 * 6 distinct bonds (by element types)

   Z      Z             #   av. dist./Å        max./Å        min./Å
   1 H    6 C          17     1.0858441     1.0967633     1.0726493
   6 C    6 C          20     1.4188592     1.5283138     1.3529634
   1 H    7 N           3     1.0320301     1.0331189     1.0311481
   6 C    7 N           3     1.3849538     1.4903037     1.3318632
   6 C   16 S           6     1.7360796     1.7462519     1.7143874
   7 N   16 S           2     1.6285919     1.6297842     1.6273996


optimized geometry written to: xtbopt.coord


           -------------------------------------------------
          | TOTAL ENERGY               -8.175133721294 Eh   |
          | GRADIENT NORM               0.000331530938 Eh/α |
           -------------------------------------------------
########################################################################
[WARNING] Runtime exception occurred
-1- gfnff_setup: Could not read topology file.
########################################################################

------------------------------------------------------------------------
 * finished run on 2023/01/23 at 13:59:00.033     
------------------------------------------------------------------------
 total:
 * wall-time:     0 d,  0 h,  0 min,  0.419 sec
 *  cpu-time:     0 d,  0 h,  1 min,  6.699 sec
 * ratio c/w:   159.051 speedup
 SCF:
 * wall-time:     0 d,  0 h,  0 min,  0.033 sec
 *  cpu-time:     0 d,  0 h,  0 min,  3.329 sec
 * ratio c/w:   100.502 speedup
 ANC optimizer:
 * wall-time:     0 d,  0 h,  0 min,  0.271 sec
 *  cpu-time:     0 d,  0 h,  0 min, 48.000 sec
 * ratio c/w:   177.248 speedup

