 Entering Gaussian System
 *********************************************
 Gaussian 98:
 frequency output generated by the xtb code
 *********************************************
                         Standard orientation:
 --------------------------------------------------------------------
  Center     Atomic     Atomic              Coordinates (Angstroms)
  Number     Number      Type              X           Y           Z
 --------------------------------------------------------------------
    1          7             0        0.216410   -1.693862   -0.319908
    2          6             0       -0.934004   -0.936995    0.246865
    3          6             0       -1.084529    0.437505   -0.393457
    4          6             0       -2.214443    1.276362    0.210896
    5          6             0       -3.597467    0.695269   -0.041659
    6         17             0        3.096352    0.209734    0.146069
    7          1             0        0.098716   -1.841573   -1.334737
    8          1             0        0.331717   -2.621062    0.121323
    9          1             0        1.102183   -1.168506   -0.187452
   10          1             0       -0.806410   -0.828194    1.330654
   11          1             0       -1.854568   -1.518120    0.117559
   12          1             0       -1.249324    0.319374   -1.471296
   13          1             0       -0.130006    0.973570   -0.308651
   14          1             0       -2.168279    2.299451   -0.188376
   15          1             0       -2.045568    1.385063    1.290665
   16          1             0       -4.389692    1.333734    0.358323
   17          1             0       -3.711650   -0.287450    0.420493
   18          1             0       -3.784851    0.572508   -1.110778
 --------------------------------------------------------------------
     1 basis functions        1 primitive gaussians
     1 alpha electrons        1 beta electrons

 Harmonic frequencies (cm**-1), IR intensities (km*mol⁻¹),
 Raman scattering activities (A**4/amu), Raman depolarization ratios,
 reduced masses (AMU), force constants (mDyne/A) and normal coordinates:
                      1                      2                      3
                        a                      a                      a 
 Frequencies --  -135.8076                77.6212                82.4125
 Red. masses --    22.3122                19.6291                 9.2625
 Frc consts  --     0.0000                 0.0000                 0.0000
 IR Inten    --   146.7822                16.2509                 0.8767
 Raman Activ --     0.0000                 0.0000                 0.0000
 Depolar     --     0.0000                 0.0000                 0.0000
 Atom AN      X      Y      Z        X      Y      Z        X      Y      Z
   1   7    -0.46  -0.34  -0.11     0.09   0.31   0.02    -0.07  -0.04  -0.02
   2   6    -0.22  -0.08   0.02     0.05   0.21   0.06     0.14   0.03   0.29
   3   6    -0.06  -0.06   0.02    -0.24   0.14  -0.03     0.12   0.07   0.38
   4   6    -0.02  -0.00  -0.00    -0.36  -0.02  -0.02    -0.09  -0.09   0.22
   5   6    -0.05   0.05  -0.01    -0.29  -0.18  -0.03    -0.00   0.03  -0.51
   6  17     0.60   0.32   0.07     0.52  -0.33   0.00    -0.06  -0.01  -0.21
   7   1    -0.16  -0.09  -0.03     0.03   0.11   0.00    -0.11  -0.03   0.01
   8   1    -0.16  -0.10  -0.03     0.02   0.07  -0.02     0.02  -0.00   0.00
   9   1    -0.12  -0.14  -0.05     0.04   0.06   0.02    -0.00  -0.01  -0.11
  10   1    -0.03  -0.03   0.00     0.04   0.09   0.01     0.11  -0.01   0.08
  11   1    -0.10   0.02   0.03     0.03   0.02   0.06     0.02   0.03   0.13
  12   1    -0.01  -0.01   0.00    -0.08   0.01  -0.00     0.09   0.04   0.10
  13   1    -0.01  -0.04   0.02    -0.10   0.09  -0.04     0.02   0.04   0.17
  14   1     0.01  -0.00  -0.00    -0.14  -0.00  -0.00     0.03   0.01   0.16
  15   1    -0.01  -0.00  -0.00    -0.11  -0.00  -0.01    -0.14  -0.12   0.09
  16   1    -0.01   0.03  -0.01    -0.10  -0.09   0.00    -0.04  -0.04  -0.15
  17   1    -0.03   0.02   0.00    -0.05  -0.06  -0.02    -0.05  -0.05  -0.28
  18   1    -0.01   0.01  -0.00    -0.09  -0.04  -0.01     0.11   0.14  -0.18
                      4                      5                      6
                        a                      a                      a 
 Frequencies --   141.9611               163.4460               253.9204
 Red. masses --     8.0241                 8.1054                 5.4664
 Frc consts  --     0.0000                 0.0000                 0.0000
 IR Inten    --     3.8721                 7.0810                 5.6750
 Raman Activ --     0.0000                 0.0000                 0.0000
 Depolar     --     0.0000                 0.0000                 0.0000
 Atom AN      X      Y      Z        X      Y      Z        X      Y      Z
   1   7     0.24   0.02   0.11    -0.11  -0.11  -0.30    -0.11  -0.12   0.24
   2   6    -0.01  -0.22  -0.02     0.37   0.20   0.27    -0.07   0.24  -0.19
   3   6    -0.25  -0.29  -0.15    -0.06  -0.08  -0.22     0.06   0.22  -0.25
   4   6     0.02  -0.13   0.13     0.05  -0.03  -0.08     0.06  -0.07   0.13
   5   6    -0.19   0.45  -0.07    -0.01   0.02   0.09     0.14  -0.21   0.01
   6  17     0.11   0.08  -0.01    -0.15   0.01   0.18    -0.02  -0.01  -0.01
   7   1     0.09  -0.03   0.03    -0.15   0.03  -0.08    -0.03  -0.20   0.09
   8   1     0.13   0.03   0.06    -0.07  -0.06  -0.13    -0.05   0.04   0.21
   9   1     0.03   0.08   0.02     0.02  -0.11  -0.12    -0.02  -0.02  -0.02
  10   1    -0.02  -0.02  -0.01     0.35   0.19   0.03    -0.07   0.11  -0.05
  11   1     0.04  -0.13  -0.00     0.07   0.06   0.35    -0.03   0.09  -0.07
  12   1    -0.17  -0.12  -0.02    -0.14  -0.15  -0.03    -0.02   0.09  -0.07
  13   1    -0.06  -0.09  -0.14    -0.03   0.02  -0.22     0.02   0.06  -0.08
  14   1     0.10  -0.00   0.13     0.00  -0.01  -0.02    -0.04   0.03   0.16
  15   1     0.02  -0.15   0.05     0.06  -0.01  -0.03     0.04  -0.14   0.05
  16   1     0.01   0.12   0.14     0.02  -0.03   0.13     0.03  -0.26   0.30
  17   1    -0.11   0.05  -0.21     0.03  -0.03  -0.05     0.16  -0.22  -0.31
  18   1    -0.11   0.36  -0.04    -0.07   0.09   0.03    -0.07   0.27  -0.02
                      7                      8                      9
                        a                      a                      a 
 Frequencies --   306.3142               329.5404               355.3150
 Red. masses --     3.7500                 4.1895                 7.3435
 Frc consts  --     0.0000                 0.0000                 0.0000
 IR Inten    --     1.1996                 1.1897                 5.3811
 Raman Activ --     0.0000                 0.0000                 0.0000
 Depolar     --     0.0000                 0.0000                 0.0000
 Atom AN      X      Y      Z        X      Y      Z        X      Y      Z
   1   7    -0.02   0.11  -0.04     0.11  -0.15  -0.14    -0.16   0.39  -0.13
   2   6    -0.09  -0.16   0.15     0.13  -0.06  -0.08    -0.25  -0.09   0.16
   3   6     0.09  -0.10   0.22     0.11   0.07   0.14    -0.17  -0.20  -0.01
   4   6    -0.01   0.14  -0.29    -0.14   0.06  -0.19     0.16   0.09   0.03
   5   6    -0.00  -0.02   0.04    -0.23   0.09   0.14     0.32  -0.15  -0.05
   6  17     0.01   0.01  -0.03     0.01  -0.02   0.07     0.04  -0.04   0.05
   7   1     0.06   0.26  -0.05    -0.17  -0.43   0.04    -0.21  -0.08   0.01
   8   1    -0.07  -0.07  -0.20     0.28   0.14   0.27     0.25   0.20   0.09
   9   1     0.00  -0.03   0.15    -0.02   0.14  -0.39    -0.12   0.29  -0.27
  10   1    -0.05  -0.11   0.05     0.05  -0.05  -0.02    -0.05  -0.01   0.04
  11   1    -0.01  -0.05  -0.02     0.03  -0.00  -0.03    -0.04  -0.08   0.07
  12   1     0.13  -0.04   0.05     0.16   0.07   0.02    -0.13  -0.10   0.01
  13   1     0.03  -0.04   0.15     0.00   0.05   0.17    -0.00  -0.12  -0.09
  14   1    -0.01  -0.02  -0.23    -0.05  -0.02  -0.15     0.05   0.01  -0.02
  15   1    -0.01   0.19  -0.10    -0.04   0.13  -0.06     0.06   0.04   0.00
  16   1     0.03  -0.20   0.37    -0.02   0.03   0.13     0.03  -0.11  -0.03
  17   1     0.18  -0.16  -0.26    -0.04   0.01   0.02     0.15  -0.06  -0.04
  18   1    -0.22   0.30   0.01    -0.17   0.06   0.05     0.13  -0.04  -0.02
                     10                     11                     12
                        a                      a                      a 
 Frequencies --   471.3597               792.8888               818.0425
 Red. masses --     8.4637                 2.3442                 2.9865
 Frc consts  --     0.0000                 0.0000                 0.0000
 IR Inten    --     4.5886                23.0159                 6.8563
 Raman Activ --     0.0000                 0.0000                 0.0000
 Depolar     --     0.0000                 0.0000                 0.0000
 Atom AN      X      Y      Z        X      Y      Z        X      Y      Z
   1   7    -0.20   0.31   0.03    -0.03   0.03   0.00     0.07  -0.07   0.03
   2   6    -0.11   0.12   0.10     0.14   0.12   0.06     0.05  -0.05   0.22
   3   6     0.37  -0.07  -0.13     0.15   0.04   0.13     0.09   0.07  -0.08
   4   6     0.13  -0.50  -0.15     0.05  -0.15   0.10    -0.06   0.23  -0.17
   5   6    -0.17   0.03   0.07    -0.05  -0.05   0.00    -0.07   0.03  -0.06
   6  17     0.01  -0.01  -0.00    -0.01   0.00   0.01    -0.00   0.00   0.00
   7   1    -0.10   0.12   0.01    -0.15   0.01   0.02    -0.21   0.08   0.02
   8   1     0.02   0.07  -0.03    -0.05  -0.00  -0.01     0.07  -0.07  -0.11
   9   1    -0.07   0.12  -0.02     0.06  -0.07  -0.10     0.07  -0.06  -0.14
  10   1    -0.05   0.05   0.03    -0.26  -0.25   0.08    -0.22  -0.20   0.11
  11   1    -0.06   0.08   0.02     0.01   0.17  -0.39     0.04   0.01  -0.24
  12   1     0.26  -0.01  -0.06    -0.31  -0.22   0.11    -0.01  -0.16   0.00
  13   1     0.08   0.01   0.11     0.03   0.09  -0.38     0.02   0.04  -0.14
  14   1     0.03  -0.09   0.08    -0.08  -0.13  -0.23     0.08   0.21   0.36
  15   1     0.06  -0.25  -0.03     0.02   0.25  -0.01    -0.10  -0.37   0.02
  16   1     0.10   0.17   0.06     0.05   0.08  -0.03    -0.06  -0.09   0.07
  17   1    -0.20   0.04   0.06    -0.21  -0.03  -0.08     0.25   0.05   0.15
  18   1    -0.15   0.01   0.04     0.05   0.10  -0.03    -0.21  -0.18   0.04
                     13                     14                     15
                        a                      a                      a 
 Frequencies --   884.8544               902.1176               954.5025
 Red. masses --     3.6968                 4.7188                 7.1442
 Frc consts  --     0.0000                 0.0000                 0.0000
 IR Inten    --    14.1913                23.5994                20.7151
 Raman Activ --     0.0000                 0.0000                 0.0000
 Depolar     --     0.0000                 0.0000                 0.0000
 Atom AN      X      Y      Z        X      Y      Z        X      Y      Z
   1   7    -0.08  -0.14  -0.07    -0.12   0.17  -0.09    -0.15   0.26   0.02
   2   6    -0.10  -0.13   0.03     0.09   0.11  -0.17     0.15  -0.05  -0.16
   3   6     0.32   0.14  -0.01    -0.13  -0.08   0.34     0.29  -0.28  -0.04
   4   6     0.00   0.14   0.05     0.05  -0.14  -0.15     0.08   0.22   0.15
   5   6    -0.17  -0.07  -0.05     0.15   0.02  -0.13    -0.39   0.02   0.03
   6  17     0.01  -0.01  -0.00    -0.00   0.00  -0.00     0.00   0.00   0.00
   7   1     0.34  -0.02  -0.06     0.23  -0.21  -0.02    -0.01  -0.09   0.02
   8   1     0.30   0.01  -0.01    -0.28   0.14   0.25    -0.28   0.11   0.16
   9   1    -0.29   0.34   0.25     0.00  -0.05   0.12     0.07  -0.11   0.00
  10   1     0.19  -0.09  -0.01     0.14  -0.10  -0.04     0.07   0.01  -0.05
  11   1    -0.17   0.17   0.15    -0.00   0.07  -0.02     0.06  -0.06  -0.00
  12   1    -0.17  -0.09   0.05    -0.17  -0.09   0.12     0.06  -0.08  -0.01
  13   1     0.13   0.00  -0.28    -0.04   0.00  -0.06     0.15  -0.19  -0.05
  14   1    -0.05   0.06   0.06     0.19  -0.02   0.04     0.10   0.05   0.02
  15   1    -0.07   0.01   0.03    -0.21  -0.13   0.00     0.06   0.06   0.03
  16   1    -0.04  -0.02   0.02     0.18   0.06   0.15    -0.35  -0.23  -0.10
  17   1    -0.04  -0.01   0.01     0.15   0.07   0.14     0.09  -0.05  -0.04
  18   1    -0.10  -0.03  -0.00    -0.28  -0.12   0.04     0.08  -0.06  -0.02
                     16                     17                     18
                        a                      a                      a 
 Frequencies --   994.5213              1017.0770              1047.8981
 Red. masses --     2.9153                 8.6333                 5.4348
 Frc consts  --     0.0000                 0.0000                 0.0000
 IR Inten    --     4.0064                 9.4866                 6.5858
 Raman Activ --     0.0000                 0.0000                 0.0000
 Depolar     --     0.0000                 0.0000                 0.0000
 Atom AN      X      Y      Z        X      Y      Z        X      Y      Z
   1   7     0.10  -0.00   0.12    -0.38   0.05   0.30     0.13  -0.20  -0.06
   2   6    -0.12  -0.05  -0.14     0.50  -0.25  -0.26    -0.14   0.40  -0.01
   3   6     0.15   0.04   0.05    -0.05   0.00  -0.03    -0.06  -0.18   0.10
   4   6     0.12   0.04   0.13    -0.09  -0.09   0.02     0.11  -0.20   0.07
   5   6    -0.09  -0.12  -0.18     0.08   0.11  -0.01    -0.14   0.17  -0.03
   6  17    -0.00   0.00   0.01     0.00  -0.00  -0.00     0.00  -0.00   0.00
   7   1    -0.25   0.12   0.04    -0.18   0.22   0.05     0.04   0.06  -0.03
   8   1     0.05  -0.07  -0.12     0.16  -0.04  -0.11     0.22  -0.07  -0.11
   9   1     0.10  -0.08  -0.14    -0.21   0.21   0.04    -0.05   0.09  -0.00
  10   1    -0.02   0.30  -0.07     0.05  -0.02  -0.06    -0.12   0.16  -0.00
  11   1     0.04  -0.17   0.14     0.08   0.01  -0.08    -0.08   0.20  -0.07
  12   1    -0.27   0.29   0.03    -0.03   0.11  -0.02    -0.02   0.01   0.02
  13   1     0.20  -0.25  -0.10    -0.11   0.17   0.02    -0.08   0.06   0.06
  14   1     0.09  -0.03  -0.07     0.09  -0.06  -0.07     0.37  -0.14  -0.15
  15   1    -0.27   0.14   0.07    -0.09   0.05   0.01    -0.04   0.08   0.01
  16   1     0.15   0.09   0.12    -0.03  -0.05   0.02    -0.26  -0.23  -0.02
  17   1    -0.04   0.03   0.09     0.16   0.03   0.04     0.31   0.02   0.04
  18   1    -0.33  -0.09   0.02     0.01  -0.04   0.01     0.02  -0.12   0.00
                     19                     20                     21
                        a                      a                      a 
 Frequencies --  1120.6236              1143.1459              1172.4768
 Red. masses --     8.4606                 7.3692                 6.7980
 Frc consts  --     0.0000                 0.0000                 0.0000
 IR Inten    --     3.9372                 9.5615                 7.0966
 Raman Activ --     0.0000                 0.0000                 0.0000
 Depolar     --     0.0000                 0.0000                 0.0000
 Atom AN      X      Y      Z        X      Y      Z        X      Y      Z
   1   7     0.04   0.01  -0.03    -0.06  -0.11   0.04     0.07  -0.01   0.16
   2   6    -0.07   0.10  -0.04     0.18   0.32  -0.16    -0.12   0.04  -0.33
   3   6     0.31  -0.28  -0.11    -0.12  -0.42   0.09     0.05   0.02   0.39
   4   6    -0.55  -0.05   0.11     0.03   0.36   0.06    -0.03  -0.03  -0.39
   5   6     0.32   0.21   0.08    -0.01  -0.26  -0.05     0.01   0.02   0.24
   6  17     0.00   0.00   0.00     0.00  -0.00  -0.00     0.00   0.00   0.00
   7   1     0.01  -0.01  -0.01     0.01   0.08  -0.01    -0.16   0.11   0.04
   8   1    -0.01   0.00   0.00     0.14  -0.04  -0.06     0.06  -0.07  -0.11
   9   1     0.02  -0.02  -0.01    -0.11   0.12   0.02     0.06  -0.02  -0.11
  10   1    -0.04   0.13  -0.02    -0.08   0.11  -0.03     0.16   0.12  -0.12
  11   1    -0.03   0.05  -0.00     0.01   0.18  -0.15    -0.08   0.05   0.13
  12   1     0.07  -0.15  -0.02     0.17  -0.16  -0.00    -0.19  -0.12   0.14
  13   1     0.09  -0.09  -0.07    -0.02  -0.15   0.15     0.06  -0.05  -0.13
  14   1    -0.23  -0.03  -0.01    -0.02   0.13   0.12    -0.02   0.08   0.13
  15   1    -0.37   0.06   0.05     0.03  -0.03   0.03     0.04  -0.25  -0.08
  16   1     0.06   0.02   0.03     0.19   0.16   0.03    -0.11  -0.03  -0.11
  17   1     0.16   0.06   0.05    -0.28  -0.03  -0.01    -0.07  -0.06  -0.11
  18   1     0.11   0.04   0.02    -0.12   0.07  -0.01     0.28   0.11  -0.01
                     22                     23                     24
                        a                      a                      a 
 Frequencies --  1219.4650              1258.3277              1273.1604
 Red. masses --     3.6556                 2.8748                 2.1301
 Frc consts  --     0.0000                 0.0000                 0.0000
 IR Inten    --     6.6693                 1.2687                 6.2507
 Raman Activ --     0.0000                 0.0000                 0.0000
 Depolar     --     0.0000                 0.0000                 0.0000
 Atom AN      X      Y      Z        X      Y      Z        X      Y      Z
   1   7     0.17   0.09   0.18    -0.05  -0.05  -0.01     0.01   0.01  -0.07
   2   6    -0.19  -0.11  -0.18    -0.02   0.08  -0.13    -0.10  -0.17  -0.06
   3   6     0.00  -0.05  -0.07     0.02   0.05   0.20     0.14   0.05   0.05
   4   6    -0.00   0.06   0.21     0.00  -0.10   0.12     0.02   0.11   0.05
   5   6     0.01  -0.02  -0.15    -0.03   0.14  -0.23    -0.02  -0.12   0.03
   6  17    -0.00   0.00   0.00     0.00  -0.00   0.00    -0.00  -0.00  -0.00
   7   1    -0.21   0.05   0.07    -0.00   0.02  -0.01     0.00  -0.04  -0.01
   8   1    -0.05  -0.05  -0.08     0.07  -0.01  -0.01    -0.06   0.02   0.03
   9   1     0.16  -0.09  -0.14    -0.04   0.02   0.03    -0.01   0.00   0.04
  10   1     0.36  -0.25  -0.08    -0.08   0.19  -0.04    -0.19   0.39  -0.04
  11   1    -0.31   0.35   0.14     0.15  -0.25   0.02     0.09  -0.24   0.09
  12   1     0.16  -0.21  -0.02     0.04  -0.27   0.08     0.14  -0.36   0.03
  13   1    -0.14   0.22   0.01     0.03  -0.01  -0.05    -0.25   0.52  -0.11
  14   1    -0.00  -0.02  -0.05    -0.47  -0.01   0.01     0.29   0.01   0.00
  15   1     0.13   0.10   0.02     0.51   0.02  -0.05    -0.14   0.05   0.04
  16   1     0.05  -0.01   0.08     0.01  -0.03   0.08     0.05   0.05  -0.01
  17   1     0.02   0.04   0.07     0.21   0.08   0.10    -0.11  -0.03  -0.02
  18   1    -0.17  -0.06   0.00    -0.17  -0.13  -0.00     0.01   0.05  -0.00
                     25                     26                     27
                        a                      a                      a 
 Frequencies --  1309.6367              1354.2254              1365.1268
 Red. masses --     3.3256                 4.0988                 4.5884
 Frc consts  --     0.0000                 0.0000                 0.0000
 IR Inten    --    10.3946                12.6163                 7.5578
 Raman Activ --     0.0000                 0.0000                 0.0000
 Depolar     --     0.0000                 0.0000                 0.0000
 Atom AN      X      Y      Z        X      Y      Z        X      Y      Z
   1   7    -0.11  -0.05   0.12     0.10   0.01  -0.07    -0.02  -0.03   0.04
   2   6    -0.13   0.30  -0.10     0.09  -0.13   0.02    -0.12   0.15   0.04
   3   6    -0.04   0.20  -0.07    -0.06   0.23   0.02     0.28  -0.29   0.00
   4   6    -0.05  -0.03   0.07    -0.41  -0.01   0.06    -0.32   0.11  -0.00
   5   6    -0.02  -0.04   0.03     0.03  -0.08  -0.05     0.02  -0.08  -0.04
   6  17    -0.00  -0.00   0.00     0.00   0.00  -0.00    -0.00  -0.00   0.00
   7   1     0.06   0.06   0.01    -0.17  -0.06   0.02     0.10   0.05  -0.01
   8   1     0.16  -0.04  -0.08    -0.11   0.00   0.02    -0.05  -0.01   0.01
   9   1    -0.01  -0.03  -0.09    -0.06   0.09   0.15    -0.01   0.03  -0.12
  10   1     0.25  -0.39  -0.01    -0.10   0.13   0.00     0.10  -0.17   0.02
  11   1     0.28  -0.43   0.02    -0.09   0.15   0.00     0.12  -0.20   0.00
  12   1     0.18  -0.31  -0.01     0.09  -0.12   0.00    -0.29   0.38   0.02
  13   1     0.12  -0.16  -0.01     0.21  -0.32  -0.07    -0.14   0.28   0.00
  14   1     0.25  -0.06  -0.08     0.47  -0.06  -0.07     0.21   0.01   0.00
  15   1    -0.13   0.04   0.03     0.38  -0.04  -0.06     0.39  -0.07  -0.06
  16   1     0.04   0.05  -0.01     0.12   0.07   0.05     0.09   0.08   0.01
  17   1    -0.00  -0.02  -0.01     0.04   0.02   0.06     0.01   0.01   0.04
  18   1     0.04   0.03  -0.00     0.05   0.06  -0.02    -0.01   0.05  -0.01
                     28                     29                     30
                        a                      a                      a 
 Frequencies --  1378.5469              1407.8321              1440.7269
 Red. masses --     2.5850                 1.7208                 3.2284
 Frc consts  --     0.0000                 0.0000                 0.0000
 IR Inten    --   121.8243                64.1371                 3.2772
 Raman Activ --     0.0000                 0.0000                 0.0000
 Depolar     --     0.0000                 0.0000                 0.0000
 Atom AN      X      Y      Z        X      Y      Z        X      Y      Z
   1   7     0.29  -0.11  -0.02     0.04   0.06  -0.17     0.00  -0.01  -0.00
   2   6    -0.03   0.12  -0.02    -0.05   0.11  -0.05     0.02   0.01  -0.02
   3   6     0.01  -0.04  -0.01     0.04  -0.09   0.01     0.02   0.03  -0.00
   4   6     0.09  -0.01  -0.01     0.01   0.03  -0.01    -0.10   0.01   0.02
   5   6    -0.03   0.01   0.01     0.01   0.00   0.01     0.40   0.15   0.07
   6  17     0.01  -0.01  -0.00    -0.00   0.00  -0.01     0.00  -0.00   0.00
   7   1    -0.33  -0.05   0.05    -0.49  -0.15   0.06     0.00   0.02  -0.00
   8   1    -0.53  -0.11  -0.05     0.31   0.09   0.08    -0.02   0.00   0.01
   9   1    -0.30   0.54   0.10     0.03  -0.23   0.68    -0.02   0.03  -0.01
  10   1     0.03  -0.14   0.01     0.06  -0.13  -0.00    -0.06  -0.03   0.01
  11   1     0.08  -0.12   0.04     0.05  -0.08   0.02     0.02  -0.04   0.06
  12   1     0.00   0.01  -0.01    -0.02   0.09  -0.00    -0.02  -0.03   0.01
  13   1    -0.02   0.03   0.01    -0.05   0.08  -0.01     0.02  -0.03   0.02
  14   1    -0.11   0.01   0.01    -0.02   0.01   0.01     0.09  -0.03  -0.05
  15   1    -0.11   0.02   0.02    -0.01  -0.03   0.00     0.08  -0.05  -0.01
  16   1    -0.02  -0.01  -0.01    -0.01  -0.01  -0.01    -0.33  -0.31  -0.20
  17   1     0.02  -0.00  -0.01    -0.03  -0.00  -0.01    -0.46  -0.02  -0.17
  18   1     0.01  -0.00   0.00    -0.00   0.01   0.00    -0.49  -0.16   0.12
                     31                     32                     33
                        a                      a                      a 
 Frequencies --  1452.7330              1489.3692              1505.7689
 Red. masses --     1.9594                 1.8650                 1.9323
 Frc consts  --     0.0000                 0.0000                 0.0000
 IR Inten    --    83.8107                 8.9262                 5.4326
 Raman Activ --     0.0000                 0.0000                 0.0000
 Depolar     --     0.0000                 0.0000                 0.0000
 Atom AN      X      Y      Z        X      Y      Z        X      Y      Z
   1   7     0.06  -0.23  -0.12    -0.01   0.03   0.01     0.00   0.02  -0.01
   2   6    -0.01  -0.01  -0.04     0.15   0.10  -0.19     0.05  -0.01  -0.04
   3   6    -0.00   0.02  -0.01    -0.00  -0.04   0.02     0.14   0.11  -0.21
   4   6     0.01  -0.01   0.00    -0.01   0.01  -0.01     0.00  -0.04  -0.02
   5   6    -0.01  -0.00  -0.00    -0.04   0.04  -0.01    -0.01  -0.06   0.02
   6  17     0.00  -0.00   0.00    -0.00   0.00   0.00     0.00   0.00  -0.00
   7   1    -0.11   0.66  -0.09     0.05  -0.07   0.00    -0.02  -0.03   0.01
   8   1    -0.02   0.28   0.61     0.03  -0.03  -0.07     0.01  -0.00  -0.02
   9   1    -0.01  -0.01  -0.04     0.04  -0.03  -0.03     0.00  -0.01   0.03
  10   1    -0.03  -0.07   0.00    -0.55  -0.32   0.09    -0.10  -0.03   0.01
  11   1    -0.03   0.01   0.09    -0.09   0.01   0.65    -0.03   0.03   0.10
  12   1     0.01  -0.03  -0.00     0.05   0.05  -0.01    -0.51  -0.34   0.11
  13   1     0.01  -0.01   0.01    -0.00   0.02  -0.08    -0.03  -0.04   0.65
  14   1     0.00  -0.00  -0.00     0.00   0.01   0.03     0.02   0.04   0.09
  15   1    -0.02   0.01   0.00     0.00   0.02  -0.00    -0.01   0.11  -0.01
  16   1     0.01   0.01   0.01     0.07   0.01   0.12    -0.02   0.05  -0.12
  17   1     0.01   0.00   0.00    -0.01  -0.03  -0.07     0.09   0.01   0.06
  18   1     0.02  -0.00  -0.00     0.10  -0.14  -0.00    -0.06   0.14  -0.01
                     34                     35                     36
                        a                      a                      a 
 Frequencies --  1512.0883              1516.1601              1521.0143
 Red. masses --     1.7299                 1.6889                 1.6478
 Frc consts  --     0.0000                 0.0000                 0.0000
 IR Inten    --     2.0136                 3.4667                 2.6929
 Raman Activ --     0.0000                 0.0000                 0.0000
 Depolar     --     0.0000                 0.0000                 0.0000
 Atom AN      X      Y      Z        X      Y      Z        X      Y      Z
   1   7    -0.00   0.00  -0.00     0.00   0.00   0.00    -0.01  -0.00   0.00
   2   6     0.03   0.00  -0.02     0.01   0.02  -0.03     0.01   0.02  -0.01
   3   6     0.00   0.01   0.01    -0.05  -0.03   0.06    -0.01  -0.01   0.02
   4   6     0.07   0.18   0.12    -0.00  -0.13  -0.04     0.01  -0.09  -0.09
   5   6     0.01  -0.11  -0.02     0.04  -0.15   0.10     0.07  -0.06  -0.18
   6  17    -0.00   0.00   0.00    -0.00   0.00   0.00    -0.00  -0.00   0.00
   7   1     0.02  -0.01  -0.00     0.01  -0.00  -0.00     0.01  -0.00  -0.00
   8   1     0.00  -0.00  -0.01     0.01  -0.00  -0.00     0.00  -0.00  -0.00
   9   1     0.01  -0.00  -0.01     0.01  -0.01  -0.01    -0.00  -0.00  -0.01
  10   1    -0.09  -0.03   0.02    -0.07  -0.05   0.01    -0.02  -0.03   0.01
  11   1    -0.02   0.00   0.10    -0.02   0.01   0.09     0.02  -0.04   0.02
  12   1     0.00  -0.00   0.00     0.16   0.10  -0.03     0.02   0.03  -0.01
  13   1    -0.00   0.01  -0.00     0.01   0.00  -0.20     0.00  -0.00  -0.04
  14   1    -0.12  -0.20  -0.52     0.01   0.09   0.26     0.03   0.08   0.20
  15   1    -0.06  -0.56   0.07     0.02   0.29  -0.03    -0.02   0.21  -0.03
  16   1    -0.10  -0.03  -0.15    -0.10   0.18  -0.51    -0.16  -0.38   0.27
  17   1     0.08   0.12   0.27     0.30  -0.00   0.09    -0.29   0.29   0.53
  18   1    -0.08   0.37  -0.03    -0.33   0.42   0.02     0.17   0.34  -0.08
                     37                     38                     39
                        a                      a                      a 
 Frequencies --  2828.0167              2909.3929              2927.9175
 Red. masses --     2.0049                 1.9339                 1.8831
 Frc consts  --     0.0000                 0.0000                 0.0000
 IR Inten    --  1782.4919                14.4951                 7.6188
 Raman Activ --     0.0000                 0.0000                 0.0000
 Depolar     --     0.0000                 0.0000                 0.0000
 Atom AN      X      Y      Z        X      Y      Z        X      Y      Z
   1   7     0.23   0.15   0.04    -0.00  -0.00   0.00    -0.00  -0.00  -0.00
   2   6    -0.01  -0.02  -0.01    -0.00  -0.00   0.01    -0.06  -0.04  -0.06
   3   6    -0.00  -0.00   0.00     0.01   0.01   0.03     0.16   0.09   0.18
   4   6     0.00   0.00  -0.00    -0.02   0.17  -0.23    -0.01  -0.06  -0.01
   5   6    -0.00   0.00  -0.00     0.00  -0.01   0.02    -0.00   0.00  -0.01
   6  17    -0.01  -0.01  -0.00     0.00   0.00  -0.00     0.00   0.00   0.00
   7   1     0.01   0.01  -0.03    -0.00  -0.00  -0.00     0.00  -0.00  -0.01
   8   1     0.02  -0.01   0.02    -0.00   0.00  -0.00    -0.00  -0.00   0.00
   9   1    -0.81  -0.49  -0.14     0.01   0.00   0.00     0.01   0.01   0.00
  10   1    -0.00  -0.00   0.01    -0.00  -0.00  -0.01     0.02   0.02   0.20
  11   1     0.06   0.05   0.01     0.01   0.00   0.00     0.20   0.12   0.02
  12   1     0.00   0.00  -0.00    -0.02  -0.01  -0.12    -0.09  -0.06  -0.62
  13   1     0.01   0.00   0.00    -0.01  -0.00   0.00    -0.50  -0.29  -0.03
  14   1    -0.00  -0.01   0.01    -0.03  -0.67   0.25     0.01   0.23  -0.10
  15   1    -0.00  -0.00  -0.01     0.09   0.08   0.60     0.02   0.00   0.17
  16   1     0.00  -0.00  -0.00    -0.01   0.00   0.01     0.00  -0.00  -0.00
  17   1     0.00  -0.00   0.00     0.01   0.07  -0.03    -0.00  -0.03   0.01
  18   1     0.00   0.00   0.00    -0.01  -0.01  -0.06     0.00   0.00   0.02
                     40                     41                     42
                        a                      a                      a 
 Frequencies --  2940.5995              2951.8264              2957.6950
 Red. masses --     1.5728                 1.9567                 1.5476
 Frc consts  --     0.0000                 0.0000                 0.0000
 IR Inten    --    27.2324                11.8103                 8.8452
 Raman Activ --     0.0000                 0.0000                 0.0000
 Depolar     --     0.0000                 0.0000                 0.0000
 Atom AN      X      Y      Z        X      Y      Z        X      Y      Z
   1   7     0.01   0.01   0.00     0.02   0.01   0.00     0.00  -0.00   0.00
   2   6     0.04   0.03   0.04     0.18   0.12   0.16     0.02   0.01   0.08
   3   6    -0.05  -0.03  -0.04     0.04   0.03   0.11     0.14   0.08  -0.12
   4   6    -0.03  -0.16  -0.12     0.01   0.01   0.03     0.00   0.01  -0.02
   5   6    -0.01   0.02   0.02     0.00  -0.02  -0.01    -0.01  -0.00   0.01
   6  17    -0.00  -0.00  -0.00    -0.00  -0.00  -0.00    -0.00   0.00   0.00
   7   1    -0.00   0.00   0.00     0.00  -0.00   0.01     0.00   0.00   0.01
   8   1     0.00  -0.00   0.00     0.00  -0.00   0.00    -0.00   0.00  -0.00
   9   1    -0.02  -0.01  -0.00    -0.05  -0.03  -0.01    -0.01  -0.00  -0.00
  10   1    -0.01  -0.01  -0.14    -0.04  -0.04  -0.47    -0.04  -0.04  -0.33
  11   1    -0.15  -0.09  -0.02    -0.60  -0.37  -0.08     0.00  -0.00   0.01
  12   1     0.02   0.01   0.13    -0.07  -0.04  -0.38     0.12   0.07   0.54
  13   1     0.16   0.09   0.01    -0.07  -0.04   0.01    -0.62  -0.36  -0.09
  14   1     0.02   0.52  -0.25    -0.00  -0.04   0.02    -0.00  -0.04   0.01
  15   1     0.10   0.03   0.70    -0.02  -0.01  -0.13     0.01   0.00   0.04
  16   1     0.05  -0.04  -0.02    -0.02   0.02   0.01     0.02  -0.02  -0.01
  17   1    -0.01  -0.04   0.03     0.01   0.05  -0.03     0.00   0.02  -0.01
  18   1    -0.02  -0.01  -0.09     0.01   0.00   0.04    -0.00  -0.00  -0.02
                     43                     44                     45
                        a                      a                      a 
 Frequencies --  2978.3884              2985.5450              2988.4339
 Red. masses --     1.5650                 1.8983                 1.9190
 Frc consts  --     0.0000                 0.0000                 0.0000
 IR Inten    --     7.3590                34.3783                57.9371
 Raman Activ --     0.0000                 0.0000                 0.0000
 Depolar     --     0.0000                 0.0000                 0.0000
 Atom AN      X      Y      Z        X      Y      Z        X      Y      Z
   1   7    -0.01  -0.01  -0.01    -0.00   0.00  -0.00     0.00   0.00   0.00
   2   6    -0.09  -0.05   0.17    -0.02  -0.01   0.03     0.03   0.02  -0.03
   3   6    -0.03  -0.02   0.05    -0.01  -0.01  -0.00     0.01   0.00  -0.02
   4   6    -0.00   0.00   0.01    -0.00  -0.03  -0.01    -0.00   0.01  -0.04
   5   6    -0.02   0.07  -0.05     0.14  -0.23  -0.07     0.01   0.08  -0.27
   6  17     0.00   0.00  -0.00     0.00   0.00   0.00    -0.00  -0.00   0.00
   7   1     0.00   0.00   0.03    -0.00   0.00   0.00    -0.00   0.00  -0.00
   8   1    -0.00  -0.00   0.00    -0.00  -0.00   0.00     0.00   0.00  -0.00
   9   1     0.03   0.02   0.01     0.00  -0.00  -0.00    -0.01  -0.00  -0.00
  10   1    -0.11  -0.09  -0.70    -0.02  -0.02  -0.12     0.02   0.02   0.13
  11   1     0.46   0.28   0.10     0.11   0.07   0.02    -0.12  -0.07  -0.02
  12   1    -0.04  -0.02  -0.18    -0.00   0.00   0.01     0.01   0.01   0.08
  13   1     0.15   0.09   0.02     0.03   0.02   0.00    -0.03  -0.02  -0.01
  14   1     0.00  -0.00   0.00     0.00   0.08  -0.04    -0.00  -0.04   0.01
  15   1    -0.00  -0.00  -0.03     0.01   0.00   0.05     0.01   0.01   0.10
  16   1     0.07  -0.05  -0.05    -0.60   0.49   0.32    -0.12   0.12   0.02
  17   1    -0.02  -0.21   0.10     0.05   0.34  -0.19    -0.04  -0.49   0.20
  18   1     0.01   0.02   0.11     0.04  -0.02   0.14     0.12   0.09   0.72
                     46                     47                     48
                        a                      a                      a 
 Frequencies --  3004.0691              3189.0063              3203.5429
 Red. masses --     1.2861                 1.9187                 1.6131
 Frc consts  --     0.0000                 0.0000                 0.0000
 IR Inten    --    28.7635                43.9642                25.0282
 Raman Activ --     0.0000                 0.0000                 0.0000
 Depolar     --     0.0000                 0.0000                 0.0000
 Atom AN      X      Y      Z        X      Y      Z        X      Y      Z
   1   7     0.00   0.00   0.00     0.04  -0.20   0.17     0.01   0.08   0.20
   2   6     0.01   0.01  -0.00     0.00  -0.00   0.00    -0.00   0.00   0.01
   3   6     0.01   0.01   0.00    -0.00   0.00  -0.00    -0.00  -0.00  -0.00
   4   6     0.01   0.02   0.01    -0.00  -0.00   0.00     0.00  -0.00   0.00
   5   6     0.12   0.10   0.03     0.00  -0.00  -0.00    -0.00   0.00  -0.00
   6  17     0.00  -0.00  -0.00     0.00   0.00  -0.00    -0.00  -0.00  -0.00
   7   1     0.00   0.00  -0.00    -0.03  -0.06  -0.25    -0.12  -0.11  -0.92
   8   1     0.00  -0.00   0.00    -0.09   0.83  -0.41     0.03  -0.23   0.14
   9   1    -0.00  -0.00  -0.00    -0.02  -0.03   0.01     0.04   0.03   0.02
  10   1     0.00   0.00   0.02    -0.00   0.00  -0.01    -0.00  -0.00  -0.02
  11   1    -0.05  -0.03  -0.01    -0.00   0.00  -0.00     0.01   0.00   0.00
  12   1     0.00  -0.00  -0.01    -0.00   0.00  -0.00    -0.00   0.00   0.00
  13   1    -0.03  -0.02  -0.00     0.00   0.00   0.00     0.00   0.00   0.00
  14   1     0.00  -0.04   0.02     0.00   0.00  -0.00     0.00  -0.00  -0.00
  15   1    -0.00  -0.00  -0.04     0.00  -0.00  -0.00     0.00  -0.00  -0.00
  16   1    -0.30   0.28   0.17    -0.00   0.00   0.00     0.00  -0.00  -0.00
  17   1    -0.04  -0.59   0.29     0.00  -0.00   0.00    -0.00  -0.00   0.00
  18   1    -0.08  -0.05  -0.58    -0.00  -0.00  -0.00     0.00   0.00   0.00
