      -----------------------------------------------------------      
     |                   =====================                   |     
     |                           x T B                           |     
     |                   =====================                   |     
     |                         S. Grimme                         |     
     |          Mulliken Center for Theoretical Chemistry        |     
     |                    University of Bonn                     |     
      -----------------------------------------------------------      

   * xtb version 6.5.1 (fef0646) compiled by 'conda@b96dff2e9fd6' on 2023-01-04

   xtb is free software: you can redistribute it and/or modify it under
   the terms of the GNU Lesser General Public License as published by
   the Free Software Foundation, either version 3 of the License, or
   (at your option) any later version.
   
   xtb is distributed in the hope that it will be useful,
   but WITHOUT ANY WARRANTY; without even the implied warranty of
   MERCHANTABILITY or FITNESS FOR A PARTICULAR PURPOSE.  See the
   GNU Lesser General Public License for more details.
   
   Cite this work as:
   * C. Bannwarth, E. Caldeweyher, S. Ehlert, A. Hansen, P. Pracht,
     J. Seibert, S. Spicher, S. Grimme, WIREs Comput. Mol. Sci., 2020, 11,
     e01493. DOI: 10.1002/wcms.1493
   
   for GFN2-xTB:
   * C. Bannwarth, S. Ehlert and S. Grimme., J. Chem. Theory Comput., 2019,
     15, 1652-1671. DOI: 10.1021/acs.jctc.8b01176
   for GFN1-xTB:
   * S. Grimme, C. Bannwarth, P. Shushkov, J. Chem. Theory Comput., 2017,
     13, 1989-2009. DOI: 10.1021/acs.jctc.7b00118
   for GFN0-xTB:
   * P. Pracht, E. Caldeweyher, S. Ehlert, S. Grimme, ChemRxiv, 2019, preprint.
     DOI: 10.26434/chemrxiv.8326202.v1
   for GFN-FF:
   * S. Spicher and S. Grimme, Angew. Chem. Int. Ed., 2020, 59, 15665-15673.
     DOI: 10.1002/anie.202004239
   
   for ALPB and GBSA implicit solvation:
   * S. Ehlert, M. Stahn, S. Spicher, S. Grimme, J. Chem. Theory Comput.,
     2021, 17, 4250-4261. DOI: 10.1021/acs.jctc.1c00471
   
   for DFT-D4:
   * E. Caldeweyher, C. Bannwarth and S. Grimme, J. Chem. Phys., 2017,
     147, 034112. DOI: 10.1063/1.4993215
   * E. Caldeweyher, S. Ehlert, A. Hansen, H. Neugebauer, S. Spicher,
     C. Bannwarth and S. Grimme, J. Chem. Phys., 2019, 150, 154122.
     DOI: 10.1063/1.5090222
   * E. Caldeweyher, J.-M. Mewes, S. Ehlert and S. Grimme, Phys. Chem. Chem. Phys.
     2020, 22, 8499-8512. DOI: 10.1039/D0CP00502A
   
   for sTDA-xTB:
   * S. Grimme and C. Bannwarth, J. Chem. Phys., 2016, 145, 054103.
     DOI: 10.1063/1.4959605
   
   in the mass-spec context:
   * V. Asgeirsson, C. Bauer and S. Grimme, Chem. Sci., 2017, 8, 4879.
     DOI: 10.1039/c7sc00601b
   * J. Koopman and S. Grimme, ACS Omega 2019, 4, 12, 15120-15133.
     DOI: 10.1021/acsomega.9b02011
   
   for metadynamics refer to:
   * S. Grimme, J. Chem. Theory Comput., 2019, 155, 2847-2862
     DOI: 10.1021/acs.jctc.9b00143
   
   for SPH calculations refer to:
   * S. Spicher and S. Grimme, J. Chem. Theory Comput., 2021, 17, 1701-1714
     DOI: 10.1021/acs.jctc.0c01306
   
   with help from (in alphabetical order)
   P. Atkinson, C. Bannwarth, F. Bohle, G. Brandenburg, E. Caldeweyher
   M. Checinski, S. Dohm, S. Ehlert, S. Ehrlich, I. Gerasimov, C. Hölzer
   A. Katbashev, J. Koopman, C. Lavigne, S. Lehtola, F. März, M. Müller,
   F. Musil, H. Neugebauer, J. Pisarek, C. Plett, P. Pracht, F. Pultar,
   J. Seibert, P. Shushkov, S. Spicher, M. Stahn, M. Steiner, T. Strunk,
   J. Stückrath, T. Rose, and J. Unsleber
   
 * started run on 2023/01/24 at 16:11:50.199     

           -------------------------------------------------
          |                Calculation Setup                |
           -------------------------------------------------

          program call               : xtb init.xyz --opt -c 1 -u 0 -P 16 --alpb water
          hostname                   : gpg-woodward
          coordinate file            : init.xyz
          omp threads                :                    16

   ID    Z sym.   atoms
    1    7 N      1
    2    6 C      2-9
    3    1 H      10-29

           -------------------------------------------------
          |                 G F N 2 - x T B                 |
           -------------------------------------------------

        Reference                      10.1021/acs.jctc.8b01176
      * Hamiltonian:
        H0-scaling (s, p, d)           1.850000    2.230000    2.230000
        zeta-weighting                 0.500000
      * Dispersion:
        s8                             2.700000
        a1                             0.520000
        a2                             5.000000
        s9                             5.000000
      * Repulsion:
        kExp                           1.500000    1.000000
        rExp                           1.000000
      * Coulomb:
        alpha                          2.000000
        third order                    shell-resolved
        anisotropic                    true
        a3                             3.000000
        a5                             4.000000
        cn-shift                       1.200000
        cn-exp                         4.000000
        max-rad                        5.000000

      * Solvation model:               ALPB
        Solvent                        water
        Parameter file                 internal GFN2-xTB/ALPB
        Dielectric constant                8.0200E+01
        Reference state                gsolv [1 M gas/solution]
        Free energy shift                  1.0808E-03 Eh       6.7819E-01 kcal/mol
        Temperature                        2.9815E+02 K
        Density                            1.0000E+00 kg/L
        Solvent mass                       1.8000E+01 g/mol
        Interaction kernel             P16
        Born radius scaling (c1)           1.4744E+00
        Born radii integrator          GBOBC
        Born offset                        0.0000E+00 a0       0.0000E+00 AA
        H-bond correction              true
        Ion screening                  false
        Surface tension                    1.0000E-05 Eh       1.5569E+01 dyn/cm
        Grid points                               230 per atom

          ...................................................
          :                      SETUP                      :
          :.................................................:
          :  # basis functions                  56          :
          :  # atomic orbitals                  56          :
          :  # shells                           38          :
          :  # electrons                        56          :
          :  max. iterations                   250          :
          :  Hamiltonian                  GFN2-xTB          :
          :  restarted?                      false          :
          :  GBSA solvation                   true          :
          :  PC potential                    false          :
          :  electronic temp.          300.0000000     K    :
          :  accuracy                    1.0000000          :
          :  -> integral cutoff          0.2500000E+02      :
          :  -> integral neglect         0.1000000E-07      :
          :  -> SCF convergence          0.1000000E-05 Eh   :
          :  -> wf. convergence          0.1000000E-03 e    :
          :  Broyden damping             0.4000000          :
          ...................................................

 iter      E             dE          RMSdq      gap      omega  full diag
   1    -30.2824378 -0.302824E+02  0.305E+00   11.55       0.0  T
   2    -30.3608772 -0.784395E-01  0.168E+00   10.34       1.0  T
   3    -30.3648024 -0.392519E-02  0.867E-01    9.88       1.0  T
   4    -30.3651972 -0.394763E-03  0.122E-01    9.84       1.0  T
   5    -30.3652152 -0.179745E-04  0.673E-02    9.85       1.0  T
   6    -30.3652184 -0.322324E-05  0.102E-02    9.88       1.8  T
   7    -30.3652187 -0.290085E-06  0.574E-03    9.88       3.2  T
   8    -30.3652187 -0.199159E-07  0.830E-04    9.88      22.4  T
   9    -30.3652187 -0.502496E-08  0.174E-04    9.88     106.9  T

   *** convergence criteria satisfied after 9 iterations ***

         #    Occupation            Energy/Eh            Energy/eV
      -------------------------------------------------------------
         1        2.0000           -0.6934403             -18.8695
       ...           ...                  ...                  ...
        22        2.0000           -0.4481798             -12.1956
        23        2.0000           -0.4398886             -11.9700
        24        2.0000           -0.4310574             -11.7297
        25        2.0000           -0.4304229             -11.7124
        26        2.0000           -0.4203130             -11.4373
        27        2.0000           -0.4168081             -11.3419
        28        2.0000           -0.4165171             -11.3340 (HOMO)
        29                         -0.0534694              -1.4550 (LUMO)
        30                          0.0498670               1.3570
        31                          0.0718184               1.9543
        32                          0.0870868               2.3698
        33                          0.0973745               2.6497
       ...                                ...                  ...
        56                          0.3162143               8.6046
      -------------------------------------------------------------
                  HL-Gap            0.3630477 Eh            9.8790 eV
             Fermi-level           -0.2349933 Eh           -6.3945 eV

 SCC (total)                   0 d,  0 h,  0 min,  0.022 sec
 SCC setup                      ...        0 min,  0.000 sec (  1.702%)
 Dispersion                     ...        0 min,  0.000 sec (  1.906%)
 classical contributions        ...        0 min,  0.000 sec (  0.280%)
 integral evaluation            ...        0 min,  0.001 sec (  3.680%)
 iterations                     ...        0 min,  0.018 sec ( 79.896%)
 molecular gradient             ...        0 min,  0.002 sec ( 10.480%)
 printout                       ...        0 min,  0.000 sec (  0.647%)

         :::::::::::::::::::::::::::::::::::::::::::::::::::::
         ::                     SUMMARY                     ::
         :::::::::::::::::::::::::::::::::::::::::::::::::::::
         :: total energy             -29.936081842228 Eh    ::
         :: total w/o Gsasa/hb       -29.924843232657 Eh    ::
         :: gradient norm              0.024509673402 Eh/a0 ::
         :: HOMO-LUMO gap              9.879030330943 eV    ::
         ::.................................................::
         :: SCC energy               -30.365218689207 Eh    ::
         :: -> isotropic ES            0.126206507820 Eh    ::
         :: -> anisotropic ES         -0.008075902808 Eh    ::
         :: -> anisotropic XC          0.021405455003 Eh    ::
         :: -> dispersion             -0.016003377329 Eh    ::
         :: -> Gsolv                  -0.117773942305 Eh    ::
         ::    -> Gelec               -0.106535332733 Eh    ::
         ::    -> Gsasa               -0.001137435221 Eh    ::
         ::    -> Ghb                 -0.011181934049 Eh    ::
         ::    -> Gshift               0.001080759698 Eh    ::
         :: repulsion energy           0.429275828644 Eh    ::
         :: add. restraining           0.000000000000 Eh    ::
         :: total charge               1.000000000000 e     ::
         :::::::::::::::::::::::::::::::::::::::::::::::::::::

      ----------------------------------------------------------- 
     |                   =====================                   |
     |                        A N C O P T                        |
     |                   =====================                   |
     |               Approximate Normal Coordinate               |
     |                Rational Function Optimizer                |
      ----------------------------------------------------------- 

          ...................................................
          :                      SETUP                      :
          :.................................................:
          :   optimization level            normal          :
          :   max. optcycles                   200          :
          :   ANC micro-cycles                  20          :
          :   degrees of freedom                81          :
          :.................................................:
          :   RF solver                   davidson          :
          :   write xtbopt.log                true          :
          :   linear?                        false          :
          :   energy convergence         0.5000000E-05 Eh   :
          :   grad. convergence          0.1000000E-02 Eh/α :
          :   maximium RF displ.         1.0000000          :
          :   Hlow (freq-cutoff)         0.1000000E-01      :
          :   Hmax (freq-cutoff)         5.0000000          :
          :   S6 in model hess.         20.0000000          :
          ...................................................

generating ANC from model Hessian ...
Using Lindh-Hessian (1995)
 Shifting diagonal of input Hessian by    9.3892141148351604E-003
 Lowest  eigenvalues of input Hessian
    0.000000    0.000000    0.000000    0.000000    0.000000    0.000000
    0.010000    0.010202    0.011172    0.012319    0.013581    0.013606
    0.016121    0.016148    0.016615    0.020274    0.020772    0.024407
 Highest eigenvalues
    1.247253    1.270179    1.304348    1.406871    1.407670    1.456116


........................................................................
.............................. CYCLE    1 ..............................
........................................................................
   1    -30.3652187 -0.303652E+02  0.761E-05    9.88       0.0  T
   2    -30.3652187 -0.729017E-11  0.461E-05    9.88     402.7  T
   3    -30.3652187 -0.891731E-12  0.106E-05    9.88    1750.3  T
     SCC iter.                  ...        0 min,  0.006 sec
     gradient                   ...        0 min,  0.002 sec
 * total energy  :   -29.9360818 Eh     change       -0.7768719E-10 Eh
   gradient norm :     0.0245104 Eh/α   predicted     0.0000000E+00 (-100.00%)
   displ. norm   :     0.1802399 α      lambda       -0.2525364E-02
   maximum displ.:     0.1275749 α      in ANC's #7, #29, #31, ...

........................................................................
.............................. CYCLE    2 ..............................
........................................................................
   1    -30.3753316 -0.303753E+02  0.155E-01    9.84       0.0  T
   2    -30.3753394 -0.773186E-05  0.907E-02    9.85       1.0  T
   3    -30.3753404 -0.100768E-05  0.662E-03    9.86       2.8  T
   4    -30.3753405 -0.115782E-06  0.270E-03    9.87       6.9  T
   5    -30.3753405 -0.470892E-08  0.126E-03    9.87      14.8  T
   6    -30.3753405 -0.140809E-08  0.181E-04    9.87     102.5  T
   7    -30.3753405 -0.680238E-10  0.105E-04    9.87     177.5  T
     SCC iter.                  ...        0 min,  0.027 sec
     gradient                   ...        0 min,  0.002 sec
 * total energy  :   -29.9375095 Eh     change       -0.1427706E-02 Eh
   gradient norm :     0.0095484 Eh/α   predicted    -0.1303711E-02 (  -8.68%)
   displ. norm   :     0.0496320 α      lambda       -0.1833518E-03
   maximum displ.:     0.0346495 α      in ANC's #7, #11, #53, ...

........................................................................
.............................. CYCLE    3 ..............................
........................................................................
   1    -30.3765678 -0.303766E+02  0.288E-02    9.90       0.0  T
   2    -30.3765693 -0.151690E-05  0.165E-02    9.90       1.1  T
   3    -30.3765694 -0.601470E-07  0.414E-03    9.90       4.5  T
   4    -30.3765694 -0.237094E-07  0.837E-04    9.90      22.2  T
   5    -30.3765694 -0.104271E-08  0.426E-04    9.90      43.5  T
     SCC iter.                  ...        0 min,  0.009 sec
     gradient                   ...        0 min,  0.002 sec
 * total energy  :   -29.9376244 Eh     change       -0.1148107E-03 Eh
   gradient norm :     0.0032096 Eh/α   predicted    -0.9259902E-04 ( -19.35%)
   displ. norm   :     0.0264091 α      lambda       -0.2741787E-04
   maximum displ.:     0.0153336 α      in ANC's #7, #11, #5, ...

........................................................................
.............................. CYCLE    4 ..............................
........................................................................
   1    -30.3764841 -0.303765E+02  0.964E-03    9.92       0.0  T
   2    -30.3764843 -0.203965E-06  0.557E-03    9.92       3.3  T
   3    -30.3764843 -0.963489E-08  0.142E-03    9.92      13.0  T
   4    -30.3764843 -0.319590E-08  0.310E-04    9.92      59.9  T
   5    -30.3764843 -0.115715E-09  0.147E-04    9.92     126.7  T
     SCC iter.                  ...        0 min,  0.008 sec
     gradient                   ...        0 min,  0.002 sec
 * total energy  :   -29.9376402 Eh     change       -0.1579933E-04 Eh
   gradient norm :     0.0005785 Eh/α   predicted    -0.1371941E-04 ( -13.16%)
   displ. norm   :     0.0196573 α      lambda       -0.2615722E-05
   maximum displ.:     0.0095068 α      in ANC's #2, #5, #3, ...

........................................................................
.............................. CYCLE    5 ..............................
........................................................................
   1    -30.3762926 -0.303763E+02  0.518E-03    9.93       0.0  T
   2    -30.3762927 -0.101966E-07  0.300E-03    9.93       6.2  T
   3    -30.3762927 -0.247788E-08  0.251E-04    9.93      73.9  T
   4    -30.3762927 -0.197698E-09  0.132E-04    9.93     140.3  T
     SCC iter.                  ...        0 min,  0.007 sec
     gradient                   ...        0 min,  0.002 sec
 * total energy  :   -29.9376424 Eh     change       -0.2226164E-05 Eh
   gradient norm :     0.0004792 Eh/α   predicted    -0.1308944E-05 ( -41.20%)
   displ. norm   :     0.0174757 α      lambda       -0.1144195E-05
   maximum displ.:     0.0102481 α      in ANC's #2, #3, #5, ...

   *** GEOMETRY OPTIMIZATION CONVERGED AFTER 5 ITERATIONS ***

------------------------------------------------------------------------
 total energy gain   :        -0.0015605 Eh       -0.9793 kcal/mol
 total RMSD          :         0.0450130 a0        0.0238 Å
 total power (kW/mol):        -0.8194405 (step)  -43.8978 (real)
------------------------------------------------------------------------

 ANCopt (total)                0 d,  0 h,  0 min,  0.093 sec
 optimizer setup                ...        0 min,  0.000 sec (  0.169%)
 model hessian                  ...        0 min,  0.011 sec ( 11.505%)
 ANC generation                 ...        0 min,  0.004 sec (  4.238%)
 coordinate transformation      ...        0 min,  0.000 sec (  0.184%)
 single point calculation       ...        0 min,  0.076 sec ( 81.295%)
 optimization log               ...        0 min,  0.001 sec (  0.764%)
 hessian update                 ...        0 min,  0.000 sec (  0.265%)
 rational function              ...        0 min,  0.001 sec (  0.562%)

================
 final structure:
================
29
 xtb: 6.5.1 (fef0646)
N            0.97711009099084       -0.05561144085812       -0.10751464029992
C            2.46067430183856       -0.05948244441487       -0.09888251311964
C            2.98959250059739        0.15441751990101        1.31492113158178
C            4.51782613923919        0.15787815496377        1.33485536136556
C            5.05837093297589        0.37039401622766        2.74774327066263
C            6.58487448980505        0.37740826248513        2.78200733761193
C            7.12172121586272        0.59000319692314        4.19563838047677
C            8.64813859538267        0.59791056991613        4.23732732880755
C            9.17569036977880        0.81039214291994        5.65164096028264
H            0.61708129368802       -0.20320700434425       -1.05713450848988
H            0.62476213626397        0.84270172431088        0.24402912575438
H            0.61988969233894       -0.80138825427578        0.50129752132024
H            2.82491770799944        0.73391303006109       -0.75123760264108
H            2.81862131331123       -1.01405095411456       -0.48405694928807
H            2.63786550838466       -0.64017423344677        1.97419022013767
H            2.63749104203643        1.10805948115818        1.71020581614773
H            4.89614513485623        0.95178460626924        0.68822489199820
H            4.89679981914499       -0.79073540131214        0.95011437642528
H            4.69427069822151       -0.42318239552051        3.40411725848550
H            4.69216410096579        1.32068126684476        3.14269010475444
H            6.96254185347390        1.17185542513744        2.13380928332998
H            6.96470114846548       -0.57127129234169        2.39514576144196
H            6.75184261669181       -0.20383511030157        4.84919416894988
H            6.74995753329011        1.53984681243968        4.58767605776509
H            9.02468530621298        1.39251549299514        3.58886603929000
H            9.02655553013904       -0.35108310848090        3.85017404069757
H            8.82870117246807        1.76129285204345        6.05043102687374
H           10.26319293048357        0.81292921397386        5.65914631039340
H            8.83096482509267        0.01712787084068        6.31160043928467

 Bond Distances (Angstroems)
 ---------------------------
N1-C2=1.4836         N1-H10=1.0262        N1-H11=1.0270        N1-H12=1.0269        C2-N1=1.4836         C2-C3=1.5246         
C2-H13=1.0898        C2-H14=1.0898        C3-C2=1.5246         C3-C4=1.5284         C3-H15=1.0907        C3-H16=1.0907        
C4-C3=1.5284         C4-C5=1.5276         C4-H17=1.0916        C4-H18=1.0916        C5-C4=1.5276         C5-C6=1.5269         
C5-H19=1.0923        C5-H20=1.0923        C6-C5=1.5269         C6-C7=1.5270         C6-H21=1.0927        C6-H22=1.0927        
C7-C6=1.5270         C7-C8=1.5270         C7-H23=1.0928        C7-H24=1.0928        C8-C7=1.5270         C8-C9=1.5244         
C8-H25=1.0926        C8-H26=1.0926        C9-C8=1.5244         C9-H27=1.0880        C9-H28=1.0875        C9-H29=1.0880        
H10-N1=1.0262        H11-N1=1.0270        H12-N1=1.0269        H13-C2=1.0898        H14-C2=1.0898        H15-C3=1.0907        
H16-C3=1.0907        H17-C4=1.0916        H18-C4=1.0916        H19-C5=1.0923        H20-C5=1.0923        H21-C6=1.0927        
H22-C6=1.0927        H23-C7=1.0928        H24-C7=1.0928        H25-C8=1.0926        H26-C8=1.0926        H27-C9=1.0880        
H28-C9=1.0875        H29-C9=1.0880        
 C  H  Rav=1.0911 sigma=0.0018  Rmin=1.0875  Rmax=1.0928    17
 C  C  Rav=1.5266 sigma=0.0014  Rmin=1.5244  Rmax=1.5284     7
 N  H  Rav=1.0267 sigma=0.0003  Rmin=1.0262  Rmax=1.0270     3
 N  C  Rav=1.4836 sigma=0.0000  Rmin=1.4836  Rmax=1.4836     1

 selected bond angles (degree)
 --------------------
H10-N1-C2=110.84               H11-N1-C2=110.08               H11-N1-H10=108.80              H12-N1-C2=110.03               
H12-N1-H10=108.79              H12-N1-H11=108.24              C3-C2-N1=110.61                H13-C2-N1=109.20               
H13-C2-C3=109.69               H14-C2-N1=109.19               H14-C2-C3=109.68               H14-C2-H13=108.44              
C4-C3-C2=111.06                H15-C3-C2=110.27               H15-C3-C4=108.43               H16-C3-C2=110.29               
H16-C3-C4=108.43               H16-C3-H15=108.29              C5-C4-C3=111.48                H17-C4-C3=109.91               
H17-C4-C5=108.91               H18-C4-C3=109.91               H18-C4-C5=108.91               H18-C4-H17=107.63              
C6-C5-C4=112.03                H19-C5-C4=109.68               H19-C5-C6=108.85               H20-C5-C4=109.68               
H20-C5-C6=108.85               H20-C5-H19=107.64              C7-C6-C5=111.89                H21-C6-C5=109.61               
H21-C6-C7=109.05               H22-C6-C5=109.61               H22-C6-C7=109.05               H22-C6-H21=107.52              
C8-C7-C6=112.17                H23-C7-C6=109.48               H23-C7-C8=109.01               H24-C7-C6=109.48               
H24-C7-C8=109.01               H24-C7-H23=107.56              C9-C8-C7=111.84                H25-C8-C7=109.39               
H25-C8-C9=109.27               H26-C8-C7=109.39               H26-C8-C9=109.27               H26-C8-H25=107.58              
H27-C9-C8=110.58               H28-C9-C8=110.66               H28-C9-H27=108.32              H29-C9-C8=110.58               
H29-C9-H27=108.29              H29-C9-H28=108.32              

 selected dihedral angles (degree)
 ---------------------------------
C3-C2-N1-H10=180.23           C3-C2-N1-H11= 59.82           C3-C2-N1-H12=300.61           H13-C2-N1-H10= 59.42          
H13-C2-N1-H11=299.01          H13-C2-N1-H12=179.80          H14-C2-N1-H10=301.01          H14-C2-N1-H11=180.60          
H14-C2-N1-H12= 61.39          C4-C3-C2-N1=180.23            C4-C3-C2-H13=300.74           C4-C3-C2-H14= 59.74           
H15-C3-C2-N1= 60.00           H15-C3-C2-H13=180.52          H15-C3-C2-H14=299.52          H16-C3-C2-N1=300.46           
H16-C3-C2-H13= 60.97          H16-C3-C2-H14=179.97          C5-C4-C3-C2=180.05            C5-C4-C3-H15=301.36           
C5-C4-C3-H16= 58.72           H17-C4-C3-C2= 59.19           H17-C4-C3-H15=180.50          H17-C4-C3-H16=297.87          
H18-C4-C3-C2=300.91           H18-C4-C3-H15= 62.22          H18-C4-C3-H16=179.58          C6-C5-C4-C3=180.06            
C6-C5-C4-H17=301.49           C6-C5-C4-H18= 58.61           H19-C5-C4-C3= 59.06           H19-C5-C4-H17=180.50          
H19-C5-C4-H18=297.62          H20-C5-C4-C3=301.05           H20-C5-C4-H17= 62.49          H20-C5-C4-H18=179.60          
C7-C6-C5-C4=180.00            C7-C6-C5-H19=301.47           C7-C6-C5-H20= 58.53           H21-C6-C5-C4= 58.89           
H21-C6-C5-H19=180.36          H21-C6-C5-H20=297.42          H22-C6-C5-C4=301.11           H22-C6-C5-H19= 62.58          
H22-C6-C5-H20=179.63          C8-C7-C6-C5=179.99            C8-C7-C6-H21=301.42           C8-C7-C6-H22= 58.56           
H23-C7-C6-C5= 58.84           H23-C7-C6-H21=180.26          H23-C7-C6-H22=297.41          H24-C7-C6-C5=301.15           
H24-C7-C6-H21= 62.57          H24-C7-C6-H22=179.72          C9-C8-C7-C6=180.01            C9-C8-C7-H23=301.43           
C9-C8-C7-H24= 58.58           H25-C8-C7-C6= 58.81           H25-C8-C7-H23=180.24          H25-C8-C7-H24=297.38          
H26-C8-C7-C6=301.20           H26-C8-C7-H23= 62.63          H26-C8-C7-H24=179.78          H27-C9-C8-C7=300.04           
H27-C9-C8-H25= 61.31          H27-C9-C8-H26=178.77          H28-C9-C8-C7=180.01           H28-C9-C8-H25=301.28          
H28-C9-C8-H26= 58.75          H29-C9-C8-C7= 59.98           H29-C9-C8-H25=181.26          H29-C9-C8-H26=298.72          
           -------------------------------------------------
          |                Final Singlepoint                |
           -------------------------------------------------

          ...................................................
          :                      SETUP                      :
          :.................................................:
          :  # basis functions                  56          :
          :  # atomic orbitals                  56          :
          :  # shells                           38          :
          :  # electrons                        56          :
          :  max. iterations                   250          :
          :  Hamiltonian                  GFN2-xTB          :
          :  restarted?                      false          :
          :  GBSA solvation                   true          :
          :  PC potential                    false          :
          :  electronic temp.          300.0000000     K    :
          :  accuracy                    1.0000000          :
          :  -> integral cutoff          0.2500000E+02      :
          :  -> integral neglect         0.1000000E-07      :
          :  -> SCF convergence          0.1000000E-05 Eh   :
          :  -> wf. convergence          0.1000000E-03 e    :
          :  Broyden damping             0.4000000          :
          ...................................................

 iter      E             dE          RMSdq      gap      omega  full diag
   1    -30.3762927 -0.303763E+02  0.361E-05    9.93       0.0  T
   2    -30.3762927 -0.240874E-11  0.221E-05    9.93     838.9  T
   3    -30.3762927 -0.326850E-12  0.810E-06    9.93    2293.9  T

   *** convergence criteria satisfied after 3 iterations ***

         #    Occupation            Energy/Eh            Energy/eV
      -------------------------------------------------------------
         1        2.0000           -0.6923843             -18.8407
       ...           ...                  ...                  ...
        22        2.0000           -0.4491038             -12.2207
        23        2.0000           -0.4388842             -11.9426
        24        2.0000           -0.4322599             -11.7624
        25        2.0000           -0.4282393             -11.6530
        26        2.0000           -0.4211284             -11.4595
        27        2.0000           -0.4201209             -11.4321
        28        2.0000           -0.4164921             -11.3333 (HOMO)
        29                         -0.0517386              -1.4079 (LUMO)
        30                          0.0387380               1.0541
        31                          0.0659331               1.7941
        32                          0.0918127               2.4983
        33                          0.0962133               2.6181
       ...                                ...                  ...
        56                          0.3226466               8.7797
      -------------------------------------------------------------
                  HL-Gap            0.3647535 Eh            9.9254 eV
             Fermi-level           -0.2341153 Eh           -6.3706 eV

 SCC (total)                   0 d,  0 h,  0 min,  0.009 sec
 SCC setup                      ...        0 min,  0.000 sec (  2.586%)
 Dispersion                     ...        0 min,  0.000 sec (  2.534%)
 classical contributions        ...        0 min,  0.000 sec (  0.446%)
 integral evaluation            ...        0 min,  0.001 sec (  7.159%)
 iterations                     ...        0 min,  0.005 sec ( 59.025%)
 molecular gradient             ...        0 min,  0.002 sec ( 24.592%)
 printout                       ...        0 min,  0.000 sec (  1.603%)

         :::::::::::::::::::::::::::::::::::::::::::::::::::::
         ::                     SUMMARY                     ::
         :::::::::::::::::::::::::::::::::::::::::::::::::::::
         :: total energy             -29.937642384184 Eh    ::
         :: total w/o Gsasa/hb       -29.926156860262 Eh    ::
         :: gradient norm              0.000481367915 Eh/a0 ::
         :: HOMO-LUMO gap              9.925448510939 eV    ::
         ::.................................................::
         :: SCC energy               -30.376292652846 Eh    ::
         :: -> isotropic ES            0.126555188049 Eh    ::
         :: -> anisotropic ES         -0.009274696111 Eh    ::
         :: -> anisotropic XC          0.020754296190 Eh    ::
         :: -> dispersion             -0.015947160370 Eh    ::
         :: -> Gsolv                  -0.118144165174 Eh    ::
         ::    -> Gelec               -0.106658641251 Eh    ::
         ::    -> Gsasa               -0.001153657209 Eh    ::
         ::    -> Ghb                 -0.011412626412 Eh    ::
         ::    -> Gshift               0.001080759698 Eh    ::
         :: repulsion energy           0.438791864440 Eh    ::
         :: add. restraining           0.000000000000 Eh    ::
         :: total charge               1.000000000000 e     ::
         :::::::::::::::::::::::::::::::::::::::::::::::::::::

           -------------------------------------------------
          |                Property Printout                |
           -------------------------------------------------

    * Orbital Energies and Occupations

         #    Occupation            Energy/Eh            Energy/eV
      -------------------------------------------------------------
         1        2.0000           -0.6923843             -18.8407
       ...           ...                  ...                  ...
        16        2.0000           -0.4942181             -13.4484
        17        2.0000           -0.4935479             -13.4301
        18        2.0000           -0.4755153             -12.9394
        19        2.0000           -0.4707289             -12.8092
        20        2.0000           -0.4640289             -12.6269
        21        2.0000           -0.4539475             -12.3525
        22        2.0000           -0.4491038             -12.2207
        23        2.0000           -0.4388842             -11.9426
        24        2.0000           -0.4322599             -11.7624
        25        2.0000           -0.4282393             -11.6530
        26        2.0000           -0.4211284             -11.4595
        27        2.0000           -0.4201209             -11.4321
        28        2.0000           -0.4164921             -11.3333 (HOMO)
        29                         -0.0517386              -1.4079 (LUMO)
        30                          0.0387380               1.0541
        31                          0.0659331               1.7941
        32                          0.0918127               2.4983
        33                          0.0962133               2.6181
        34                          0.1100607               2.9949
        35                          0.1174514               3.1960
        36                          0.1212727               3.3000
        37                          0.1342497               3.6531
        38                          0.1446592               3.9364
        39                          0.1505943               4.0979
       ...                                ...                  ...
        56                          0.3226466               8.7797
      -------------------------------------------------------------
                  HL-Gap            0.3647535 Eh            9.9254 eV
             Fermi-level           -0.2341153 Eh           -6.3706 eV

     #   Z          covCN         q      C6AA      α(0)
     1   7 N        3.485    -0.162    24.492     7.350
     2   6 C        3.732    -0.038    21.344     6.594
     3   6 C        3.803    -0.086    22.137     6.698
     4   6 C        3.804    -0.071    21.850     6.655
     5   6 C        3.803    -0.067    21.783     6.645
     6   6 C        3.803    -0.065    21.737     6.638
     7   6 C        3.803    -0.064    21.725     6.636
     8   6 C        3.801    -0.058    21.615     6.619
     9   6 C        3.752    -0.110    22.659     6.788
    10   1 H        0.859     0.316     0.667     1.280
    11   1 H        0.859     0.309     0.688     1.299
    12   1 H        0.859     0.309     0.688     1.300
    13   1 H        0.925     0.107     1.723     2.053
    14   1 H        0.925     0.107     1.722     2.052
    15   1 H        0.924     0.066     2.127     2.281
    16   1 H        0.924     0.066     2.125     2.280
    17   1 H        0.924     0.043     2.410     2.428
    18   1 H        0.924     0.043     2.410     2.428
    19   1 H        0.924     0.037     2.495     2.470
    20   1 H        0.924     0.037     2.494     2.470
    21   1 H        0.924     0.030     2.581     2.512
    22   1 H        0.924     0.030     2.581     2.512
    23   1 H        0.924     0.031     2.574     2.509
    24   1 H        0.924     0.031     2.573     2.509
    25   1 H        0.924     0.029     2.605     2.524
    26   1 H        0.924     0.029     2.604     2.524
    27   1 H        0.925     0.035     2.522     2.483
    28   1 H        0.925     0.031     2.568     2.506
    29   1 H        0.925     0.035     2.522     2.484

 Mol. C6AA /au·bohr⁶  :       5033.367232
 Mol. C8AA /au·bohr⁸  :     104808.205440
 Mol. α(0) /au        :        105.525897


Wiberg/Mayer (AO) data.
largest (>0.10) Wiberg bond orders for each atom

 ---------------------------------------------------------------------------
     #   Z sym  total        # sym  WBO       # sym  WBO       # sym  WBO
 ---------------------------------------------------------------------------
     1   7 N    3.653 --     2 C    0.966    12 H    0.890    11 H    0.890
                            10 H    0.887
     2   6 C    3.927 --     3 C    1.011    14 H    0.966    13 H    0.966
                             1 N    0.966
     3   6 C    3.990 --     2 C    1.011     4 C    1.004    15 H    0.973
                            16 H    0.973
     4   6 C    3.995 --     5 C    1.007     3 C    1.004    18 H    0.977
                            17 H    0.977
     5   6 C    3.996 --     4 C    1.007     6 C    1.007    19 H    0.977
                            20 H    0.977
     6   6 C    3.996 --     7 C    1.007     5 C    1.007    22 H    0.977
                            21 H    0.977
     7   6 C    3.997 --     8 C    1.008     6 C    1.007    23 H    0.977
                            24 H    0.977
     8   6 C    3.997 --     9 C    1.019     7 C    1.008    25 H    0.979
                            26 H    0.979
     9   6 C    3.996 --     8 C    1.019    29 H    0.988    27 H    0.988
                            28 H    0.988
    10   1 H    0.900 --     1 N    0.887
    11   1 H    0.905 --     1 N    0.890
    12   1 H    0.905 --     1 N    0.890
    13   1 H    0.989 --     2 C    0.966
    14   1 H    0.989 --     2 C    0.966
    15   1 H    0.996 --     3 C    0.973
    16   1 H    0.996 --     3 C    0.973
    17   1 H    0.998 --     4 C    0.977
    18   1 H    0.998 --     4 C    0.977
    19   1 H    0.999 --     5 C    0.977
    20   1 H    0.999 --     5 C    0.977
    21   1 H    0.999 --     6 C    0.977
    22   1 H    0.999 --     6 C    0.977
    23   1 H    0.999 --     7 C    0.977
    24   1 H    0.999 --     7 C    0.977
    25   1 H    0.999 --     8 C    0.979
    26   1 H    0.999 --     8 C    0.979
    27   1 H    0.999 --     9 C    0.988
    28   1 H    0.999 --     9 C    0.988
    29   1 H    0.999 --     9 C    0.988
 ---------------------------------------------------------------------------

Topologies differ in total number of bonds
Writing topology from bond orders to xtbtopo.mol

molecular dipole:
                 x           y           z       tot (Debye)
 q only:        1.953      -0.109      -0.223
   full:        1.970      -0.097      -0.148       5.027
molecular quadrupole (traceless):
                xx          xy          yy          xz          yz          zz
 q only:        3.064      -0.587      -1.514      -2.391       0.026      -1.550
  q+dip:        2.354      -0.443       0.292      -1.443      -0.432      -2.647
   full:        3.610      -0.335      -1.308      -0.712      -0.132      -2.302

           -------------------------------------------------
          |                Geometry Summary                 |
           -------------------------------------------------

      molecular mass/u    :      130.2514054
   center of mass at/Å    :        5.2135212       0.3220460       2.4173145
  moments of inertia/u·Å² :        0.5440212E+02   0.1471148E+04   0.1497659E+04
rotational constants/cm⁻¹ :        0.3098709E+00   0.1145883E-01   0.1125599E-01

 * 28 selected distances

     #   Z          #   Z                                           value/Å
     1   7 N        2   6 C                                       1.4835945
     2   6 C        3   6 C                                       1.5245815
     3   6 C        4   6 C                                       1.5283677 (max)
     4   6 C        5   6 C                                       1.5276139
     5   6 C        6   6 C                                       1.5269043
     6   6 C        7   6 C                                       1.5270082
     7   6 C        8   6 C                                       1.5270072
     8   6 C        9   6 C                                       1.5243828
     1   7 N       10   1 H                                       1.0262472 (min)
     1   7 N       11   1 H                                       1.0269853
     1   7 N       12   1 H                                       1.0268602
     2   6 C       13   1 H                                       1.0898243
     2   6 C       14   1 H                                       1.0898104
     3   6 C       15   1 H                                       1.0907446
     3   6 C       16   1 H                                       1.0907147
     4   6 C       17   1 H                                       1.0915786
     4   6 C       18   1 H                                       1.0915652
     5   6 C       19   1 H                                       1.0923184
     5   6 C       20   1 H                                       1.0923079
     6   6 C       21   1 H                                       1.0926756
     6   6 C       22   1 H                                       1.0926680
     7   6 C       23   1 H                                       1.0927602
     7   6 C       24   1 H                                       1.0927511
     8   6 C       25   1 H                                       1.0925597
     8   6 C       26   1 H                                       1.0925549
     9   6 C       27   1 H                                       1.0879556
     9   6 C       28   1 H                                       1.0875315
     9   6 C       29   1 H                                       1.0879571

 * 4 distinct bonds (by element types)

   Z      Z             #   av. dist./Å        max./Å        min./Å
   1 H    6 C          17     1.0910752     1.0927602     1.0875315
   6 C    6 C           7     1.5265522     1.5283677     1.5243828
   1 H    7 N           3     1.0266976     1.0269853     1.0262472
   6 C    7 N           1     1.4835945     1.4835945     1.4835945


optimized geometry written to: xtbopt.xyz


           -------------------------------------------------
          | TOTAL ENERGY              -29.937642384184 Eh   |
          | GRADIENT NORM               0.000481367915 Eh/α |
          | HOMO-LUMO GAP               9.925448510939 eV   |
           -------------------------------------------------

------------------------------------------------------------------------
 * finished run on 2023/01/24 at 16:11:50.353     
------------------------------------------------------------------------
 total:
 * wall-time:     0 d,  0 h,  0 min,  0.155 sec
 *  cpu-time:     0 d,  0 h,  0 min, 20.664 sec
 * ratio c/w:   133.601 speedup
 SCF:
 * wall-time:     0 d,  0 h,  0 min,  0.022 sec
 *  cpu-time:     0 d,  0 h,  0 min,  3.182 sec
 * ratio c/w:   141.764 speedup
 ANC optimizer:
 * wall-time:     0 d,  0 h,  0 min,  0.104 sec
 *  cpu-time:     0 d,  0 h,  0 min, 13.832 sec
 * ratio c/w:   133.505 speedup

