 Entering Gaussian System
 *********************************************
 Gaussian 98:
 frequency output generated by the xtb code
 *********************************************
                         Standard orientation:
 --------------------------------------------------------------------
  Center     Atomic     Atomic              Coordinates (Angstroms)
  Number     Number      Type              X           Y           Z
 --------------------------------------------------------------------
    1          7             0        4.191205   -1.236741    0.432928
    2          6             0        2.767053   -1.675294    0.407303
    3          6             0        1.804419   -0.496549    0.449415
    4          8             0        0.442497   -0.918802    0.427150
    5          6             0       -0.495108    0.108963    0.437712
    6          6             0       -0.187601    1.458362    0.469958
    7          6             0       -1.184446    2.431637    0.476880
    8          6             0       -2.504338    2.083544    0.452565
    9          6             0       -2.884485    0.725326    0.420289
   10          6             0       -4.239397    0.325143    0.395204
   11          6             0       -4.573344   -0.996576    0.364428
   12          6             0       -3.576399   -1.978201    0.357046
   13          6             0       -2.259037   -1.622118    0.380591
   14          6             0       -1.878440   -0.268959    0.412737
   15         17             0        4.555938    1.019632   -2.234078
   16          1             0        4.381216   -0.593854   -0.354344
   17          1             0        4.842501   -2.029505    0.359707
   18          1             0        4.404011   -0.729061    1.301346
   19          1             0        2.561332   -2.344851    1.249475
   20          1             0        2.571577   -2.268525   -0.492865
   21          1             0        1.976530    0.160009   -0.410137
   22          1             0        1.966965    0.093242    1.357673
   23          1             0        0.840761    1.770217    0.490764
   24          1             0       -0.907640    3.473236    0.501857
   25          1             0       -3.269144    2.841238    0.458056
   26          1             0       -5.006563    1.080667    0.400856
   27          1             0       -5.610396   -1.290150    0.345482
   28          1             0       -3.852795   -3.019690    0.332489
   29          1             0       -1.486931   -2.372232    0.375089
 --------------------------------------------------------------------
     1 basis functions        1 primitive gaussians
     1 alpha electrons        1 beta electrons

 Harmonic frequencies (cm**-1), IR intensities (km*mol⁻¹),
 Raman scattering activities (A**4/amu), Raman depolarization ratios,
 reduced masses (AMU), force constants (mDyne/A) and normal coordinates:
                      1                      2                      3
                        a                      a                      a 
 Frequencies --  -146.3243               -34.9689                33.4661
 Red. masses --    20.9157                12.3740                15.1971
 Frc consts  --     0.0000                 0.0000                 0.0000
 IR Inten    --   149.1494                 8.6744                 2.0183
 Raman Activ --     0.0000                 0.0000                 0.0000
 Depolar     --     0.0000                 0.0000                 0.0000
 Atom AN      X      Y      Z        X      Y      Z        X      Y      Z
   1   7     0.05   0.36  -0.50     0.02   0.16   0.11     0.00  -0.05   0.20
   2   6     0.10   0.14  -0.12     0.03   0.10   0.31    -0.00  -0.03  -0.01
   3   6    -0.00   0.05  -0.00     0.00   0.10  -0.16     0.02  -0.00  -0.28
   4   8     0.01   0.01  -0.01     0.01   0.07  -0.05     0.02   0.01  -0.35
   5   6     0.00  -0.00   0.00    -0.01   0.04  -0.01     0.02   0.01  -0.26
   6   6    -0.01   0.00   0.02    -0.04   0.05   0.03     0.02   0.01  -0.36
   7   6    -0.01   0.00   0.00    -0.06   0.02   0.21     0.02   0.01  -0.19
   8   6    -0.01  -0.00  -0.01    -0.06  -0.01   0.30     0.02   0.00   0.06
   9   6     0.00  -0.00  -0.01    -0.03  -0.01   0.15     0.02   0.00   0.09
  10   6     0.00  -0.00  -0.01    -0.02  -0.04   0.12     0.01  -0.00   0.30
  11   6     0.00  -0.00  -0.01     0.01  -0.04  -0.11     0.01  -0.00   0.29
  12   6     0.00  -0.00   0.00     0.04  -0.02  -0.31     0.01   0.00   0.07
  13   6     0.00  -0.00   0.01     0.03   0.01  -0.24     0.02   0.01  -0.11
  14   6     0.00  -0.00   0.00    -0.00   0.01  -0.02     0.02   0.01  -0.10
  15  17    -0.11  -0.42   0.48     0.04  -0.32  -0.22    -0.13   0.04   0.39
  16   1    -0.06   0.12  -0.16     0.01  -0.11  -0.09     0.02   0.01   0.08
  17   1     0.04   0.13  -0.18     0.01   0.03   0.19     0.00  -0.01   0.05
  18   1     0.05   0.10  -0.15    -0.01   0.21  -0.06    -0.03  -0.04   0.08
  19   1     0.11   0.04  -0.01     0.01   0.13   0.17    -0.05   0.02   0.00
  20   1    -0.01   0.02  -0.02     0.01  -0.08   0.16     0.04  -0.03   0.00
  21   1    -0.01   0.03   0.01     0.00  -0.05  -0.11     0.03  -0.04  -0.11
  22   1    -0.00  -0.00   0.01    -0.01   0.12  -0.10    -0.01   0.04  -0.11
  23   1    -0.00   0.00   0.01    -0.01   0.02  -0.02     0.01   0.00  -0.16
  24   1    -0.00   0.00   0.00    -0.02   0.01   0.08     0.01   0.00  -0.07
  25   1    -0.00  -0.00  -0.01    -0.02  -0.01   0.14     0.00  -0.00   0.07
  26   1     0.00  -0.00  -0.00    -0.01  -0.02   0.08     0.00  -0.00   0.13
  27   1    -0.00  -0.00  -0.00     0.01  -0.02  -0.05     0.00  -0.00   0.13
  28   1     0.00  -0.00   0.00     0.02  -0.01  -0.15     0.00   0.00   0.01
  29   1     0.00  -0.00   0.00     0.01   0.01  -0.11     0.01   0.00  -0.08
                      4                      5                      6
                        a                      a                      a 
 Frequencies --    54.1956                84.8717               102.8812
 Red. masses --    27.2633                13.2187                 8.9974
 Frc consts  --     0.0000                 0.0000                 0.0000
 IR Inten    --    19.8460                 3.6185                 3.0412
 Raman Activ --     0.0000                 0.0000                 0.0000
 Depolar     --     0.0000                 0.0000                 0.0000
 Atom AN      X      Y      Z        X      Y      Z        X      Y      Z
   1   7    -0.05   0.04  -0.06    -0.06  -0.33   0.04    -0.00   0.00   0.04
   2   6    -0.06   0.08  -0.21    -0.14   0.01  -0.21     0.01  -0.01  -0.11
   3   6    -0.07   0.07  -0.07     0.06   0.17  -0.04     0.00   0.00  -0.59
   4   8    -0.08   0.06  -0.10     0.05   0.28  -0.02    -0.00  -0.03   0.16
   5   6    -0.10   0.03  -0.03     0.03   0.21   0.03    -0.00  -0.03   0.14
   6   6    -0.13   0.03  -0.01    -0.06   0.23   0.10     0.01  -0.03   0.01
   7   6    -0.15   0.01   0.02    -0.16   0.14   0.10     0.02  -0.02   0.03
   8   6    -0.14  -0.02   0.04    -0.13   0.03   0.02     0.02  -0.01   0.02
   9   6    -0.11  -0.03   0.06    -0.03   0.00  -0.02     0.00  -0.00   0.04
  10   6    -0.11  -0.06   0.12     0.02  -0.15  -0.07     0.00   0.02  -0.19
  11   6    -0.08  -0.06   0.15     0.16  -0.19  -0.06    -0.02   0.03  -0.22
  12   6    -0.06  -0.04   0.12     0.26  -0.09  -0.01    -0.03   0.01   0.09
  13   6    -0.06  -0.01   0.05     0.22   0.06   0.01    -0.03  -0.01   0.32
  14   6    -0.09  -0.00   0.02     0.07   0.10   0.00    -0.01  -0.02   0.21
  15  17     0.81  -0.08  -0.04    -0.18  -0.26   0.09     0.02   0.06   0.11
  16   1     0.04   0.00  -0.01     0.04  -0.05   0.06     0.02   0.00   0.02
  17   1    -0.02   0.00   0.01    -0.06  -0.12  -0.03     0.01   0.00   0.04
  18   1    -0.04   0.01  -0.01    -0.01  -0.16   0.05    -0.03   0.01   0.02
  19   1    -0.03  -0.01  -0.09    -0.11  -0.04  -0.11    -0.05   0.07   0.01
  20   1    -0.00   0.06  -0.09    -0.05   0.07  -0.11     0.06  -0.08   0.01
  21   1    -0.03   0.05   0.00     0.03   0.07   0.01    -0.09  -0.15  -0.30
  22   1    -0.02  -0.01  -0.00     0.05   0.02   0.00     0.10   0.16  -0.29
  23   1    -0.04   0.02  -0.00    -0.02   0.08   0.05     0.00  -0.01  -0.04
  24   1    -0.05   0.01   0.01    -0.07   0.05   0.04     0.01  -0.01   0.00
  25   1    -0.05  -0.01   0.02    -0.05  -0.01  -0.00     0.01   0.00  -0.01
  26   1    -0.04  -0.02   0.04    -0.02  -0.07  -0.03     0.00   0.01  -0.11
  27   1    -0.02  -0.03   0.06     0.06  -0.09  -0.03    -0.00   0.01  -0.13
  28   1    -0.01  -0.01   0.04     0.11  -0.03   0.00    -0.01   0.00   0.04
  29   1    -0.01   0.00   0.01     0.09   0.04   0.01    -0.01  -0.01   0.15
                      7                      8                      9
                        a                      a                      a 
 Frequencies --   130.4360               152.3529               165.8740
 Red. masses --    11.4290                10.4301                 9.4877
 Frc consts  --     0.0000                 0.0000                 0.0000
 IR Inten    --    20.6046                 2.8149                 0.8322
 Raman Activ --     0.0000                 0.0000                 0.0000
 Depolar     --     0.0000                 0.0000                 0.0000
 Atom AN      X      Y      Z        X      Y      Z        X      Y      Z
   1   7    -0.05  -0.26  -0.34     0.03   0.16   0.23    -0.01  -0.05  -0.06
   2   6    -0.10  -0.10   0.22     0.06   0.08  -0.37    -0.02  -0.03   0.09
   3   6    -0.00  -0.01   0.03     0.00   0.02  -0.04     0.00   0.00  -0.23
   4   8    -0.02   0.05   0.38     0.02  -0.04   0.42    -0.00   0.00   0.16
   5   6    -0.01   0.06   0.10     0.00  -0.04   0.18    -0.00   0.00   0.05
   6   6    -0.02   0.07  -0.19     0.01  -0.04   0.06    -0.01  -0.00   0.38
   7   6    -0.05   0.04  -0.30     0.03  -0.02  -0.21    -0.00   0.00   0.13
   8   6    -0.05   0.01  -0.04     0.03  -0.01  -0.11     0.00   0.01  -0.31
   9   6    -0.03   0.00   0.14     0.01  -0.01   0.11     0.00   0.01  -0.29
  10   6    -0.01  -0.05   0.19     0.00   0.02   0.23     0.00  -0.00   0.00
  11   6     0.03  -0.05  -0.01    -0.02   0.03   0.05    -0.00  -0.01   0.38
  12   6     0.06  -0.02  -0.20    -0.04   0.02  -0.30     0.01  -0.00   0.11
  13   6     0.05   0.02  -0.06    -0.03  -0.01  -0.21     0.01   0.01  -0.29
  14   6    -0.00   0.03   0.11    -0.00  -0.02   0.07     0.00   0.01  -0.26
  15  17     0.14   0.18   0.07    -0.08  -0.12  -0.04     0.02   0.05   0.04
  16   1    -0.08  -0.02  -0.07     0.08   0.05   0.09    -0.01  -0.04  -0.04
  17   1    -0.04  -0.08  -0.21     0.03   0.05   0.11    -0.01  -0.02   0.01
  18   1     0.11  -0.12  -0.09    -0.10   0.02   0.10     0.01   0.02  -0.04
  19   1     0.02   0.06   0.15    -0.04  -0.09  -0.21    -0.01   0.07   0.09
  20   1    -0.12  -0.12   0.14     0.10   0.14  -0.20    -0.01  -0.09   0.08
  21   1    -0.03  -0.08  -0.05    -0.08   0.02  -0.01    -0.04  -0.08  -0.14
  22   1     0.05   0.07  -0.05     0.08  -0.01  -0.02     0.05   0.09  -0.13
  23   1    -0.01   0.02  -0.10     0.00  -0.01   0.03    -0.00  -0.00   0.23
  24   1    -0.02   0.02  -0.16     0.01  -0.01  -0.13    -0.00  -0.00   0.09
  25   1    -0.02  -0.00  -0.01     0.01   0.00  -0.07     0.00   0.00  -0.14
  26   1    -0.01  -0.02   0.09     0.01   0.01   0.12    -0.00  -0.00   0.02
  27   1     0.01  -0.02  -0.01    -0.01   0.01   0.03    -0.00  -0.01   0.23
  28   1     0.03  -0.01  -0.13    -0.02   0.01  -0.16     0.00  -0.00   0.07
  29   1     0.02   0.01  -0.05    -0.01  -0.01  -0.11     0.00   0.00  -0.14
                     10                     11                     12
                        a                      a                      a 
 Frequencies --   213.8670               247.9117               251.6025
 Red. masses --     9.4341                 6.4240                10.0382
 Frc consts  --     0.0000                 0.0000                 0.0000
 IR Inten    --     4.5719                 3.1649                 2.2724
 Raman Activ --     0.0000                 0.0000                 0.0000
 Depolar     --     0.0000                 0.0000                 0.0000
 Atom AN      X      Y      Z        X      Y      Z        X      Y      Z
   1   7    -0.36   0.20  -0.03     0.12  -0.23  -0.11     0.04  -0.09  -0.07
   2   6    -0.20  -0.18  -0.06     0.04   0.02  -0.05     0.01   0.01  -0.13
   3   6    -0.23  -0.24   0.01     0.14   0.11   0.03     0.06   0.04   0.09
   4   8    -0.25  -0.13  -0.01     0.15   0.10  -0.20     0.06   0.03   0.48
   5   6     0.00   0.06   0.01     0.02  -0.01   0.07     0.01  -0.00  -0.15
   6   6     0.10   0.03  -0.01    -0.04  -0.00   0.11    -0.01   0.01  -0.34
   7   6     0.10   0.04  -0.05    -0.04  -0.01  -0.13    -0.02  -0.01   0.07
   8   6     0.08   0.07  -0.04    -0.03  -0.04  -0.22    -0.01  -0.02   0.31
   9   6     0.03   0.08   0.01     0.00  -0.05   0.05     0.01  -0.02  -0.13
  10   6     0.07  -0.06   0.02    -0.02   0.02   0.11    -0.00   0.02  -0.22
  11   6     0.21  -0.10   0.01    -0.09   0.05  -0.02    -0.04   0.02   0.06
  12   6     0.26  -0.05   0.02    -0.11   0.03  -0.06    -0.05   0.01   0.20
  13   6     0.21   0.06   0.05    -0.09  -0.04   0.14    -0.03  -0.01  -0.13
  14   6     0.03   0.10   0.03     0.00  -0.06   0.14     0.01  -0.02  -0.24
  15  17     0.04   0.08   0.03    -0.06   0.09   0.12    -0.03   0.04   0.06
  16   1    -0.06  -0.12  -0.14     0.16  -0.38  -0.25     0.09  -0.19  -0.13
  17   1    -0.03   0.09   0.25    -0.00  -0.13   0.39    -0.00  -0.06   0.21
  18   1    -0.22   0.29  -0.12    -0.05   0.30  -0.22    -0.05   0.16  -0.11
  19   1    -0.03  -0.06  -0.02    -0.00   0.02  -0.01    -0.01  -0.03  -0.06
  20   1    -0.03  -0.05  -0.02    -0.02   0.01  -0.01    -0.00   0.04  -0.06
  21   1    -0.06  -0.05   0.02     0.07   0.07   0.05    -0.04   0.00   0.01
  22   1    -0.06  -0.09   0.02     0.01  -0.02   0.05     0.08   0.02   0.01
  23   1     0.03   0.00  -0.00    -0.01   0.00   0.06    -0.00   0.00  -0.13
  24   1     0.03   0.01  -0.02    -0.02  -0.00  -0.07    -0.01  -0.00   0.09
  25   1     0.03   0.03  -0.02    -0.01  -0.02  -0.13    -0.01  -0.01   0.23
  26   1    -0.01  -0.04   0.00     0.01   0.02   0.05     0.01   0.01  -0.10
  27   1     0.07  -0.05  -0.00    -0.03   0.02  -0.03    -0.01   0.01   0.05
  28   1     0.09  -0.02  -0.00    -0.04   0.01  -0.06    -0.02   0.00   0.14
  29   1     0.09   0.05   0.02    -0.04  -0.03   0.05    -0.02  -0.01  -0.05
                     13                     14                     15
                        a                      a                      a 
 Frequencies --   293.8870               385.1978               386.3450
 Red. masses --    10.4673                 9.4526                10.3246
 Frc consts  --     0.0000                 0.0000                 0.0000
 IR Inten    --     4.7581                 0.4805                 4.1564
 Raman Activ --     0.0000                 0.0000                 0.0000
 Depolar     --     0.0000                 0.0000                 0.0000
 Atom AN      X      Y      Z        X      Y      Z        X      Y      Z
   1   7    -0.33  -0.02  -0.03    -0.05   0.02  -0.00    -0.30   0.16   0.01
   2   6    -0.37   0.33   0.02    -0.01  -0.06   0.01    -0.08  -0.33  -0.00
   3   6    -0.12   0.42   0.02     0.04  -0.02  -0.01     0.20  -0.12   0.00
   4   8     0.06   0.07  -0.01     0.04   0.05  -0.18     0.19   0.25   0.03
   5   6     0.00  -0.10  -0.01     0.02   0.02   0.30     0.12   0.13  -0.05
   6   6     0.12  -0.13  -0.00    -0.01   0.04   0.07    -0.06   0.20  -0.00
   7   6     0.21  -0.08  -0.00    -0.03   0.03  -0.20    -0.16   0.11   0.04
   8   6     0.22  -0.11   0.00    -0.01  -0.03   0.14    -0.06  -0.16  -0.03
   9   6     0.17  -0.09   0.00     0.03  -0.04   0.27     0.18  -0.21  -0.04
  10   6     0.15   0.02   0.00     0.03   0.02  -0.41     0.13   0.04   0.08
  11   6     0.04   0.05   0.00    -0.02   0.02   0.17    -0.09   0.12  -0.03
  12   6    -0.05  -0.05   0.00    -0.03   0.01   0.18    -0.14   0.07  -0.03
  13   6    -0.02  -0.17  -0.00    -0.01  -0.02  -0.38    -0.06  -0.15   0.06
  14   6     0.06  -0.18  -0.00     0.03  -0.04   0.31     0.18  -0.18  -0.06
  15  17     0.02  -0.01   0.01     0.00   0.00  -0.00     0.03  -0.00  -0.02
  16   1    -0.05  -0.00   0.00    -0.03   0.01  -0.00    -0.16   0.10   0.02
  17   1    -0.14  -0.05  -0.03     0.01   0.02   0.00     0.04   0.15  -0.03
  18   1    -0.04  -0.04   0.00    -0.03   0.02  -0.00    -0.16   0.04   0.02
  19   1    -0.15   0.11   0.01    -0.00  -0.01   0.01    -0.01  -0.09   0.00
  20   1    -0.16   0.10   0.01    -0.00  -0.02   0.00    -0.01  -0.10  -0.00
  21   1    -0.05   0.12   0.00     0.05   0.01   0.01     0.11  -0.05   0.00
  22   1    -0.06   0.12   0.01    -0.00  -0.02   0.01     0.12  -0.04  -0.00
  23   1     0.03  -0.05  -0.00    -0.00   0.01  -0.06    -0.02   0.06   0.01
  24   1     0.07  -0.03  -0.00    -0.02   0.01  -0.19    -0.10   0.04   0.03
  25   1     0.06  -0.03   0.00    -0.01  -0.02  -0.01    -0.07  -0.10  -0.00
  26   1     0.06   0.02   0.00     0.02   0.02  -0.32     0.09   0.06   0.06
  27   1     0.00   0.04   0.00    -0.01   0.01   0.05    -0.03   0.07  -0.01
  28   1    -0.05  -0.01  -0.00    -0.01   0.00   0.05    -0.07   0.03  -0.01
  29   1    -0.02  -0.07  -0.00    -0.01  -0.01  -0.30    -0.07  -0.10   0.05
                     16                     17                     18
                        a                      a                      a 
 Frequencies --   429.9541               459.5804               488.1391
 Red. masses --     9.5314                11.1135                11.7189
 Frc consts  --     0.0000                 0.0000                 0.0000
 IR Inten    --     0.0352                 0.5690                 1.8263
 Raman Activ --     0.0000                 0.0000                 0.0000
 Depolar     --     0.0000                 0.0000                 0.0000
 Atom AN      X      Y      Z        X      Y      Z        X      Y      Z
   1   7    -0.00   0.00  -0.00    -0.19   0.07   0.00    -0.11   0.00  -0.00
   2   6     0.00   0.00  -0.01    -0.07  -0.12  -0.00    -0.08   0.06   0.00
   3   6    -0.00  -0.00   0.03     0.24   0.08   0.01     0.02   0.06   0.00
   4   8    -0.00   0.00  -0.03     0.28   0.16   0.00     0.17  -0.26  -0.00
   5   6    -0.00   0.00   0.13     0.10   0.01  -0.00     0.18  -0.17  -0.00
   6   6     0.01   0.01  -0.33     0.30  -0.08   0.00    -0.05  -0.15  -0.01
   7   6    -0.01  -0.01   0.34     0.20  -0.20   0.00    -0.26  -0.34  -0.01
   8   6     0.00   0.00  -0.16     0.12  -0.03   0.00    -0.27  -0.17  -0.01
   9   6     0.01   0.00  -0.28    -0.28   0.05  -0.00    -0.08  -0.11  -0.00
  10   6     0.00   0.00  -0.17    -0.31  -0.17  -0.01    -0.13   0.19   0.00
  11   6    -0.00  -0.00   0.35    -0.25  -0.22  -0.01     0.03   0.20   0.00
  12   6     0.00   0.01  -0.32    -0.05  -0.01  -0.00     0.22   0.39   0.01
  13   6    -0.00  -0.01   0.11    -0.10   0.25   0.00     0.26   0.17   0.01
  14   6    -0.00  -0.01   0.40    -0.06   0.21   0.01     0.16   0.10   0.00
  15  17     0.00  -0.00  -0.00     0.01   0.00  -0.01     0.00  -0.00   0.00
  16   1     0.00   0.00   0.00    -0.09   0.04   0.01    -0.02   0.00   0.00
  17   1    -0.00   0.00  -0.00     0.01   0.07  -0.01    -0.03  -0.00  -0.00
  18   1    -0.00  -0.00   0.00    -0.09   0.02   0.01    -0.03  -0.00   0.00
  19   1     0.00  -0.01  -0.01    -0.03  -0.03   0.00    -0.04   0.02   0.00
  20   1    -0.00   0.01  -0.01    -0.04  -0.03   0.00    -0.04   0.02   0.00
  21   1     0.01  -0.00   0.01     0.11   0.01   0.00    -0.02   0.02   0.00
  22   1    -0.02  -0.00   0.01     0.10   0.01   0.01    -0.02   0.02  -0.00
  23   1     0.00   0.01  -0.25     0.08  -0.03  -0.00    -0.04   0.05   0.00
  24   1    -0.01  -0.00   0.22     0.05  -0.06   0.00    -0.08  -0.09  -0.00
  25   1    -0.00  -0.00  -0.04     0.11   0.07   0.00    -0.07  -0.04  -0.00
  26   1     0.00   0.00  -0.05    -0.11  -0.07  -0.00    -0.00   0.09   0.00
  27   1    -0.00  -0.00   0.23    -0.06  -0.10  -0.00     0.03  -0.02  -0.00
  28   1     0.00   0.01  -0.24     0.07  -0.02  -0.00     0.06   0.11   0.00
  29   1    -0.00  -0.00  -0.01    -0.01   0.08   0.00     0.05   0.03   0.00
                     19                     20                     21
                        a                      a                      a 
 Frequencies --   510.3093               534.6927               584.6338
 Red. masses --    11.3771                 9.8118                11.7138
 Frc consts  --     0.0000                 0.0000                 0.0000
 IR Inten    --     2.0905                 5.4056                 2.0963
 Raman Activ --     0.0000                 0.0000                 0.0000
 Depolar     --     0.0000                 0.0000                 0.0000
 Atom AN      X      Y      Z        X      Y      Z        X      Y      Z
   1   7     0.15  -0.03   0.00    -0.00   0.00   0.00     0.06   0.01   0.00
   2   6     0.04   0.12   0.00    -0.00  -0.00   0.00     0.05  -0.11  -0.00
   3   6    -0.25  -0.08  -0.01     0.01   0.00  -0.03     0.07   0.01   0.00
   4   8    -0.31   0.01  -0.00     0.01   0.00  -0.14    -0.10   0.35   0.01
   5   6     0.12   0.29   0.02    -0.00  -0.01   0.37    -0.30   0.05  -0.01
   6   6     0.35   0.28   0.01    -0.01  -0.01   0.15    -0.00  -0.08   0.00
   7   6     0.06  -0.03  -0.01     0.00   0.01  -0.35     0.13  -0.07  -0.00
   8   6     0.14  -0.38  -0.00    -0.01  -0.00   0.41     0.15  -0.19   0.00
   9   6    -0.02  -0.29  -0.01     0.01   0.01  -0.39    -0.21  -0.06  -0.00
  10   6    -0.13  -0.07  -0.00     0.00   0.00  -0.11    -0.32   0.29  -0.00
  11   6    -0.24  -0.02  -0.01     0.00  -0.00   0.15     0.20   0.17   0.01
  12   6    -0.04   0.18   0.00     0.00   0.00  -0.23     0.19   0.08  -0.00
  13   6     0.03   0.04   0.00    -0.00  -0.00   0.20     0.25  -0.29   0.00
  14   6     0.17   0.00  -0.00     0.00   0.00  -0.20    -0.24  -0.16  -0.00
  15  17    -0.01   0.00   0.00     0.00   0.00   0.00     0.00   0.00  -0.00
  16   1     0.08  -0.03  -0.01     0.00   0.00   0.00    -0.01   0.01   0.00
  17   1    -0.02  -0.06   0.01     0.00   0.00   0.00     0.04   0.03   0.00
  18   1     0.08  -0.02  -0.00    -0.00   0.00  -0.00    -0.00   0.01   0.00
  19   1     0.03   0.02  -0.00    -0.00   0.01   0.01     0.03  -0.03  -0.00
  20   1     0.03   0.03  -0.00    -0.00  -0.01   0.01     0.03  -0.03  -0.00
  21   1    -0.10  -0.02  -0.00     0.02   0.02   0.01     0.07  -0.01  -0.00
  22   1    -0.09  -0.01  -0.01    -0.02  -0.02   0.01     0.06  -0.01   0.00
  23   1     0.09   0.11   0.00    -0.00  -0.00   0.04     0.02  -0.11   0.00
  24   1    -0.11   0.02  -0.00     0.00   0.00  -0.18     0.01  -0.01  -0.00
  25   1     0.03  -0.11   0.00    -0.00  -0.00   0.25     0.07  -0.03   0.00
  26   1     0.01   0.03   0.00    -0.00  -0.00   0.12    -0.11   0.06  -0.00
  27   1    -0.06  -0.04  -0.00    -0.00  -0.00   0.21     0.08  -0.05   0.00
  28   1     0.02   0.04   0.00     0.00  -0.00  -0.02    -0.05   0.05  -0.00
  29   1    -0.04  -0.04   0.00    -0.00  -0.00   0.22     0.09  -0.06   0.00
                     22                     23                     24
                        a                      a                      a 
 Frequencies --   601.4566               714.7054               736.8633
 Red. masses --    10.3412                 9.9377                12.3490
 Frc consts  --     0.0000                 0.0000                 0.0000
 IR Inten    --     3.4313                 0.5603                36.6020
 Raman Activ --     0.0000                 0.0000                 0.0000
 Depolar     --     0.0000                 0.0000                 0.0000
 Atom AN      X      Y      Z        X      Y      Z        X      Y      Z
   1   7     0.00   0.00   0.00     0.00  -0.00  -0.01    -0.09  -0.01  -0.00
   2   6     0.00   0.00   0.00    -0.00   0.00  -0.00    -0.02   0.08   0.00
   3   6    -0.00  -0.00  -0.00     0.00   0.00   0.01     0.05  -0.00  -0.00
   4   8    -0.00  -0.01   0.12     0.00  -0.01  -0.01     0.26  -0.46  -0.01
   5   6     0.01   0.01  -0.62    -0.00  -0.00   0.23     0.12  -0.04   0.00
   6   6    -0.00  -0.00   0.24     0.00   0.01  -0.13    -0.08   0.20  -0.00
   7   6     0.00   0.00  -0.17    -0.00   0.00   0.22     0.09   0.52   0.01
   8   6    -0.00  -0.00   0.11     0.00   0.00  -0.11     0.14   0.09   0.00
   9   6     0.00  -0.01   0.22    -0.01  -0.01   0.52    -0.13  -0.01  -0.01
  10   6     0.01  -0.00  -0.26    -0.00   0.01  -0.24    -0.36   0.06   0.00
  11   6    -0.01  -0.01   0.30    -0.00  -0.00   0.16    -0.12  -0.05  -0.00
  12   6     0.00   0.01  -0.26     0.00   0.01  -0.23     0.04   0.04   0.01
  13   6    -0.01   0.00   0.27     0.00  -0.01   0.12     0.14  -0.24   0.00
  14   6     0.01   0.00   0.06     0.01   0.01  -0.51     0.02  -0.12  -0.00
  15  17    -0.00  -0.00  -0.00     0.00   0.00   0.00    -0.00  -0.00   0.00
  16   1    -0.00   0.00   0.00     0.01   0.00   0.00    -0.02  -0.00   0.00
  17   1    -0.00  -0.00  -0.00     0.00  -0.00   0.01    -0.03  -0.01  -0.00
  18   1     0.00  -0.00   0.00    -0.01   0.00  -0.00    -0.02  -0.01   0.00
  19   1    -0.00   0.01   0.01     0.01  -0.00  -0.00    -0.03   0.03   0.00
  20   1     0.00  -0.01   0.00    -0.01   0.00  -0.00    -0.03   0.02   0.00
  21   1    -0.03  -0.00  -0.01     0.01  -0.01  -0.00    -0.03   0.01   0.00
  22   1     0.02   0.00  -0.01    -0.01   0.01  -0.00    -0.03   0.01   0.00
  23   1    -0.00  -0.00   0.24     0.00   0.00  -0.14    -0.01   0.05   0.01
  24   1     0.00   0.00  -0.04     0.00   0.01  -0.15     0.01   0.15   0.01
  25   1    -0.00  -0.00   0.03     0.00   0.00  -0.26     0.00  -0.00   0.01
  26   1     0.01   0.00  -0.21    -0.00  -0.00   0.01    -0.13  -0.01  -0.01
  27   1    -0.00  -0.00   0.06    -0.00  -0.00   0.12    -0.01  -0.11  -0.01
  28   1     0.00   0.00  -0.22    -0.00  -0.00   0.13    -0.03   0.02  -0.01
  29   1    -0.00   0.00  -0.01    -0.00  -0.01   0.22     0.01  -0.09  -0.01
                     25                     26                     27
                        a                      a                      a 
 Frequencies --   752.4005               776.9633               791.0519
 Red. masses --     4.8495                10.8746                 3.3133
 Frc consts  --     0.0000                 0.0000                 0.0000
 IR Inten    --     0.1040                 1.6539                69.5266
 Raman Activ --     0.0000                 0.0000                 0.0000
 Depolar     --     0.0000                 0.0000                 0.0000
 Atom AN      X      Y      Z        X      Y      Z        X      Y      Z
   1   7     0.00   0.00   0.02    -0.04   0.00  -0.00    -0.01  -0.01   0.01
   2   6     0.00  -0.00  -0.00    -0.01   0.04   0.00    -0.00  -0.01   0.12
   3   6    -0.00   0.00  -0.02     0.01  -0.02   0.00     0.01  -0.00   0.09
   4   8    -0.01   0.01  -0.05     0.08  -0.14  -0.00    -0.00   0.00  -0.02
   5   6    -0.01  -0.01   0.30     0.20   0.15   0.00    -0.00  -0.00  -0.05
   6   6     0.00  -0.00  -0.19     0.39   0.22   0.02    -0.01  -0.01   0.24
   7   6     0.00  -0.01  -0.05    -0.13  -0.23  -0.01     0.00   0.01   0.10
   8   6     0.00  -0.00  -0.16    -0.21   0.07   0.00     0.00  -0.00   0.13
   9   6     0.00  -0.00   0.06    -0.14   0.11  -0.00     0.01   0.00  -0.18
  10   6     0.01  -0.01   0.14    -0.11   0.24   0.01    -0.00  -0.01   0.12
  11   6    -0.00  -0.00   0.17     0.35   0.13   0.01    -0.01  -0.01   0.08
  12   6    -0.00  -0.00   0.05    -0.14  -0.40  -0.01     0.00   0.01   0.10
  13   6    -0.01   0.00   0.20    -0.14  -0.20  -0.00     0.00  -0.00   0.12
  14   6     0.00   0.01  -0.30    -0.05   0.00  -0.01     0.00   0.00  -0.15
  15  17    -0.00  -0.00  -0.00    -0.00  -0.00   0.00     0.01   0.00   0.00
  16   1    -0.02  -0.00  -0.00    -0.00  -0.00  -0.00    -0.11  -0.05  -0.06
  17   1     0.00   0.00  -0.02    -0.02  -0.01  -0.00    -0.00   0.00  -0.04
  18   1     0.02  -0.01   0.00     0.00  -0.00  -0.00     0.10   0.06  -0.06
  19   1    -0.01   0.01   0.00    -0.01   0.01  -0.00    -0.01  -0.22  -0.15
  20   1     0.02  -0.01   0.00    -0.01   0.02  -0.00     0.02   0.23  -0.13
  21   1    -0.00   0.03   0.01    -0.02  -0.00  -0.00     0.04  -0.18  -0.11
  22   1     0.01  -0.03   0.01    -0.02   0.01  -0.00    -0.04   0.19  -0.10
  23   1    -0.00  -0.01   0.26     0.07   0.18  -0.01     0.01   0.00  -0.47
  24   1    -0.00  -0.01   0.22    -0.10  -0.04  -0.01     0.01   0.01  -0.28
  25   1    -0.00  -0.01   0.31    -0.01   0.07  -0.00     0.00   0.00  -0.23
  26   1     0.01   0.01  -0.36    -0.10  -0.00  -0.01     0.00   0.00  -0.15
  27   1     0.00   0.01  -0.36     0.08   0.08  -0.01     0.00   0.00  -0.23
  28   1     0.01   0.01  -0.33    -0.16  -0.08  -0.01     0.01   0.01  -0.25
  29   1     0.00   0.01  -0.24    -0.01  -0.03  -0.01     0.00   0.00  -0.16
                     28                     29                     30
                        a                      a                      a 
 Frequencies --   809.3502               854.9532               858.4186
 Red. masses --     2.5449                 3.8853                10.6295
 Frc consts  --     0.0000                 0.0000                 0.0000
 IR Inten    --     0.6230                 4.2217                 8.0138
 Raman Activ --     0.0000                 0.0000                 0.0000
 Depolar     --     0.0000                 0.0000                 0.0000
 Atom AN      X      Y      Z        X      Y      Z        X      Y      Z
   1   7    -0.02  -0.01   0.05     0.00  -0.02   0.05     0.02   0.02   0.00
   2   6    -0.00  -0.01   0.21     0.00  -0.01   0.04    -0.01  -0.00   0.00
   3   6     0.01  -0.01   0.07     0.00   0.01  -0.05    -0.08  -0.04  -0.01
   4   8    -0.00   0.00  -0.07     0.00  -0.01  -0.00    -0.08   0.17   0.00
   5   6     0.00  -0.00   0.03    -0.01  -0.00   0.05     0.11   0.03   0.01
   6   6     0.00   0.00  -0.07    -0.01   0.01  -0.33     0.17  -0.04  -0.02
   7   6     0.00   0.00  -0.11    -0.00   0.01   0.10    -0.00  -0.20   0.00
   8   6     0.00   0.00  -0.13     0.01  -0.04   0.29    -0.24   0.48   0.02
   9   6    -0.00  -0.00   0.14    -0.00  -0.01  -0.10     0.04   0.14  -0.00
  10   6    -0.00   0.00  -0.08     0.00   0.01  -0.08    -0.01  -0.13  -0.01
  11   6     0.00  -0.00  -0.04     0.02   0.01  -0.05    -0.32  -0.08  -0.01
  12   6     0.00  -0.00  -0.06    -0.00  -0.02   0.12     0.02   0.21   0.02
  13   6     0.00  -0.00  -0.07    -0.02   0.02   0.09     0.25  -0.39   0.01
  14   6     0.00  -0.00   0.08    -0.01   0.01   0.00     0.12  -0.17  -0.00
  15  17     0.01   0.01   0.00     0.00   0.00   0.00    -0.00   0.00  -0.00
  16   1    -0.23  -0.09  -0.11    -0.14  -0.04  -0.05     0.02  -0.01  -0.00
  17   1    -0.01   0.01  -0.10     0.02   0.02  -0.06    -0.02  -0.02  -0.00
  18   1     0.23   0.11  -0.11     0.12   0.06  -0.05     0.03  -0.00  -0.00
  19   1    -0.07  -0.33  -0.23    -0.08  -0.03  -0.04     0.01  -0.01  -0.00
  20   1     0.08   0.35  -0.20     0.08   0.04  -0.03     0.02  -0.01  -0.00
  21   1     0.03  -0.21  -0.14    -0.03   0.05   0.01    -0.01  -0.01   0.00
  22   1    -0.03   0.23  -0.13     0.02  -0.04   0.01    -0.00  -0.02  -0.00
  23   1    -0.00  -0.00   0.21    -0.01  -0.01   0.52     0.03   0.04   0.04
  24   1    -0.00  -0.00   0.24    -0.01   0.01  -0.17     0.13  -0.09  -0.01
  25   1    -0.00  -0.00   0.23     0.01  -0.00  -0.50     0.01   0.21  -0.03
  26   1    -0.00  -0.00   0.10    -0.00  -0.00   0.21     0.01  -0.01   0.02
  27   1    -0.00  -0.00   0.14     0.00   0.01   0.04    -0.07  -0.07   0.00
  28   1    -0.00  -0.00   0.17     0.00  -0.00  -0.20    -0.04   0.07  -0.02
  29   1    -0.00  -0.00   0.12     0.00   0.02  -0.20    -0.02  -0.21  -0.03
                     31                     32                     33
                        a                      a                      a 
 Frequencies --   869.3939               891.8105               908.0435
 Red. masses --     3.9580                 2.5450                 3.7412
 Frc consts  --     0.0000                 0.0000                 0.0000
 IR Inten    --     1.2588                21.1791                 0.1266
 Raman Activ --     0.0000                 0.0000                 0.0000
 Depolar     --     0.0000                 0.0000                 0.0000
 Atom AN      X      Y      Z        X      Y      Z        X      Y      Z
   1   7    -0.01   0.02  -0.02    -0.06   0.07  -0.18     0.00  -0.00   0.01
   2   6     0.00   0.01  -0.01     0.02   0.04   0.03     0.00  -0.00  -0.01
   3   6     0.01  -0.01   0.02     0.03  -0.09   0.21    -0.00   0.00  -0.01
   4   8     0.01   0.00  -0.00     0.02   0.03  -0.08     0.00  -0.00   0.01
   5   6    -0.00  -0.00   0.01     0.00  -0.00   0.03    -0.00  -0.00   0.02
   6   6    -0.01  -0.00   0.11    -0.01  -0.01  -0.10    -0.00  -0.00   0.06
   7   6     0.00   0.01  -0.02     0.00   0.00  -0.04     0.00   0.00  -0.20
   8   6     0.01  -0.01  -0.16     0.00  -0.01   0.09    -0.00  -0.00   0.08
   9   6    -0.00  -0.01   0.13    -0.00  -0.00  -0.02    -0.00  -0.00   0.06
  10   6     0.00   0.01  -0.29    -0.00   0.00   0.01     0.00   0.00  -0.23
  11   6     0.01   0.00  -0.15     0.01   0.00  -0.00    -0.00  -0.01   0.24
  12   6    -0.00  -0.01   0.18    -0.00  -0.00   0.01    -0.00  -0.00   0.17
  13   6    -0.01   0.00   0.25    -0.01   0.01  -0.00     0.00   0.01  -0.23
  14   6    -0.00   0.00  -0.09    -0.00   0.00   0.01    -0.00  -0.00   0.00
  15  17    -0.00  -0.00  -0.00    -0.01  -0.00  -0.00     0.00  -0.00  -0.00
  16   1     0.06   0.01   0.02     0.44   0.10   0.13    -0.02  -0.00  -0.00
  17   1    -0.02  -0.01   0.02    -0.13  -0.10   0.17     0.00   0.00  -0.01
  18   1    -0.04  -0.03   0.02    -0.29  -0.17   0.13     0.01   0.00   0.00
  19   1     0.04   0.01   0.01     0.31  -0.10  -0.01    -0.01   0.02   0.01
  20   1    -0.03  -0.01   0.01    -0.24   0.11  -0.00     0.01  -0.02   0.01
  21   1     0.01  -0.02  -0.01     0.06  -0.30  -0.15     0.00   0.02   0.01
  22   1    -0.00   0.02  -0.01    -0.00   0.27  -0.14    -0.00  -0.02   0.01
  23   1     0.00  -0.00  -0.17    -0.00  -0.02   0.21     0.00   0.00  -0.12
  24   1    -0.00   0.00   0.05    -0.00  -0.00   0.08    -0.01  -0.01   0.39
  25   1    -0.00  -0.01   0.23     0.00  -0.00  -0.15     0.00   0.00  -0.18
  26   1    -0.01  -0.01   0.54    -0.00  -0.00  -0.02    -0.00  -0.01   0.37
  27   1    -0.00  -0.00   0.20     0.00  -0.00  -0.01     0.01   0.01  -0.43
  28   1     0.00   0.00  -0.24     0.00  -0.00  -0.02     0.00   0.01  -0.29
  29   1     0.01   0.02  -0.49     0.00   0.00  -0.00    -0.01  -0.01   0.38
                     34                     35                     36
                        a                      a                      a 
 Frequencies --   913.4424               917.7778               921.3586
 Red. masses --     3.5211                 4.9078                 3.2781
 Frc consts  --     0.0000                 0.0000                 0.0000
 IR Inten    --     1.3836                54.2105                 0.0341
 Raman Activ --     0.0000                 0.0000                 0.0000
 Depolar     --     0.0000                 0.0000                 0.0000
 Atom AN      X      Y      Z        X      Y      Z        X      Y      Z
   1   7     0.04  -0.03   0.01    -0.29   0.19   0.05     0.01  -0.01  -0.01
   2   6    -0.01  -0.02  -0.01     0.07   0.19   0.02    -0.00  -0.01   0.00
   3   6    -0.01   0.05  -0.01     0.04  -0.33  -0.09    -0.00   0.01   0.01
   4   8    -0.01  -0.02   0.01     0.11   0.13   0.03    -0.00  -0.01  -0.00
   5   6    -0.01  -0.00   0.06     0.02  -0.00   0.00    -0.00   0.00  -0.02
   6   6     0.01   0.00   0.07    -0.06  -0.04   0.02     0.00   0.00  -0.03
   7   6     0.00   0.01  -0.30     0.00   0.01  -0.03    -0.00  -0.00   0.08
   8   6    -0.00  -0.00   0.20     0.01  -0.02   0.02     0.00   0.00  -0.03
   9   6     0.00   0.00   0.02    -0.01  -0.01  -0.00     0.00   0.00  -0.10
  10   6     0.00  -0.01   0.09    -0.02   0.02   0.01     0.00   0.00  -0.11
  11   6    -0.00   0.00  -0.07     0.02   0.00   0.01    -0.00  -0.01   0.29
  12   6     0.00   0.01  -0.16    -0.00  -0.02  -0.03     0.00   0.01  -0.27
  13   6     0.00  -0.01   0.19    -0.02   0.03   0.02    -0.00  -0.00   0.11
  14   6    -0.00   0.00  -0.08     0.01   0.00  -0.01    -0.00  -0.00   0.09
  15  17     0.00  -0.00  -0.00    -0.01   0.00   0.00    -0.00  -0.00  -0.00
  16   1    -0.06   0.00  -0.00     0.17  -0.11  -0.06     0.00   0.01   0.01
  17   1     0.07   0.05  -0.01    -0.53  -0.32  -0.05     0.02   0.01   0.01
  18   1    -0.02   0.02  -0.01     0.35  -0.06  -0.02    -0.02  -0.00   0.00
  19   1    -0.03   0.02   0.01     0.03   0.04   0.00     0.01  -0.01  -0.00
  20   1    -0.00  -0.02   0.01     0.22  -0.00  -0.01    -0.02   0.01  -0.00
  21   1    -0.01   0.03   0.01     0.09  -0.01   0.05    -0.01  -0.01  -0.01
  22   1    -0.02  -0.01   0.01     0.10  -0.19   0.04    -0.00   0.02  -0.01
  23   1     0.00   0.01  -0.18     0.00  -0.06  -0.06    -0.00   0.00   0.07
  24   1    -0.01  -0.01   0.59     0.01  -0.00   0.05     0.00   0.00  -0.16
  25   1     0.01   0.01  -0.39     0.00  -0.01  -0.04    -0.00  -0.00   0.07
  26   1     0.00   0.00  -0.13    -0.01  -0.00  -0.02    -0.00  -0.01   0.29
  27   1    -0.00  -0.00   0.11     0.01  -0.00  -0.02     0.01   0.01  -0.56
  28   1    -0.00  -0.00   0.28     0.00  -0.01   0.06    -0.01  -0.01   0.53
  29   1     0.00   0.01  -0.33     0.00   0.02  -0.04     0.00   0.01  -0.28
                     37                     38                     39
                        a                      a                      a 
 Frequencies --   992.4946              1029.5317              1070.3793
 Red. masses --    11.6708                10.5891                12.2379
 Frc consts  --     0.0000                 0.0000                 0.0000
 IR Inten    --    16.6320                48.3520               112.9452
 Raman Activ --     0.0000                 0.0000                 0.0000
 Depolar     --     0.0000                 0.0000                 0.0000
 Atom AN      X      Y      Z        X      Y      Z        X      Y      Z
   1   7    -0.29  -0.10  -0.01    -0.36  -0.26  -0.02     0.07   0.14   0.01
   2   6     0.31   0.14   0.01     0.54   0.18   0.00    -0.19  -0.05   0.00
   3   6     0.38   0.08   0.00    -0.02   0.02   0.01     0.59   0.13  -0.01
   4   8    -0.13  -0.29  -0.01    -0.21   0.16  -0.00    -0.58  -0.13   0.00
   5   6    -0.33   0.13  -0.00     0.21  -0.05   0.00     0.12  -0.03   0.00
   6   6     0.21   0.13   0.00    -0.16  -0.09  -0.00    -0.05  -0.04  -0.00
   7   6    -0.04  -0.05  -0.00     0.03  -0.01  -0.00     0.02   0.02   0.00
   8   6    -0.05  -0.03  -0.00     0.03   0.04   0.00    -0.02   0.05   0.00
   9   6    -0.02   0.05   0.00     0.05  -0.05   0.00     0.06  -0.05  -0.00
  10   6     0.27  -0.15   0.00    -0.19   0.11  -0.00    -0.13   0.06  -0.00
  11   6    -0.09   0.01  -0.00     0.04  -0.01  -0.00     0.06  -0.01   0.00
  12   6     0.03   0.17   0.00    -0.02  -0.12  -0.00    -0.01  -0.05  -0.00
  13   6     0.10  -0.09  -0.00    -0.06   0.05   0.00    -0.06   0.03  -0.00
  14   6    -0.31   0.00  -0.00     0.24  -0.00   0.00     0.20   0.00   0.00
  15  17     0.00   0.00  -0.00     0.00   0.00  -0.00    -0.00   0.00  -0.00
  16   1    -0.10  -0.02   0.00    -0.21  -0.01   0.01     0.10   0.00  -0.01
  17   1    -0.06  -0.01  -0.00     0.05   0.05   0.00    -0.07  -0.04  -0.00
  18   1    -0.10  -0.02  -0.00    -0.21  -0.01  -0.00     0.09  -0.00   0.00
  19   1     0.03   0.05   0.00     0.14   0.05  -0.00    -0.12   0.02   0.01
  20   1     0.04   0.04   0.01     0.13   0.03   0.02    -0.09   0.02  -0.01
  21   1     0.04   0.02  -0.00    -0.09   0.03   0.00     0.12   0.02  -0.00
  22   1     0.03   0.01   0.01    -0.08   0.04  -0.01     0.07  -0.01   0.02
  23   1     0.07  -0.01   0.01    -0.06   0.04  -0.00    -0.01  -0.01  -0.00
  24   1    -0.14   0.02  -0.00     0.14  -0.04   0.00     0.10  -0.02   0.00
  25   1    -0.01  -0.01   0.00     0.02   0.02   0.00    -0.03  -0.01  -0.00
  26   1     0.11  -0.00   0.00    -0.07   0.01   0.00    -0.06  -0.01  -0.00
  27   1    -0.04   0.08   0.00     0.02  -0.06   0.00     0.04  -0.08  -0.00
  28   1    -0.02   0.05   0.00     0.02  -0.04   0.00     0.02  -0.02  -0.00
  29   1     0.07   0.02   0.00    -0.06  -0.04  -0.00    -0.11  -0.09  -0.00
                     40                     41                     42
                        a                      a                      a 
 Frequencies --  1082.8634              1120.5823              1128.6793
 Red. masses --     6.6959                 6.0195                 7.3161
 Frc consts  --     0.0000                 0.0000                 0.0000
 IR Inten    --     0.5759                 3.3400                 9.1644
 Raman Activ --     0.0000                 0.0000                 0.0000
 Depolar     --     0.0000                 0.0000                 0.0000
 Atom AN      X      Y      Z        X      Y      Z        X      Y      Z
   1   7    -0.01  -0.02  -0.00     0.03  -0.05   0.17    -0.08   0.13   0.06
   2   6     0.02   0.02  -0.00    -0.08   0.20  -0.35     0.14  -0.44  -0.14
   3   6    -0.05  -0.01   0.00     0.08  -0.21   0.40    -0.10   0.45   0.18
   4   8     0.04   0.02  -0.00     0.01   0.03  -0.16    -0.05  -0.09  -0.07
   5   6    -0.00  -0.01  -0.00    -0.01   0.03   0.00     0.04  -0.05   0.00
   6   6     0.05  -0.00   0.00     0.00  -0.02  -0.00    -0.09   0.06   0.00
   7   6     0.01   0.04   0.00    -0.00   0.00  -0.00    -0.01  -0.06  -0.00
   8   6    -0.01   0.01   0.00    -0.02   0.01  -0.00     0.12  -0.06   0.00
   9   6    -0.09   0.00  -0.00     0.00  -0.02  -0.00    -0.03   0.06   0.00
  10   6     0.08  -0.22  -0.00    -0.01   0.01   0.00     0.03  -0.04  -0.00
  11   6     0.43  -0.06   0.00     0.00  -0.00  -0.00    -0.01   0.00   0.00
  12   6    -0.07   0.44   0.01     0.00  -0.01  -0.00    -0.01   0.02   0.00
  13   6    -0.22   0.07  -0.00    -0.00   0.01   0.00     0.03  -0.05  -0.00
  14   6    -0.01  -0.10  -0.00     0.00  -0.01   0.00     0.00   0.04   0.00
  15  17     0.00  -0.00   0.00     0.00   0.00   0.00    -0.00   0.00   0.00
  16   1    -0.01  -0.00   0.00    -0.20  -0.06  -0.04     0.08  -0.06  -0.04
  17   1     0.01   0.01  -0.00     0.05   0.03  -0.08    -0.21  -0.12  -0.02
  18   1    -0.01   0.00  -0.00     0.13   0.09  -0.05     0.18  -0.03  -0.00
  19   1     0.01   0.00  -0.00    -0.06   0.29   0.10     0.14  -0.08   0.02
  20   1     0.01   0.00   0.00    -0.08  -0.17   0.07     0.21  -0.26   0.02
  21   1    -0.01  -0.01  -0.00    -0.27  -0.27  -0.12    -0.21   0.06  -0.04
  22   1    -0.00  -0.00  -0.00     0.35   0.18  -0.12     0.04   0.22  -0.04
  23   1     0.02  -0.03   0.00     0.02  -0.07  -0.00    -0.09   0.23  -0.00
  24   1    -0.02   0.02   0.00     0.02  -0.00  -0.00    -0.05  -0.00  -0.00
  25   1    -0.02  -0.01  -0.00    -0.02  -0.01  -0.00     0.14   0.09   0.00
  26   1    -0.25  -0.35  -0.01     0.01   0.01   0.00    -0.02  -0.04  -0.00
  27   1     0.17  -0.17  -0.00     0.00  -0.01   0.00    -0.01   0.04   0.00
  28   1    -0.17   0.17   0.00     0.01  -0.00   0.00    -0.05   0.02   0.00
  29   1    -0.34  -0.26  -0.01    -0.00   0.00   0.00    -0.00  -0.03   0.00
                     43                     44                     45
                        a                      a                      a 
 Frequencies --  1135.9394              1163.8750              1175.7216
 Red. masses --     6.3706                 3.5153                 1.7717
 Frc consts  --     0.0000                 0.0000                 0.0000
 IR Inten    --     4.9247                16.6491                 2.7299
 Raman Activ --     0.0000                 0.0000                 0.0000
 Depolar     --     0.0000                 0.0000                 0.0000
 Atom AN      X      Y      Z        X      Y      Z        X      Y      Z
   1   7    -0.05   0.03   0.01    -0.00   0.01  -0.00    -0.00  -0.00   0.00
   2   6     0.09  -0.16  -0.03     0.00  -0.01   0.00     0.01  -0.00  -0.00
   3   6    -0.11   0.21   0.05    -0.03   0.01  -0.00    -0.03   0.02   0.00
   4   8     0.00   0.01  -0.01     0.10  -0.08  -0.00     0.02  -0.01  -0.00
   5   6    -0.08  -0.10  -0.00    -0.20   0.08  -0.00    -0.10  -0.02  -0.00
   6   6     0.38  -0.11   0.00    -0.01   0.10   0.00     0.02   0.03   0.00
   7   6     0.05   0.21   0.00    -0.05  -0.10  -0.00     0.02  -0.02   0.00
   8   6    -0.28   0.15  -0.00     0.01   0.07   0.00    -0.03  -0.04  -0.00
   9   6     0.12  -0.12  -0.00     0.08  -0.04   0.00    -0.02   0.12   0.00
  10   6    -0.09   0.10   0.00    -0.03   0.17   0.00    -0.02   0.04   0.00
  11   6     0.00  -0.00   0.00     0.04  -0.09  -0.00    -0.06   0.08   0.00
  12   6     0.04  -0.02  -0.00     0.08   0.01   0.00     0.09  -0.05   0.00
  13   6    -0.09   0.09   0.00    -0.21   0.08  -0.00     0.03  -0.02   0.00
  14   6    -0.04  -0.09  -0.00     0.00  -0.17  -0.00     0.11  -0.04   0.00
  15  17    -0.00   0.00   0.00    -0.00  -0.00   0.00     0.00  -0.00   0.00
  16   1     0.02  -0.02  -0.01     0.00  -0.00  -0.00    -0.00  -0.00  -0.00
  17   1    -0.06  -0.03  -0.01    -0.01  -0.01   0.00     0.00   0.00  -0.00
  18   1     0.04  -0.01   0.00     0.00  -0.00   0.00    -0.00  -0.00  -0.00
  19   1     0.07  -0.05   0.00     0.00  -0.01  -0.00     0.01  -0.00  -0.00
  20   1     0.10  -0.09   0.00     0.00  -0.00  -0.00     0.01  -0.00   0.00
  21   1    -0.03   0.01  -0.02     0.00   0.00  -0.00     0.02  -0.01  -0.00
  22   1     0.02   0.05   0.01     0.01  -0.00   0.00     0.02  -0.01   0.00
  23   1     0.17  -0.23   0.00     0.00   0.01   0.00     0.03  -0.10  -0.00
  24   1     0.10   0.05   0.00    -0.15   0.01  -0.00    -0.11   0.03  -0.00
  25   1    -0.46  -0.34  -0.01     0.24   0.26   0.01    -0.03  -0.04  -0.00
  26   1     0.03   0.08   0.00     0.25   0.31   0.01    -0.26  -0.25  -0.01
  27   1     0.04  -0.15  -0.00     0.12  -0.41  -0.01    -0.16   0.53   0.01
  28   1     0.14  -0.04   0.00     0.42  -0.10   0.00     0.56  -0.16   0.00
  29   1     0.01   0.06   0.00    -0.26  -0.18  -0.01    -0.24  -0.27  -0.01
                     46                     47                     48
                        a                      a                      a 
 Frequencies --  1197.2300              1200.3683              1223.7632
 Red. masses --     3.9278                 3.1423                 5.8268
 Frc consts  --     0.0000                 0.0000                 0.0000
 IR Inten    --    43.8532                20.3416                50.9465
 Raman Activ --     0.0000                 0.0000                 0.0000
 Depolar     --     0.0000                 0.0000                 0.0000
 Atom AN      X      Y      Z        X      Y      Z        X      Y      Z
   1   7     0.01   0.02  -0.03     0.01  -0.01  -0.28    -0.01   0.01  -0.01
   2   6    -0.01  -0.01   0.03    -0.01   0.01   0.26     0.03  -0.05  -0.00
   3   6     0.02  -0.04   0.00     0.01  -0.03   0.13    -0.08   0.14   0.01
   4   8     0.14  -0.12  -0.01    -0.01   0.02  -0.09     0.07  -0.16  -0.00
   5   6    -0.18   0.28   0.00     0.02  -0.03   0.00    -0.19   0.26   0.00
   6   6    -0.13   0.16   0.00     0.01  -0.02   0.00    -0.06   0.04  -0.00
   7   6     0.07  -0.17  -0.00    -0.01   0.02  -0.00     0.02   0.04   0.00
   8   6     0.01  -0.02  -0.00     0.00   0.00  -0.00    -0.19   0.01  -0.00
   9   6     0.07  -0.07  -0.00    -0.00   0.01   0.00    -0.14  -0.24  -0.01
  10   6    -0.01   0.00  -0.00     0.00   0.00  -0.00    -0.05  -0.08  -0.00
  11   6     0.01   0.02   0.00    -0.00  -0.00   0.00     0.10   0.02   0.00
  12   6     0.03   0.03   0.00    -0.00  -0.00   0.00    -0.01  -0.09  -0.00
  13   6    -0.07   0.01  -0.00     0.01  -0.00  -0.00     0.05   0.07   0.00
  14   6    -0.08  -0.03  -0.00     0.01   0.00  -0.00     0.31   0.10   0.01
  15  17    -0.00  -0.00   0.00    -0.00   0.00  -0.00    -0.00  -0.00   0.00
  16   1     0.02   0.01   0.00     0.19   0.12   0.06     0.01  -0.01  -0.00
  17   1    -0.01  -0.01   0.02     0.04   0.01   0.12    -0.01  -0.01   0.00
  18   1    -0.02  -0.01   0.01    -0.21  -0.10   0.04     0.00  -0.01   0.00
  19   1    -0.07  -0.00  -0.01    -0.53   0.02  -0.05     0.02  -0.02  -0.00
  20   1     0.02   0.01  -0.01     0.50   0.03  -0.05     0.04  -0.03   0.00
  21   1    -0.06   0.02   0.01    -0.28  -0.00  -0.01     0.06  -0.03  -0.03
  22   1     0.02   0.01  -0.01     0.27  -0.00  -0.02     0.06  -0.02   0.02
  23   1    -0.12   0.32   0.00     0.01  -0.04  -0.02     0.13  -0.50  -0.01
  24   1     0.70  -0.23   0.01    -0.08   0.02   0.00     0.24  -0.05   0.00
  25   1    -0.15  -0.16  -0.00     0.01   0.01   0.00     0.19   0.25   0.01
  26   1    -0.05  -0.04  -0.00    -0.00  -0.00   0.00     0.10   0.09   0.00
  27   1     0.01  -0.00  -0.00    -0.00  -0.00  -0.00    -0.03   0.22   0.00
  28   1     0.13  -0.02   0.00    -0.01   0.00  -0.00    -0.25   0.04  -0.00
  29   1    -0.03  -0.01  -0.00     0.01   0.00   0.00    -0.06  -0.06  -0.00
                     49                     50                     51
                        a                      a                      a 
 Frequencies --  1224.3621              1244.5887              1257.2096
 Red. masses --     8.8047                 4.7484                 1.8974
 Frc consts  --     0.0000                 0.0000                 0.0000
 IR Inten    --    33.4981                 5.9504                 5.5496
 Raman Activ --     0.0000                 0.0000                 0.0000
 Depolar     --     0.0000                 0.0000                 0.0000
 Atom AN      X      Y      Z        X      Y      Z        X      Y      Z
   1   7     0.01   0.01  -0.00    -0.00   0.01   0.00     0.01   0.02   0.03
   2   6    -0.01  -0.01  -0.00     0.00  -0.02  -0.00     0.02  -0.03   0.21
   3   6     0.05  -0.03  -0.00     0.02   0.02   0.00     0.02   0.01  -0.15
   4   8    -0.07   0.09   0.00    -0.01  -0.03  -0.00    -0.01   0.01  -0.08
   5   6     0.31  -0.07   0.00    -0.05   0.09   0.00    -0.00  -0.00  -0.00
   6   6     0.11  -0.14  -0.00     0.04   0.03   0.00     0.01  -0.01   0.01
   7   6    -0.08   0.23   0.00    -0.07  -0.02  -0.00     0.00   0.01   0.00
   8   6    -0.01   0.11   0.00    -0.04   0.13   0.00    -0.01   0.00  -0.00
   9   6    -0.41  -0.33  -0.01     0.18  -0.22  -0.00    -0.00  -0.01   0.00
  10   6     0.13  -0.03   0.00    -0.03   0.08   0.00    -0.01  -0.00   0.00
  11   6     0.16  -0.07   0.00     0.00   0.04   0.00     0.00  -0.00   0.00
  12   6    -0.05   0.10   0.00    -0.10   0.11   0.00     0.00  -0.00   0.00
  13   6     0.04   0.11   0.00    -0.10   0.11   0.00     0.00   0.00   0.00
  14   6    -0.30  -0.20  -0.01     0.04  -0.41  -0.01     0.01   0.00  -0.00
  15  17    -0.00   0.00  -0.00    -0.00  -0.00   0.00    -0.00  -0.00   0.00
  16   1     0.00   0.00  -0.00     0.00  -0.00  -0.00    -0.02  -0.01  -0.00
  17   1    -0.01  -0.01   0.00    -0.01  -0.00  -0.00    -0.02  -0.01   0.01
  18   1     0.00  -0.00   0.00     0.01  -0.00   0.00     0.01  -0.01   0.01
  19   1    -0.01   0.00   0.00    -0.00  -0.00   0.00     0.28  -0.20  -0.03
  20   1    -0.01   0.00  -0.00    -0.01  -0.00  -0.00    -0.34   0.21  -0.01
  21   1    -0.06   0.02   0.01    -0.03   0.00  -0.01    -0.54   0.24   0.04
  22   1    -0.07   0.02  -0.01    -0.03   0.00   0.01     0.49  -0.22   0.03
  23   1    -0.02   0.14   0.00     0.03  -0.06   0.00     0.01  -0.01  -0.05
  24   1     0.19   0.01   0.00    -0.03  -0.00  -0.00    -0.02   0.01   0.00
  25   1     0.09   0.13   0.00     0.20   0.25   0.01     0.00   0.00  -0.00
  26   1     0.22   0.17   0.01    -0.32  -0.30  -0.01     0.00   0.00   0.00
  27   1    -0.04   0.30   0.01     0.01  -0.01  -0.00    -0.00   0.01   0.00
  28   1     0.18  -0.02   0.00     0.16  -0.02   0.00    -0.01   0.00   0.00
  29   1    -0.03  -0.01  -0.00     0.37   0.44   0.01    -0.00  -0.00  -0.00
                     52                     53                     54
                        a                      a                      a 
 Frequencies --  1299.8000              1335.6170              1351.3010
 Red. masses --     3.6965                 8.7987                 3.6348
 Frc consts  --     0.0000                 0.0000                 0.0000
 IR Inten    --    28.6439                 3.0072                 7.7798
 Raman Activ --     0.0000                 0.0000                 0.0000
 Depolar     --     0.0000                 0.0000                 0.0000
 Atom AN      X      Y      Z        X      Y      Z        X      Y      Z
   1   7    -0.06  -0.17  -0.00     0.02  -0.00  -0.00    -0.07  -0.11   0.01
   2   6    -0.33   0.23   0.03    -0.00   0.03   0.00    -0.25   0.05   0.00
   3   6    -0.07   0.10  -0.01     0.01  -0.09  -0.00     0.32  -0.12  -0.01
   4   8    -0.09  -0.09  -0.01    -0.00   0.09   0.00     0.10   0.09   0.01
   5   6     0.05  -0.04  -0.00    -0.34  -0.41  -0.01    -0.08   0.03  -0.00
   6   6     0.00   0.03   0.00     0.15   0.13   0.01    -0.00   0.01   0.00
   7   6    -0.02   0.01  -0.00     0.22   0.09   0.00     0.03  -0.01   0.00
   8   6     0.02  -0.01   0.00    -0.22   0.02  -0.00    -0.04  -0.00  -0.00
   9   6    -0.02  -0.01  -0.00     0.12  -0.12  -0.00     0.03   0.01   0.00
  10   6     0.02   0.00   0.00    -0.24  -0.21  -0.01    -0.03  -0.03  -0.00
  11   6     0.00   0.00   0.00     0.08   0.08   0.00     0.00   0.01   0.00
  12   6    -0.01   0.02   0.00     0.23  -0.00   0.00     0.04  -0.01   0.00
  13   6    -0.01  -0.01  -0.00    -0.16   0.08  -0.00    -0.02   0.00  -0.00
  14   6    -0.04  -0.02  -0.00     0.18  -0.03   0.00     0.03   0.02   0.00
  15  17     0.00  -0.00  -0.00     0.00   0.00  -0.00    -0.00  -0.00   0.00
  16   1     0.06   0.03   0.08    -0.03   0.01  -0.00     0.16   0.09   0.14
  17   1     0.18   0.12  -0.04    -0.01  -0.01   0.01     0.08   0.06  -0.06
  18   1     0.01   0.08  -0.07    -0.02  -0.00   0.01     0.09   0.15  -0.12
  19   1     0.47  -0.13  -0.01    -0.02   0.02   0.00     0.25  -0.07   0.02
  20   1     0.44  -0.10  -0.00    -0.01   0.01   0.00     0.24  -0.07  -0.02
  21   1     0.29  -0.05   0.00     0.04   0.01   0.03    -0.50   0.06  -0.05
  22   1     0.38  -0.09   0.00     0.03   0.02  -0.03    -0.51   0.05   0.05
  23   1    -0.03   0.10  -0.00    -0.06   0.40   0.01     0.03  -0.10  -0.00
  24   1     0.05  -0.01   0.00    -0.04   0.06   0.00    -0.02   0.00   0.00
  25   1     0.02   0.01   0.00     0.06   0.14   0.00    -0.00   0.01   0.00
  26   1    -0.00  -0.01   0.00     0.09   0.10   0.00     0.01   0.01   0.00
  27   1     0.01  -0.01  -0.00    -0.04   0.22   0.00    -0.00   0.02  -0.00
  28   1     0.03  -0.00  -0.00    -0.15   0.06  -0.00    -0.02   0.01  -0.00
  29   1     0.02   0.03  -0.00    -0.00   0.06   0.00    -0.03  -0.02  -0.00
                     55                     56                     57
                        a                      a                      a 
 Frequencies --  1362.3535              1366.3884              1394.8461
 Red. masses --     2.9732                 8.3697                 1.6995
 Frc consts  --     0.0000                 0.0000                 0.0000
 IR Inten    --   158.3952                38.9593                80.1442
 Raman Activ --     0.0000                 0.0000                 0.0000
 Depolar     --     0.0000                 0.0000                 0.0000
 Atom AN      X      Y      Z        X      Y      Z        X      Y      Z
   1   7     0.27   0.06  -0.11    -0.06  -0.02   0.02    -0.02  -0.16  -0.08
   2   6    -0.16   0.08  -0.02     0.01  -0.01   0.00     0.10  -0.07  -0.03
   3   6     0.09  -0.01  -0.00    -0.01  -0.01  -0.00    -0.07   0.04   0.00
   4   8     0.02  -0.01   0.00     0.05  -0.08  -0.00    -0.02  -0.01   0.00
   5   6    -0.03   0.08   0.00    -0.16   0.29   0.00     0.01  -0.01   0.00
   6   6    -0.01  -0.06  -0.00    -0.02  -0.24  -0.01     0.00  -0.00   0.00
   7   6    -0.02  -0.03  -0.00    -0.04  -0.13  -0.00    -0.00   0.00   0.00
   8   6     0.05   0.07   0.00     0.24   0.33   0.01     0.00  -0.00   0.00
   9   6     0.03  -0.03   0.00     0.12  -0.17  -0.00    -0.01   0.00   0.00
  10   6    -0.03   0.04   0.00    -0.14   0.14   0.00     0.01   0.01  -0.00
  11   6     0.00  -0.06  -0.00     0.02  -0.27  -0.01    -0.00  -0.00  -0.00
  12   6    -0.00  -0.02  -0.00    -0.00  -0.06  -0.00    -0.01   0.00  -0.00
  13   6     0.04   0.06   0.00     0.16   0.29   0.01     0.01  -0.00  -0.00
  14   6     0.01  -0.03   0.00     0.03  -0.17  -0.00     0.00  -0.00   0.00
  15  17     0.01   0.00  -0.00    -0.00  -0.00   0.00     0.00  -0.01  -0.01
  16   1    -0.59   0.13  -0.07     0.13  -0.02   0.02    -0.06   0.56   0.44
  17   1    -0.26  -0.27   0.36     0.05   0.06  -0.08    -0.13  -0.15   0.28
  18   1    -0.19  -0.19   0.15     0.04   0.05  -0.04     0.25   0.36  -0.29
  19   1     0.19  -0.08  -0.02    -0.02   0.01   0.00    -0.08   0.04   0.01
  20   1     0.17  -0.09   0.02    -0.01   0.01  -0.00    -0.13   0.04  -0.01
  21   1    -0.05   0.01  -0.01     0.04   0.02   0.02     0.08  -0.02  -0.01
  22   1    -0.08   0.01   0.01     0.04   0.02  -0.02     0.07  -0.02   0.01
  23   1    -0.01   0.01   0.00    -0.09   0.19   0.00    -0.00   0.01   0.01
  24   1    -0.06   0.01  -0.00    -0.27   0.03  -0.00     0.00  -0.00   0.01
  25   1    -0.03  -0.03   0.00    -0.15  -0.13  -0.00    -0.00  -0.00   0.01
  26   1    -0.01   0.01   0.00    -0.02   0.06   0.00    -0.00  -0.00   0.00
  27   1    -0.01   0.03   0.00    -0.08   0.20   0.00     0.00  -0.01  -0.00
  28   1    -0.05   0.01   0.00    -0.24   0.05  -0.00     0.00  -0.00  -0.01
  29   1    -0.03  -0.03  -0.00    -0.12  -0.09  -0.00     0.01   0.00  -0.01
                     58                     59                     60
                        a                      a                      a 
 Frequencies --  1404.9585              1420.6865              1437.6248
 Red. masses --    10.4100                 9.3137                 2.0063
 Frc consts  --     0.0000                 0.0000                 0.0000
 IR Inten    --     2.9646                 3.7922                98.9995
 Raman Activ --     0.0000                 0.0000                 0.0000
 Depolar     --     0.0000                 0.0000                 0.0000
 Atom AN      X      Y      Z        X      Y      Z        X      Y      Z
   1   7     0.00   0.00  -0.00    -0.01   0.00  -0.01     0.22  -0.04   0.13
   2   6    -0.00   0.00   0.00     0.01  -0.01  -0.00     0.00   0.01   0.04
   3   6     0.01   0.01   0.00    -0.02   0.05   0.00    -0.01   0.02  -0.00
   4   8    -0.02  -0.01  -0.00    -0.02  -0.04  -0.00    -0.01  -0.01  -0.00
   5   6    -0.09  -0.07  -0.00     0.26   0.17   0.01     0.00   0.02   0.00
   6   6    -0.11   0.21   0.00    -0.18   0.09  -0.00    -0.01  -0.02  -0.00
   7   6     0.23  -0.13   0.00     0.06  -0.19  -0.00     0.02  -0.00   0.00
   8   6    -0.02  -0.05  -0.00     0.14   0.15   0.00     0.00   0.02   0.00
   9   6    -0.40   0.36   0.00     0.18   0.04   0.00    -0.02  -0.02  -0.00
  10   6     0.07   0.05   0.00    -0.33  -0.32  -0.01    -0.00  -0.02  -0.00
  11   6     0.13  -0.24  -0.00     0.19   0.02   0.00     0.02   0.02   0.00
  12   6    -0.25   0.12  -0.00     0.17   0.20   0.01    -0.02   0.01  -0.00
  13   6     0.05   0.07   0.00    -0.33  -0.22  -0.01    -0.01  -0.03  -0.00
  14   6     0.37  -0.36  -0.00    -0.15   0.01  -0.00     0.02   0.03   0.00
  15  17     0.00   0.00  -0.00     0.00   0.00  -0.00     0.00  -0.00  -0.00
  16   1    -0.00  -0.01  -0.01    -0.01   0.00  -0.00     0.01   0.02   0.04
  17   1     0.00   0.00   0.00     0.01   0.00   0.03    -0.32  -0.23  -0.53
  18   1    -0.00  -0.01   0.00     0.02  -0.02   0.00    -0.53   0.42  -0.10
  19   1     0.00  -0.00  -0.00    -0.00  -0.00  -0.00    -0.03  -0.07  -0.05
  20   1     0.00  -0.00   0.00    -0.01  -0.00   0.00     0.03  -0.05   0.04
  21   1    -0.01  -0.01  -0.01     0.01  -0.03  -0.03     0.01   0.00   0.00
  22   1    -0.01  -0.01   0.01     0.01  -0.04   0.03     0.03  -0.00   0.00
  23   1    -0.01  -0.02  -0.00     0.01  -0.19  -0.00    -0.01   0.01   0.00
  24   1    -0.05  -0.01  -0.00    -0.13  -0.02  -0.00    -0.02   0.01   0.00
  25   1    -0.15  -0.16  -0.01    -0.10  -0.11  -0.00    -0.01  -0.01   0.00
  26   1     0.15   0.15   0.00     0.18   0.18   0.01     0.01   0.00   0.00
  27   1     0.00   0.05   0.00    -0.01   0.23   0.00     0.01  -0.01   0.00
  28   1     0.06   0.00   0.00     0.11   0.05   0.00     0.03  -0.01   0.00
  29   1     0.15   0.15   0.01     0.10   0.15   0.00     0.02   0.01   0.00
                     61                     62                     63
                        a                      a                      a 
 Frequencies --  1445.0973              1482.9089              1485.8153
 Red. masses --     9.4670                 1.9171                 1.9828
 Frc consts  --     0.0000                 0.0000                 0.0000
 IR Inten    --    31.6532                14.2771                 1.6472
 Raman Activ --     0.0000                 0.0000                 0.0000
 Depolar     --     0.0000                 0.0000                 0.0000
 Atom AN      X      Y      Z        X      Y      Z        X      Y      Z
   1   7    -0.02   0.00  -0.01    -0.03   0.01  -0.01    -0.00  -0.01  -0.00
   2   6    -0.01   0.00  -0.00     0.08   0.27   0.01    -0.02   0.04   0.00
   3   6     0.01  -0.05  -0.00     0.02   0.04   0.00    -0.01  -0.25  -0.02
   4   8     0.04  -0.04  -0.00     0.00   0.01  -0.00    -0.03  -0.02   0.00
   5   6    -0.16   0.19   0.00    -0.01  -0.01  -0.00     0.03   0.03   0.00
   6   6    -0.04  -0.29  -0.01    -0.00  -0.00  -0.00     0.01   0.02   0.00
   7   6     0.21   0.02   0.00     0.01  -0.00   0.00    -0.03   0.01  -0.00
   8   6    -0.01   0.19   0.00     0.00   0.01   0.00    -0.03  -0.06  -0.00
   9   6    -0.24  -0.28  -0.01    -0.01  -0.02  -0.00     0.04   0.08   0.00
  10   6     0.08  -0.15  -0.00     0.01  -0.00   0.00    -0.03   0.00  -0.00
  11   6     0.09   0.27   0.01    -0.01   0.01   0.00     0.01  -0.05  -0.00
  12   6    -0.24   0.02  -0.00     0.00  -0.01  -0.00     0.02   0.02   0.00
  13   6    -0.02  -0.26  -0.01     0.01   0.00   0.00    -0.02  -0.00  -0.00
  14   6     0.25   0.33   0.01     0.00   0.00   0.00    -0.02  -0.04  -0.00
  15  17    -0.00  -0.00   0.00    -0.00  -0.00  -0.00    -0.00  -0.00  -0.00
  16   1     0.00  -0.00  -0.00     0.05   0.01   0.01     0.02   0.03   0.02
  17   1     0.03   0.02   0.04     0.04   0.04   0.04     0.01   0.00   0.01
  18   1     0.05  -0.03   0.01     0.07  -0.02  -0.00     0.02   0.02  -0.02
  19   1     0.01   0.00   0.00    -0.18  -0.47  -0.43    -0.01  -0.11  -0.08
  20   1     0.00   0.00  -0.00    -0.17  -0.50   0.38    -0.01  -0.12   0.07
  21   1     0.01   0.07   0.06    -0.03  -0.10  -0.08     0.09   0.51   0.41
  22   1     0.00   0.08  -0.05    -0.02  -0.11   0.07     0.08   0.52  -0.35
  23   1    -0.10   0.19   0.00    -0.01   0.03   0.00     0.04  -0.13  -0.00
  24   1    -0.20   0.08  -0.00    -0.01   0.00   0.00     0.03  -0.01   0.00
  25   1    -0.10  -0.04  -0.00    -0.00   0.00   0.00     0.02   0.01   0.00
  26   1     0.02  -0.05  -0.00    -0.00  -0.01  -0.00     0.01   0.02   0.00
  27   1     0.09  -0.14  -0.00     0.00  -0.01  -0.00    -0.01   0.03   0.00
  28   1     0.24  -0.08   0.00    -0.00  -0.00  -0.00    -0.01   0.01  -0.00
  29   1     0.12   0.06   0.00    -0.00  -0.00  -0.00     0.00   0.01   0.00
                     64                     65                     66
                        a                      a                      a 
 Frequencies --  1516.7550              1570.9116              1591.9879
 Red. masses --    10.8574                11.6033                11.4707
 Frc consts  --     0.0000                 0.0000                 0.0000
 IR Inten    --    16.4965                48.4396                 3.2561
 Raman Activ --     0.0000                 0.0000                 0.0000
 Depolar     --     0.0000                 0.0000                 0.0000
 Atom AN      X      Y      Z        X      Y      Z        X      Y      Z
   1   7    -0.00   0.00  -0.00    -0.00   0.00  -0.00     0.00  -0.00   0.00
   2   6     0.00   0.01   0.00     0.00  -0.00  -0.00    -0.00   0.00   0.00
   3   6     0.01   0.00   0.00     0.00   0.02   0.00     0.01  -0.02  -0.00
   4   8     0.02   0.01   0.00     0.00  -0.04  -0.00    -0.01   0.03   0.00
   5   6    -0.17   0.02  -0.00     0.04   0.37   0.01    -0.16  -0.22  -0.01
   6   6     0.22  -0.27  -0.00     0.08  -0.45  -0.01     0.14   0.14   0.00
   7   6    -0.38   0.20  -0.00    -0.06   0.18   0.00    -0.53  -0.05  -0.01
   8   6     0.06  -0.19  -0.00    -0.08  -0.20  -0.00     0.50   0.25   0.01
   9   6     0.23   0.21   0.01    -0.15   0.34   0.00    -0.26  -0.05  -0.00
  10   6    -0.20   0.03  -0.00     0.03  -0.13  -0.00     0.05  -0.10  -0.00
  11   6     0.20  -0.34  -0.00    -0.12   0.21   0.00    -0.06   0.19   0.00
  12   6    -0.30   0.21   0.00     0.37  -0.08   0.00     0.17  -0.06   0.00
  13   6     0.01  -0.20  -0.00    -0.24   0.02  -0.00    -0.13  -0.04  -0.00
  14   6     0.15   0.20   0.01     0.14  -0.30  -0.00     0.25  -0.01   0.00
  15  17    -0.00  -0.00   0.00    -0.00  -0.00   0.00    -0.00   0.00  -0.00
  16   1     0.01  -0.00   0.00     0.00  -0.00   0.00    -0.00   0.00   0.00
  17   1     0.00   0.00   0.00     0.00   0.00  -0.00     0.00   0.00   0.00
  18   1     0.01  -0.00   0.00     0.00  -0.00  -0.00     0.00   0.00  -0.00
  19   1    -0.00  -0.00  -0.01     0.00  -0.00   0.00     0.00   0.00  -0.00
  20   1    -0.00  -0.01   0.01     0.00  -0.00  -0.00     0.00  -0.00   0.00
  21   1    -0.01  -0.03  -0.02     0.00  -0.02  -0.02    -0.00   0.02   0.01
  22   1    -0.01  -0.03   0.02     0.00  -0.02   0.01    -0.00   0.02  -0.01
  23   1     0.01   0.10   0.00    -0.05   0.13   0.00     0.07  -0.08   0.00
  24   1     0.14  -0.01   0.00     0.02   0.04   0.00     0.10  -0.08  -0.00
  25   1     0.11   0.04   0.00     0.04   0.02   0.00    -0.05  -0.12  -0.00
  26   1     0.05   0.11   0.00     0.04   0.00   0.00     0.02  -0.02  -0.00
  27   1    -0.01   0.13   0.00    -0.01  -0.03  -0.00     0.01  -0.04  -0.00
  28   1     0.12   0.00   0.00    -0.08   0.03  -0.00    -0.02   0.00  -0.00
  29   1     0.10   0.04   0.00    -0.02   0.06   0.00     0.02   0.04   0.00
                     67                     68                     69
                        a                      a                      a 
 Frequencies --  1617.6001              2886.8052              2916.2205
 Red. masses --    11.4592                 1.9942                 1.9223
 Frc consts  --     0.0000                 0.0000                 0.0000
 IR Inten    --     0.6685              1651.9550                26.3653
 Raman Activ --     0.0000                 0.0000                 0.0000
 Depolar     --     0.0000                 0.0000                 0.0000
 Atom AN      X      Y      Z        X      Y      Z        X      Y      Z
   1   7    -0.00   0.00  -0.00     0.04   0.17  -0.21     0.00   0.00  -0.01
   2   6     0.00  -0.00  -0.00     0.00  -0.01   0.03    -0.00   0.00  -0.04
   3   6    -0.00   0.00   0.00    -0.00  -0.01   0.00     0.01   0.04   0.28
   4   8    -0.00  -0.00  -0.00    -0.00   0.00  -0.00     0.01   0.00   0.01
   5   6     0.00  -0.00  -0.00     0.00  -0.00   0.00    -0.00   0.00  -0.00
   6   6     0.03   0.00   0.00     0.00   0.00  -0.00    -0.00  -0.00  -0.00
   7   6    -0.09   0.00  -0.00     0.00   0.00  -0.00    -0.00  -0.00   0.00
   8   6     0.05  -0.02   0.00    -0.00   0.00  -0.00    -0.00   0.00   0.00
   9   6     0.14   0.16   0.00    -0.00  -0.00   0.00    -0.00   0.00   0.00
  10   6    -0.26  -0.44  -0.01    -0.00   0.00   0.00     0.00  -0.00  -0.00
  11   6     0.10   0.43   0.01    -0.00  -0.00  -0.00     0.00   0.00  -0.00
  12   6    -0.36  -0.13  -0.01    -0.00  -0.00   0.00     0.00   0.00  -0.00
  13   6     0.40   0.28   0.01     0.00   0.00  -0.00    -0.00  -0.00  -0.00
  14   6    -0.09  -0.21  -0.01    -0.00   0.00   0.00     0.00   0.00   0.00
  15  17     0.00  -0.00   0.00    -0.00  -0.01   0.01     0.00  -0.00   0.00
  16   1    -0.00   0.00  -0.00    -0.17  -0.59   0.74    -0.00  -0.01   0.02
  17   1    -0.00  -0.00   0.00     0.02  -0.01  -0.02    -0.00   0.00  -0.00
  18   1    -0.00  -0.00   0.00     0.01   0.03   0.01    -0.00  -0.00  -0.00
  19   1    -0.00  -0.00  -0.00     0.01   0.06  -0.08    -0.02  -0.05   0.06
  20   1    -0.00  -0.00   0.00    -0.00  -0.02  -0.02     0.02   0.06   0.09
  21   1     0.00   0.00   0.00     0.00   0.01  -0.02     0.07   0.28  -0.32
  22   1     0.00   0.00  -0.00     0.00   0.01   0.02    -0.12  -0.46  -0.69
  23   1     0.01  -0.01   0.00    -0.00  -0.00   0.00     0.01   0.00  -0.00
  24   1     0.02  -0.01   0.00    -0.00  -0.00   0.00    -0.00   0.00   0.00
  25   1     0.02  -0.00   0.00     0.00  -0.00   0.00     0.00  -0.00  -0.00
  26   1     0.10   0.05   0.00     0.00  -0.00   0.00    -0.00   0.00   0.00
  27   1     0.09  -0.08  -0.00     0.00   0.00   0.00    -0.00  -0.00  -0.00
  28   1     0.07  -0.08  -0.00     0.00   0.00   0.00    -0.00  -0.00  -0.00
  29   1    -0.05  -0.09  -0.00     0.00  -0.00   0.00    -0.00   0.00   0.00
                     70                     71                     72
                        a                      a                      a 
 Frequencies --  2944.3443              2968.8753              2994.1486
 Red. masses --     1.5088                 1.9850                 1.5330
 Frc consts  --     0.0000                 0.0000                 0.0000
 IR Inten    --     7.5797                 2.0692                 2.3517
 Raman Activ --     0.0000                 0.0000                 0.0000
 Depolar     --     0.0000                 0.0000                 0.0000
 Atom AN      X      Y      Z        X      Y      Z        X      Y      Z
   1   7     0.00  -0.00  -0.00    -0.00  -0.02   0.02     0.00   0.01  -0.01
   2   6    -0.01  -0.03   0.04    -0.01  -0.03   0.29     0.07   0.20   0.05
   3   6     0.04   0.19  -0.07    -0.01  -0.03   0.06     0.00   0.03   0.00
   4   8     0.02   0.01  -0.00    -0.00  -0.00   0.00     0.00   0.00   0.00
   5   6     0.00   0.00   0.00    -0.00   0.00   0.00    -0.00   0.00   0.00
   6   6    -0.00  -0.00  -0.00     0.00  -0.00  -0.00    -0.00  -0.00  -0.00
   7   6    -0.00   0.00  -0.00    -0.00  -0.00   0.00    -0.00  -0.00  -0.00
   8   6    -0.00   0.00  -0.00     0.00  -0.00  -0.00     0.00  -0.00  -0.00
   9   6    -0.00   0.00  -0.00     0.00   0.00   0.00     0.00   0.00   0.00
  10   6    -0.00   0.00  -0.00     0.00  -0.00   0.00     0.00  -0.00   0.00
  11   6     0.00   0.00  -0.00     0.00   0.00   0.00     0.00   0.00   0.00
  12   6     0.00   0.00   0.00     0.00   0.00   0.00     0.00   0.00   0.00
  13   6     0.00  -0.00   0.00    -0.00   0.00   0.00     0.00   0.00   0.00
  14   6     0.00   0.00   0.00     0.00  -0.00  -0.00     0.00  -0.00  -0.00
  15  17    -0.00  -0.00  -0.00     0.00   0.00  -0.00    -0.00  -0.00   0.00
  16   1    -0.00  -0.00   0.01     0.02   0.06  -0.07    -0.01  -0.03   0.03
  17   1    -0.00   0.00   0.00    -0.00   0.00   0.00     0.00   0.00  -0.00
  18   1    -0.00   0.00   0.00     0.00   0.00   0.01     0.00   0.01   0.02
  19   1     0.04   0.12  -0.16     0.14   0.45  -0.56    -0.11  -0.33   0.48
  20   1    -0.00  -0.01   0.00    -0.10  -0.32  -0.47    -0.13  -0.38  -0.65
  21   1    -0.12  -0.48   0.67     0.03   0.12  -0.16    -0.01  -0.05   0.07
  22   1    -0.06  -0.22  -0.41    -0.01  -0.03  -0.03    -0.01  -0.04  -0.07
  23   1     0.02   0.00   0.00    -0.00   0.00  -0.00     0.00  -0.00   0.00
  24   1    -0.00  -0.00  -0.00     0.00   0.00  -0.00     0.00   0.00  -0.00
  25   1     0.00  -0.00   0.00    -0.00   0.00  -0.00    -0.00   0.00  -0.00
  26   1     0.00  -0.00  -0.00    -0.00   0.00   0.00    -0.00   0.00  -0.00
  27   1    -0.00  -0.00  -0.00    -0.00  -0.00   0.00    -0.00  -0.00   0.00
  28   1    -0.00  -0.00   0.00     0.00  -0.00   0.00    -0.00  -0.00   0.00
  29   1    -0.00   0.00   0.00     0.00  -0.00   0.00    -0.00  -0.00   0.00
                     73                     74                     75
                        a                      a                      a 
 Frequencies --  3099.0061              3103.6113              3107.7884
 Red. masses --     1.7604                 1.7891                 1.8215
 Frc consts  --     0.0000                 0.0000                 0.0000
 IR Inten    --    12.4444                19.9626                37.2236
 Raman Activ --     0.0000                 0.0000                 0.0000
 Depolar     --     0.0000                 0.0000                 0.0000
 Atom AN      X      Y      Z        X      Y      Z        X      Y      Z
   1   7     0.00   0.00  -0.00     0.00  -0.00   0.00     0.00   0.00  -0.00
   2   6    -0.00   0.00   0.00     0.00   0.00   0.00    -0.00  -0.00  -0.00
   3   6    -0.00  -0.00  -0.00    -0.00  -0.00   0.00    -0.00  -0.00  -0.00
   4   8     0.00  -0.00  -0.00    -0.00   0.00   0.00    -0.00   0.00  -0.00
   5   6    -0.00  -0.00  -0.00    -0.00  -0.00  -0.00     0.00   0.00   0.00
   6   6    -0.00  -0.00  -0.00    -0.02  -0.01  -0.00     0.01   0.00   0.00
   7   6     0.00   0.01   0.00     0.07   0.24   0.01    -0.01  -0.03  -0.00
   8   6     0.01  -0.01  -0.00     0.06  -0.06  -0.00     0.00  -0.00  -0.00
   9   6    -0.00   0.00   0.00     0.00  -0.00   0.00    -0.00   0.00   0.00
  10   6    -0.04   0.04   0.00    -0.01   0.01   0.00    -0.08   0.08   0.00
  11   6     0.19   0.05   0.00     0.00   0.00   0.00     0.14   0.04   0.00
  12   6    -0.04  -0.16  -0.00     0.01   0.03   0.00     0.05   0.18   0.00
  13   6    -0.02   0.02   0.00     0.00  -0.00  -0.00     0.05  -0.05  -0.00
  14   6    -0.00   0.00   0.00    -0.00  -0.00  -0.00     0.00  -0.00  -0.00
  15  17    -0.00  -0.00   0.00     0.00  -0.00   0.00     0.00  -0.00  -0.00
  16   1     0.00  -0.00   0.00     0.00   0.00  -0.00    -0.00  -0.00   0.00
  17   1    -0.00   0.00   0.00    -0.00   0.00   0.00     0.00  -0.00  -0.00
  18   1     0.00  -0.00   0.00     0.00  -0.00  -0.00    -0.00   0.00   0.00
  19   1    -0.00  -0.00  -0.00    -0.00  -0.00   0.00     0.00   0.00  -0.00
  20   1    -0.00  -0.00  -0.00    -0.00  -0.00  -0.00     0.00   0.00   0.00
  21   1    -0.00  -0.00   0.00     0.00   0.00  -0.00     0.00   0.00  -0.00
  22   1    -0.00  -0.00  -0.00     0.00   0.00   0.00     0.00   0.00   0.00
  23   1     0.00   0.00   0.00     0.11   0.03   0.00    -0.02  -0.01  -0.00
  24   1    -0.01  -0.03  -0.00    -0.23  -0.86  -0.02     0.03   0.11   0.00
  25   1    -0.02   0.02   0.00    -0.24   0.24   0.00    -0.01   0.00   0.00
  26   1     0.16  -0.16  -0.00     0.04  -0.04  -0.00     0.28  -0.28  -0.00
  27   1    -0.68  -0.19  -0.01    -0.01  -0.00  -0.00    -0.47  -0.14  -0.01
  28   1     0.15   0.58   0.01    -0.02  -0.09  -0.00    -0.17  -0.65  -0.02
  29   1     0.09  -0.08  -0.00    -0.02   0.02   0.00    -0.18   0.17   0.00
                     76                     77                     78
                        a                      a                      a 
 Frequencies --  3118.8819              3123.2484              3127.6836
 Red. masses --     1.8783                 1.8580                 1.8661
 Frc consts  --     0.0000                 0.0000                 0.0000
 IR Inten    --    22.9211                83.6651                19.8479
 Raman Activ --     0.0000                 0.0000                 0.0000
 Depolar     --     0.0000                 0.0000                 0.0000
 Atom AN      X      Y      Z        X      Y      Z        X      Y      Z
   1   7     0.00  -0.00   0.00    -0.00   0.00  -0.00    -0.00   0.00  -0.00
   2   6     0.00   0.00   0.00    -0.00  -0.00  -0.00    -0.00   0.00  -0.00
   3   6     0.00   0.00   0.00     0.00   0.00  -0.00    -0.00  -0.00  -0.00
   4   8    -0.00  -0.00  -0.00     0.00   0.00  -0.00     0.00  -0.00  -0.00
   5   6     0.00   0.00   0.00     0.00  -0.00  -0.00    -0.00   0.00   0.00
   6   6     0.01   0.00   0.00     0.02   0.01   0.00     0.00   0.00   0.00
   7   6    -0.02  -0.06  -0.00    -0.02  -0.08  -0.00    -0.00  -0.01  -0.00
   8   6     0.10  -0.10  -0.00     0.15  -0.15  -0.00     0.02  -0.02  -0.00
   9   6     0.01   0.01   0.00     0.01  -0.00   0.00     0.00  -0.00   0.00
  10   6    -0.14   0.14   0.00     0.10  -0.10  -0.00     0.02  -0.02  -0.00
  11   6    -0.11  -0.03  -0.00     0.06   0.02   0.00     0.04   0.01   0.00
  12   6    -0.01  -0.04  -0.00     0.00   0.01   0.00     0.03   0.09   0.00
  13   6    -0.02   0.02   0.00     0.04  -0.03  -0.00    -0.19   0.18   0.00
  14   6    -0.00  -0.00  -0.00    -0.00   0.00   0.00    -0.01   0.00  -0.00
  15  17     0.00   0.00  -0.00     0.00   0.00  -0.00     0.00  -0.00  -0.00
  16   1    -0.00   0.00  -0.00    -0.00  -0.00   0.00    -0.00   0.00   0.00
  17   1    -0.00   0.00   0.00     0.00  -0.00  -0.00     0.00  -0.00  -0.00
  18   1    -0.00  -0.00  -0.00    -0.00   0.00   0.00     0.00   0.00   0.00
  19   1     0.00  -0.00   0.00     0.00   0.00  -0.00    -0.00  -0.00   0.00
  20   1    -0.00  -0.00  -0.00     0.00   0.00   0.00     0.00   0.00   0.00
  21   1    -0.00  -0.00   0.00    -0.00  -0.00   0.00    -0.00  -0.00   0.00
  22   1    -0.00  -0.00  -0.00    -0.00  -0.00  -0.00    -0.00  -0.00  -0.00
  23   1    -0.05  -0.01  -0.00    -0.09  -0.03  -0.00    -0.02  -0.01  -0.00
  24   1     0.05   0.20   0.00     0.06   0.24   0.01     0.01   0.03   0.00
  25   1    -0.35   0.35   0.00    -0.53   0.52   0.00    -0.06   0.06   0.00
  26   1     0.49  -0.48  -0.00    -0.34   0.34   0.00    -0.08   0.08   0.00
  27   1     0.35   0.10   0.01    -0.18  -0.05  -0.00    -0.13  -0.03  -0.00
  28   1     0.03   0.13   0.00    -0.01  -0.03  -0.00    -0.07  -0.28  -0.01
  29   1     0.09  -0.09  -0.00    -0.12   0.12   0.00     0.64  -0.62  -0.00
                     79                     80                     81
                        a                      a                      a 
 Frequencies --  3145.8807              3245.4733              3252.5419
 Red. masses --     1.8342                 2.0177                 1.5261
 Frc consts  --     0.0000                 0.0000                 0.0000
 IR Inten    --    28.8331                65.4291                29.4585
 Raman Activ --     0.0000                 0.0000                 0.0000
 Depolar     --     0.0000                 0.0000                 0.0000
 Atom AN      X      Y      Z        X      Y      Z        X      Y      Z
   1   7     0.00  -0.00  -0.00     0.11  -0.23  -0.12     0.11   0.02   0.16
   2   6     0.00   0.00   0.00     0.00  -0.01  -0.00     0.01   0.00   0.01
   3   6    -0.00  -0.00  -0.00    -0.00   0.00   0.00    -0.00  -0.00  -0.00
   4   8    -0.00  -0.00  -0.00    -0.00  -0.00  -0.00    -0.00   0.00   0.00
   5   6    -0.01   0.01   0.00     0.00  -0.00  -0.00     0.00  -0.00   0.00
   6   6    -0.26  -0.08  -0.01     0.00   0.00   0.00    -0.00   0.00  -0.00
   7   6    -0.01  -0.05  -0.00    -0.00  -0.00  -0.00    -0.00  -0.00   0.00
   8   6     0.01  -0.01  -0.00     0.00  -0.00   0.00     0.00  -0.00  -0.00
   9   6     0.00   0.00   0.00    -0.00   0.00   0.00    -0.00  -0.00   0.00
  10   6     0.00  -0.00  -0.00     0.00  -0.00   0.00     0.00  -0.00  -0.00
  11   6     0.00   0.00   0.00     0.00   0.00  -0.00     0.00   0.00   0.00
  12   6     0.00   0.00   0.00     0.00   0.00  -0.00     0.00   0.00   0.00
  13   6    -0.00   0.00   0.00    -0.00   0.00  -0.00    -0.00   0.00   0.00
  14   6     0.00  -0.00   0.00    -0.00   0.00   0.00    -0.00   0.00  -0.00
  15  17    -0.00   0.00   0.00     0.00   0.00  -0.00     0.00   0.00  -0.00
  16   1     0.00  -0.00   0.00     0.01  -0.03  -0.00    -0.00  -0.03   0.05
  17   1    -0.00   0.00   0.00    -0.52   0.66   0.06    -0.29   0.38   0.06
  18   1     0.00   0.00   0.00     0.10   0.21   0.39    -0.15  -0.43  -0.72
  19   1    -0.00   0.00  -0.00    -0.00   0.00  -0.00    -0.00  -0.00   0.00
  20   1    -0.00  -0.00   0.00     0.00   0.01   0.01    -0.00  -0.01  -0.02
  21   1     0.00   0.01  -0.01     0.00   0.00  -0.00    -0.00  -0.00   0.00
  22   1     0.00   0.01   0.01    -0.00   0.00   0.00     0.00   0.00   0.00
  23   1     0.91   0.27   0.02    -0.00  -0.00   0.00     0.00  -0.00  -0.00
  24   1     0.04   0.13   0.00     0.00   0.00   0.00     0.00   0.00  -0.00
  25   1    -0.04   0.04   0.00    -0.00   0.00   0.00    -0.00   0.00   0.00
  26   1    -0.01   0.01   0.00    -0.00   0.00   0.00    -0.00   0.00   0.00
  27   1    -0.01  -0.00  -0.00    -0.00  -0.00  -0.00    -0.00  -0.00   0.00
  28   1    -0.00  -0.01  -0.00    -0.00  -0.00  -0.00    -0.00  -0.00   0.00
  29   1     0.00  -0.00  -0.00     0.00  -0.00  -0.00     0.00  -0.00   0.00
