28
 energy: -40.301012262869 gnorm: 0.000702800662 xtb: 6.5.1 (fef0646)
N            0.88231574559742       -0.25572740246265       -0.17235501357985
C            2.31850346315664        0.01822853535116       -0.31174196403861
C            3.08759866021940       -0.85908026031099        0.67394352645308
C            2.80896143268517       -0.18515104690716       -1.72913448046857
C            2.62480206614650       -1.42943850858240       -2.36595879016145
C            3.04378153689406       -1.62994708967413       -3.64935022457092
C            3.42054995498153        0.83047066757102       -2.41584366786718
C            3.86876442392044        0.65744668909521       -3.74132704233245
C            3.67346509275601       -0.59710646208390       -4.37472726709813
C            4.11300797141192       -0.76923564997557       -5.70333481135652
C            4.71995261177174        0.25535325571068       -6.37403475643750
C            4.91608887460351        1.49588793126627       -5.74695117978937
C            4.50014559905537        1.69386801512504       -4.46029581599470
Cl          -0.01740423348024        0.24806117659780        2.56231060945315
H            0.41718504017248        0.01344328761026        1.27391843328907
H            0.68111592810553       -1.22858949029059       -0.37991503106518
H            0.33889613845876        0.33036138111790       -0.79780219999775
H            2.46166487390865        1.06822902020853       -0.03407973584700
H            2.96875317017569       -1.91175210480432        0.42919798935882
H            2.71453352284767       -0.68995177540571        1.67954178797425
H            4.14584744672769       -0.61464773515834        0.63959481266829
H            2.14837631616653       -2.23739589944539       -1.82775693693034
H            2.89818810473834       -2.58754408730862       -4.12866853562001
H            3.57040160925850        1.79081300044504       -1.94177799721384
H            3.96001830342307       -1.72642504306436       -6.18112242245439
H            5.05387885924824        0.11898120959451       -7.39222035514907
H            5.39922754719786        2.29322995459787       -6.29245331026186
H            4.64898993985024        2.64733843118402       -3.97411562096087
