 Entering Gaussian System
 *********************************************
 Gaussian 98:
 frequency output generated by the xtb code
 *********************************************
                         Standard orientation:
 --------------------------------------------------------------------
  Center     Atomic     Atomic              Coordinates (Angstroms)
  Number     Number      Type              X           Y           Z
 --------------------------------------------------------------------
    1          7             0       -4.784276   -0.633116   -0.735582
    2          6             0       -5.100847    0.562797    0.094577
    3          6             0       -4.227952    1.762592   -0.264528
    4          6             0       -2.768483    1.503535   -0.035113
    5          6             0       -2.241898    1.531114    1.247315
    6          6             0       -0.909878    1.258977    1.469161
    7          6             0       -0.054314    0.945471    0.413099
    8          6             0        1.349016    0.664354    0.686204
    9          6             0        2.294492    0.454338   -0.240359
   10          6             0        3.698101    0.176841    0.033217
   11          6             0        4.598817    0.098514   -1.028606
   12          6             0        5.939627   -0.159663   -0.821641
   13          9             0        6.799143   -0.226269   -1.875844
   14          6             0        6.398700   -0.347803    0.470158
   15          6             0        5.526154   -0.278906    1.536441
   16          6             0        4.189415   -0.020170    1.324606
   17          6             0       -0.592978    0.910812   -0.873400
   18          6             0       -1.926078    1.184018   -1.089825
   19         17             0       -6.803277   -3.336384    0.255400
   20          1             0       -5.365490   -1.445953   -0.474489
   21          1             0       -3.797907   -0.903921   -0.623485
   22          1             0       -4.941929   -0.440067   -1.736812
   23          1             0       -4.964565    0.314498    1.153527
   24          1             0       -6.162586    0.814272   -0.016680
   25          1             0       -4.529095    2.644695    0.312331
   26          1             0       -4.386294    2.030971   -1.314038
   27          1             0       -2.889824    1.767209    2.074467
   28          1             0       -0.515935    1.287197    2.470820
   29          1             0        1.630890    0.641945    1.723333
   30          1             0        2.018658    0.504067   -1.278098
   31          1             0        4.253215    0.243624   -2.035775
   32          1             0        7.444320   -0.548698    0.623565
   33          1             0        5.892417   -0.429126    2.538910
   34          1             0        3.519958    0.021825    2.165258
   35          1             0        0.035307    0.659527   -1.709551
   36          1             0       -2.327071    1.149409   -2.088754
 --------------------------------------------------------------------
     1 basis functions        1 primitive gaussians
     1 alpha electrons        1 beta electrons

 Harmonic frequencies (cm**-1), IR intensities (km*mol⁻¹),
 Raman scattering activities (A**4/amu), Raman depolarization ratios,
 reduced masses (AMU), force constants (mDyne/A) and normal coordinates:
                      1                      2                      3
                        a                      a                      a 
 Frequencies --  -142.6549               -94.1535               -47.7356
 Red. masses --    23.9921                 7.7813                10.2148
 Frc consts  --     0.0000                 0.0000                 0.0000
 IR Inten    --    39.8156                 0.3215                 2.2740
 Raman Activ --     0.0000                 0.0000                 0.0000
 Depolar     --     0.0000                 0.0000                 0.0000
 Atom AN      X      Y      Z        X      Y      Z        X      Y      Z
   1   7     0.30   0.32  -0.23    -0.01   0.02   0.03     0.04  -0.02  -0.06
   2   6     0.07   0.16  -0.09     0.01   0.06  -0.01     0.02  -0.06  -0.00
   3   6     0.05   0.20   0.04     0.02   0.04  -0.06    -0.01  -0.02   0.03
   4   6     0.03   0.11   0.02     0.01   0.02  -0.04    -0.01   0.01   0.03
   5   6     0.03   0.07   0.02     0.01   0.09  -0.04     0.07   0.36  -0.01
   6   6     0.02   0.01   0.01    -0.02  -0.02  -0.01     0.08   0.40  -0.01
   7   6     0.01  -0.01   0.01    -0.04  -0.18   0.02     0.01   0.09   0.03
   8   6    -0.00  -0.02   0.00    -0.09  -0.38   0.05     0.03   0.16   0.01
   9   6     0.01  -0.01  -0.01     0.08   0.44   0.04    -0.03  -0.05   0.00
  10   6    -0.00  -0.01  -0.00     0.04   0.21   0.02    -0.02  -0.04  -0.01
  11   6     0.00  -0.01  -0.00     0.03   0.18   0.01     0.01   0.13   0.00
  12   6     0.00  -0.00  -0.00    -0.00  -0.01  -0.01    -0.00   0.07  -0.00
  13   9     0.01   0.00  -0.00    -0.02  -0.04  -0.02     0.02   0.21   0.01
  14   6     0.00   0.00   0.00    -0.02  -0.15  -0.03    -0.04  -0.10  -0.02
  15   6     0.00   0.00  -0.00    -0.00  -0.07  -0.02    -0.06  -0.26  -0.03
  16   6     0.00   0.00  -0.00     0.03   0.10   0.01    -0.06  -0.25  -0.03
  17   6    -0.00  -0.01   0.01    -0.03  -0.23   0.02    -0.07  -0.29   0.07
  18   6     0.01   0.05   0.01    -0.00  -0.13  -0.01    -0.08  -0.33   0.07
  19  17    -0.40  -0.60   0.17     0.01   0.03   0.03     0.06  -0.01  -0.05
  20   1     0.14   0.06  -0.08     0.00   0.01   0.03     0.02  -0.01  -0.02
  21   1     0.10   0.15  -0.07    -0.00   0.01   0.00     0.01   0.00  -0.02
  22   1     0.07   0.11  -0.06    -0.02  -0.01   0.01     0.00   0.00  -0.01
  23   1     0.01   0.02  -0.03     0.01   0.03  -0.00     0.01  -0.03  -0.00
  24   1     0.02   0.03  -0.04     0.00   0.02  -0.00     0.00  -0.02   0.01
  25   1     0.02   0.04   0.04     0.01   0.02  -0.03    -0.01  -0.01   0.02
  26   1     0.02   0.09   0.02     0.01  -0.00  -0.02    -0.00  -0.00   0.01
  27   1     0.01   0.03   0.01     0.01   0.06  -0.02     0.04   0.18  -0.01
  28   1     0.01  -0.00   0.00    -0.01   0.01  -0.00     0.04   0.20  -0.01
  29   1     0.00  -0.01  -0.00    -0.09  -0.39   0.03     0.03   0.13  -0.00
  30   1     0.00  -0.00  -0.00     0.07   0.42   0.01    -0.02  -0.08   0.00
  31   1     0.00  -0.01  -0.00     0.01   0.08   0.01     0.01   0.09   0.00
  32   1     0.00   0.00   0.00    -0.01  -0.08  -0.01    -0.01  -0.04  -0.01
  33   1     0.00   0.00   0.00    -0.00  -0.04  -0.01    -0.03  -0.12  -0.01
  34   1     0.00   0.00  -0.00     0.02   0.07   0.01    -0.03  -0.13  -0.01
  35   1    -0.01  -0.01   0.00    -0.01  -0.13   0.02    -0.04  -0.16   0.03
  36   1     0.00   0.02   0.00    -0.00  -0.06  -0.00    -0.04  -0.18   0.03
                      4                      5                      6
                        a                      a                      a 
 Frequencies --   -18.2626                28.5901                37.3261
 Red. masses --    12.4832                22.6208                18.4712
 Frc consts  --     0.0000                 0.0000                 0.0000
 IR Inten    --     4.9529                 5.5520                 3.6157
 Raman Activ --     0.0000                 0.0000                 0.0000
 Depolar     --     0.0000                 0.0000                 0.0000
 Atom AN      X      Y      Z        X      Y      Z        X      Y      Z
   1   7    -0.03   0.10  -0.10     0.17   0.07  -0.12    -0.03  -0.19   0.03
   2   6    -0.02   0.06  -0.05     0.02  -0.02  -0.04     0.02  -0.17   0.05
   3   6     0.04   0.05   0.06    -0.05   0.07   0.06     0.01  -0.16   0.04
   4   6     0.02  -0.04   0.07    -0.05   0.11   0.06     0.02  -0.08   0.06
   5   6     0.05   0.06   0.06    -0.04   0.14   0.06     0.04   0.05   0.05
   6   6     0.03  -0.02   0.06    -0.05   0.13   0.06     0.06   0.18   0.06
   7   6    -0.01  -0.20   0.08    -0.06   0.08   0.07     0.08   0.18   0.07
   8   6    -0.01  -0.20   0.07    -0.06   0.05   0.07     0.09   0.26   0.06
   9   6    -0.03  -0.23   0.05    -0.07   0.05   0.06     0.08   0.21   0.06
  10   6    -0.00  -0.10   0.02    -0.08   0.01   0.03     0.08   0.17   0.03
  11   6    -0.05  -0.18  -0.02    -0.13  -0.14  -0.01     0.02   0.01  -0.01
  12   6    -0.00   0.05  -0.05    -0.13  -0.18  -0.04     0.00  -0.11  -0.05
  13   9    -0.06  -0.00  -0.10    -0.22  -0.37  -0.09    -0.06  -0.32  -0.10
  14   6     0.09   0.34  -0.04    -0.08  -0.09  -0.05     0.04  -0.10  -0.06
  15   6     0.14   0.37  -0.01    -0.03   0.07  -0.01     0.10   0.10  -0.02
  16   6     0.09   0.15   0.02    -0.02   0.13   0.03     0.12   0.25   0.02
  17   6    -0.05  -0.34   0.10    -0.06   0.06   0.07     0.06   0.05   0.08
  18   6    -0.03  -0.26   0.10    -0.05   0.08   0.07     0.04  -0.07   0.07
  19  17    -0.09   0.20  -0.18     0.62  -0.14  -0.14    -0.46  -0.08  -0.25
  20   1    -0.02   0.03  -0.05     0.10  -0.02  -0.02    -0.08  -0.02  -0.05
  21   1    -0.01   0.01  -0.01     0.07   0.08  -0.06    -0.03  -0.12   0.06
  22   1     0.02   0.05  -0.03     0.01   0.02  -0.03     0.06  -0.02   0.00
  23   1    -0.02   0.00  -0.01     0.01  -0.02  -0.02     0.01  -0.05   0.01
  24   1    -0.00   0.03  -0.02     0.00  -0.03  -0.02     0.01  -0.04   0.02
  25   1     0.02   0.01   0.03    -0.03   0.00   0.03    -0.01  -0.05   0.01
  26   1     0.02   0.04   0.02    -0.01   0.04   0.02     0.00  -0.05   0.01
  27   1     0.02   0.06   0.01    -0.01   0.05   0.02     0.01   0.02   0.01
  28   1     0.02   0.02   0.01    -0.01   0.04   0.02     0.02   0.08   0.01
  29   1     0.01  -0.04   0.02    -0.02   0.01   0.02     0.03   0.09   0.02
  30   1    -0.02  -0.09   0.02    -0.02   0.02   0.02     0.01   0.04   0.02
  31   1    -0.04  -0.12  -0.01    -0.05  -0.07  -0.00    -0.00  -0.01  -0.00
  32   1     0.04   0.15  -0.02    -0.03  -0.04  -0.02     0.00  -0.07  -0.03
  33   1     0.06   0.17  -0.00     0.00   0.04  -0.00     0.04   0.04  -0.01
  34   1     0.04   0.06   0.02     0.01   0.08   0.02     0.05   0.12   0.01
  35   1    -0.03  -0.14   0.03    -0.02   0.01   0.02     0.02   0.02   0.02
  36   1    -0.02  -0.10   0.03    -0.02   0.02   0.02     0.01  -0.05   0.02
                      7                      8                      9
                        a                      a                      a 
 Frequencies --    64.6700                98.1578               113.1752
 Red. masses --    12.2571                11.5677                16.1605
 Frc consts  --     0.0000                 0.0000                 0.0000
 IR Inten    --     2.8959                16.6304                30.5172
 Raman Activ --     0.0000                 0.0000                 0.0000
 Depolar     --     0.0000                 0.0000                 0.0000
 Atom AN      X      Y      Z        X      Y      Z        X      Y      Z
   1   7    -0.00   0.06   0.11     0.33  -0.19   0.39    -0.49   0.16   0.31
   2   6    -0.00  -0.05   0.24     0.18  -0.07   0.17    -0.14   0.32   0.17
   3   6    -0.07   0.03   0.30     0.00  -0.01  -0.07     0.04   0.11  -0.11
   4   6    -0.05   0.03   0.12     0.04   0.19  -0.09     0.02   0.03  -0.08
   5   6     0.10   0.06   0.06     0.02   0.24  -0.09     0.01   0.08  -0.08
   6   6     0.12   0.03  -0.10    -0.01   0.14  -0.05     0.01   0.08  -0.04
   7   6    -0.01  -0.02  -0.19    -0.03   0.00  -0.02     0.03   0.03  -0.01
   8   6    -0.01  -0.05  -0.28    -0.08  -0.22   0.03     0.03   0.03   0.03
   9   6     0.02   0.04  -0.28    -0.05  -0.10   0.03     0.03  -0.04   0.05
  10   6     0.00   0.03  -0.17    -0.07  -0.16   0.03     0.04  -0.04   0.04
  11   6     0.12  -0.06  -0.06    -0.08  -0.12   0.01     0.02  -0.04   0.03
  12   6     0.10  -0.06   0.10    -0.06   0.02  -0.01     0.03  -0.02  -0.00
  13   9     0.26  -0.17   0.25    -0.10   0.08  -0.03     0.00  -0.07  -0.03
  14   6    -0.04   0.03   0.16    -0.01   0.14  -0.01     0.06   0.02  -0.01
  15   6    -0.15   0.12   0.06    -0.00   0.04   0.00     0.08   0.01   0.01
  16   6    -0.12   0.11  -0.10    -0.04  -0.12   0.02     0.07  -0.03   0.03
  17   6    -0.15  -0.04  -0.13     0.02   0.10  -0.04     0.04  -0.02  -0.01
  18   6    -0.18  -0.02   0.02     0.05   0.18  -0.08     0.05  -0.02  -0.05
  19  17     0.02  -0.04  -0.15    -0.12  -0.06  -0.18     0.12  -0.41  -0.19
  20   1     0.00   0.00  -0.00    -0.01  -0.01   0.03    -0.14   0.05   0.12
  21   1    -0.00   0.01   0.02     0.05  -0.12   0.23    -0.14   0.01   0.05
  22   1    -0.00   0.05   0.04     0.23  -0.04   0.08    -0.17   0.01   0.08
  23   1     0.02  -0.04   0.06     0.07   0.04   0.06    -0.02   0.13   0.05
  24   1    -0.01  -0.02   0.10     0.04  -0.07   0.04    -0.03   0.15   0.07
  25   1    -0.01  -0.02   0.13    -0.02   0.01  -0.05     0.05   0.08  -0.08
  26   1    -0.06   0.04   0.10    -0.03  -0.06  -0.03     0.01  -0.02  -0.05
  27   1     0.06   0.03   0.04     0.00   0.09  -0.03     0.00   0.04  -0.03
  28   1     0.07   0.01  -0.04    -0.01   0.04  -0.01    -0.00   0.03  -0.01
  29   1    -0.00  -0.04  -0.08    -0.05  -0.15   0.01     0.01   0.03   0.01
  30   1     0.02   0.04  -0.08     0.00   0.05   0.01     0.01  -0.03   0.01
  31   1     0.07  -0.04  -0.03    -0.03  -0.05   0.00    -0.00  -0.01   0.01
  32   1    -0.02   0.01   0.08     0.01   0.08  -0.00     0.02   0.02  -0.01
  33   1    -0.08   0.05   0.03     0.01   0.03   0.00     0.03   0.01   0.00
  34   1    -0.06   0.05  -0.05    -0.01  -0.05   0.01     0.02  -0.02   0.01
  35   1    -0.07  -0.02  -0.05     0.01   0.01  -0.01     0.02  -0.01   0.00
  36   1    -0.09  -0.01   0.02     0.02   0.06  -0.02     0.02  -0.02  -0.02
                     10                     11                     12
                        a                      a                      a 
 Frequencies --   131.1157               172.3351               190.9599
 Red. masses --     9.0717                 8.8721                10.4606
 Frc consts  --     0.0000                 0.0000                 0.0000
 IR Inten    --    12.0867                 0.6851                 2.7130
 Raman Activ --     0.0000                 0.0000                 0.0000
 Depolar     --     0.0000                 0.0000                 0.0000
 Atom AN      X      Y      Z        X      Y      Z        X      Y      Z
   1   7    -0.33  -0.06  -0.36     0.08   0.12   0.03    -0.06   0.01  -0.01
   2   6     0.10  -0.23   0.08     0.29  -0.07   0.37     0.24   0.03   0.07
   3   6    -0.04  -0.13   0.06     0.01   0.02   0.05     0.23  -0.04  -0.14
   4   6     0.01   0.10   0.00     0.03   0.03  -0.16     0.20  -0.04  -0.01
   5   6     0.05   0.20  -0.02    -0.01  -0.06  -0.14     0.07  -0.07   0.04
   6   6     0.05   0.18  -0.02    -0.05  -0.14  -0.11     0.05  -0.05   0.15
   7   6     0.03   0.07  -0.01    -0.04  -0.12  -0.11     0.08   0.00   0.17
   8   6    -0.03  -0.20   0.03    -0.03   0.08   0.00     0.07   0.05   0.07
   9   6     0.03  -0.00   0.04    -0.02  -0.12   0.07    -0.10   0.09  -0.11
  10   6     0.01  -0.14   0.04     0.01   0.12   0.14    -0.14   0.03  -0.20
  11   6    -0.01  -0.15   0.02    -0.04   0.16   0.10    -0.10   0.02  -0.15
  12   6     0.02  -0.01   0.01    -0.06   0.03   0.02    -0.12   0.03  -0.01
  13   9     0.01   0.06  -0.01    -0.20   0.02  -0.07    -0.03  -0.10   0.11
  14   6     0.07   0.11   0.01    -0.03  -0.14  -0.01    -0.22   0.16   0.05
  15   6     0.07   0.02   0.01     0.04   0.00   0.04    -0.30   0.08  -0.02
  16   6     0.04  -0.11   0.03     0.06   0.16   0.13    -0.29  -0.03  -0.16
  17   6     0.04   0.19  -0.02    -0.01  -0.15  -0.12     0.20  -0.06   0.14
  18   6     0.03   0.19  -0.01    -0.00  -0.07  -0.16     0.23  -0.07   0.03
  19  17    -0.06  -0.04   0.10    -0.04   0.08  -0.07    -0.01  -0.02  -0.03
  20   1    -0.00  -0.05   0.00     0.13  -0.02   0.07     0.01   0.00   0.06
  21   1    -0.05   0.02  -0.30     0.07   0.11  -0.18    -0.00   0.00  -0.10
  22   1    -0.30   0.01  -0.06    -0.17   0.06   0.04    -0.11  -0.01   0.01
  23   1     0.15  -0.14  -0.01     0.24  -0.05   0.08     0.14   0.01   0.01
  24   1     0.02  -0.05   0.16     0.06  -0.06   0.26     0.06   0.03   0.09
  25   1    -0.04  -0.05   0.03     0.03   0.01   0.02     0.07   0.02  -0.09
  26   1    -0.04  -0.03   0.02    -0.07  -0.02   0.02     0.08  -0.07  -0.06
  27   1     0.02   0.07  -0.00    -0.01  -0.01  -0.05    -0.01  -0.02  -0.01
  28   1     0.02   0.06  -0.01    -0.02  -0.06  -0.03     0.00  -0.02   0.05
  29   1    -0.04  -0.18   0.01    -0.00   0.15   0.00     0.06   0.01   0.01
  30   1     0.03   0.12   0.01    -0.01  -0.16   0.02    -0.06   0.05  -0.02
  31   1    -0.01  -0.06   0.01    -0.02   0.07   0.04    -0.01  -0.00  -0.05
  32   1     0.03   0.08  -0.00    -0.02  -0.10  -0.02    -0.06   0.07   0.04
  33   1     0.03   0.03   0.00     0.02  -0.02   0.00    -0.11   0.03   0.00
  34   1     0.02  -0.03   0.01     0.03   0.06   0.04    -0.11  -0.04  -0.07
  35   1     0.01   0.06  -0.01     0.00  -0.05  -0.03     0.07  -0.03   0.06
  36   1     0.01   0.06  -0.00     0.00  -0.01  -0.05     0.08  -0.02   0.00
                     13                     14                     15
                        a                      a                      a 
 Frequencies --   216.4410               228.1589               233.2333
 Red. masses --    10.8421                11.7730                10.1160
 Frc consts  --     0.0000                 0.0000                 0.0000
 IR Inten    --     1.6181                 2.1943                 1.8278
 Raman Activ --     0.0000                 0.0000                 0.0000
 Depolar     --     0.0000                 0.0000                 0.0000
 Atom AN      X      Y      Z        X      Y      Z        X      Y      Z
   1   7    -0.13  -0.09  -0.04    -0.03   0.10  -0.04    -0.15  -0.04  -0.15
   2   6     0.04  -0.01  -0.08    -0.01   0.04   0.02     0.03  -0.02  -0.08
   3   6     0.05   0.01  -0.06     0.12  -0.03   0.15     0.09   0.00   0.11
   4   6     0.06   0.13   0.04     0.11  -0.19  -0.00     0.11   0.06   0.05
   5   6     0.05   0.16   0.04     0.14  -0.14  -0.02     0.16   0.07   0.02
   6   6     0.03   0.02   0.06     0.17   0.03  -0.10     0.14  -0.03  -0.05
   7   6    -0.01  -0.13   0.08     0.10   0.13  -0.16     0.03  -0.12  -0.10
   8   6    -0.01  -0.17   0.01     0.03   0.09  -0.07    -0.01  -0.13  -0.06
   9   6    -0.08  -0.26  -0.04     0.06   0.18  -0.03    -0.01  -0.16  -0.03
  10   6    -0.02   0.03  -0.08    -0.07  -0.10   0.11    -0.01   0.11   0.09
  11   6    -0.01  -0.05  -0.07    -0.17  -0.33   0.07     0.00   0.41   0.10
  12   6    -0.02  -0.08  -0.02    -0.14  -0.11   0.04    -0.05   0.16   0.05
  13   9     0.14   0.33   0.09    -0.29   0.36  -0.05    -0.29  -0.28  -0.08
  14   6    -0.12  -0.41  -0.03    -0.10  -0.07   0.03    -0.05   0.08   0.04
  15   6    -0.07   0.01  -0.02    -0.07  -0.04   0.07    -0.03   0.03   0.05
  16   6     0.02   0.43  -0.03    -0.05   0.06   0.13    -0.06  -0.09   0.07
  17   6     0.02  -0.01   0.06     0.09   0.02  -0.15     0.03   0.01  -0.10
  18   6     0.06   0.14   0.04     0.04  -0.15  -0.07     0.05   0.12  -0.02
  19  17     0.01  -0.06   0.04     0.05  -0.00   0.04     0.06  -0.06   0.08
  20   1    -0.12   0.02  -0.04    -0.10   0.06  -0.11    -0.24   0.08  -0.18
  21   1    -0.07  -0.12   0.04    -0.04  -0.07   0.09    -0.12  -0.23   0.14
  22   1     0.04  -0.01  -0.02     0.13   0.09  -0.02     0.19   0.08  -0.06
  23   1     0.01  -0.00  -0.02    -0.04  -0.01   0.00    -0.02  -0.04  -0.03
  24   1     0.02   0.02  -0.02     0.01   0.05  -0.02     0.02   0.04  -0.04
  25   1    -0.02   0.00  -0.03     0.08  -0.02   0.08     0.02  -0.03   0.07
  26   1     0.03  -0.01  -0.02     0.02   0.04   0.06     0.02   0.05   0.05
  27   1     0.02   0.07   0.01     0.04  -0.06  -0.00     0.06   0.03   0.01
  28   1     0.01   0.00   0.02     0.07   0.02  -0.04     0.06  -0.01  -0.02
  29   1     0.02   0.02  -0.00    -0.02  -0.06  -0.01     0.01   0.02  -0.02
  30   1    -0.05  -0.17  -0.01     0.05   0.14  -0.01     0.00  -0.11  -0.01
  31   1     0.00  -0.02  -0.02    -0.07  -0.13   0.02     0.00   0.17   0.04
  32   1    -0.06  -0.22  -0.01    -0.02   0.01   0.01    -0.02  -0.01   0.00
  33   1    -0.03   0.01  -0.00    -0.00   0.01   0.02    -0.01  -0.01   0.01
  34   1     0.02   0.25  -0.00     0.00   0.09   0.05    -0.03  -0.11   0.01
  35   1     0.00  -0.00   0.02     0.03   0.01  -0.05     0.00   0.01  -0.04
  36   1     0.02   0.06   0.01    -0.01  -0.06  -0.01    -0.00   0.06   0.00
                     16                     17                     18
                        a                      a                      a 
 Frequencies --   262.2744               314.0325               350.5868
 Red. masses --     6.8618                10.4586                 9.0364
 Frc consts  --     0.0000                 0.0000                 0.0000
 IR Inten    --     5.1212                 5.7933                 1.7856
 Raman Activ --     0.0000                 0.0000                 0.0000
 Depolar     --     0.0000                 0.0000                 0.0000
 Atom AN      X      Y      Z        X      Y      Z        X      Y      Z
   1   7    -0.07   0.16  -0.18    -0.09  -0.23   0.00    -0.05  -0.17   0.05
   2   6     0.15  -0.05   0.20     0.21   0.00  -0.15    -0.06  -0.03  -0.11
   3   6    -0.08   0.04  -0.01     0.05   0.17  -0.12     0.00   0.13   0.35
   4   6    -0.06   0.07  -0.13     0.03   0.38   0.12     0.09   0.09  -0.17
   5   6    -0.17  -0.04  -0.09     0.03   0.05   0.14     0.07   0.03  -0.17
   6   6    -0.20  -0.07   0.03    -0.00  -0.23   0.02     0.01  -0.04  -0.07
   7   6    -0.08   0.01   0.10    -0.05  -0.11  -0.06     0.02  -0.12  -0.02
   8   6    -0.03   0.13   0.10     0.04   0.24  -0.15     0.00   0.09   0.23
   9   6    -0.02   0.13   0.08     0.08   0.21  -0.10    -0.02   0.09   0.22
  10   6     0.01  -0.01  -0.05     0.03   0.05   0.05    -0.00   0.07   0.01
  11   6     0.02  -0.12  -0.07     0.01  -0.20   0.07    -0.13  -0.06  -0.11
  12   6     0.05  -0.04  -0.04     0.03  -0.06   0.05    -0.11   0.02  -0.11
  13   9     0.23  -0.01   0.07    -0.14   0.08  -0.09     0.23  -0.05   0.15
  14   6     0.05   0.04  -0.03     0.08   0.08   0.06    -0.11   0.09  -0.11
  15   6     0.03  -0.05  -0.05     0.02  -0.10   0.03    -0.03  -0.07  -0.05
  16   6     0.03  -0.07  -0.07     0.02  -0.05   0.04    -0.01  -0.00  -0.01
  17   6    -0.05  -0.08   0.08    -0.16  -0.24  -0.00     0.06  -0.14  -0.05
  18   6    -0.02  -0.03  -0.06    -0.09   0.13   0.10     0.11   0.11  -0.18
  19  17     0.10  -0.01   0.08    -0.02  -0.04   0.00    -0.02  -0.02  -0.00
  20   1    -0.27   0.14  -0.32    -0.06  -0.01   0.09     0.01  -0.04   0.10
  21   1    -0.12  -0.24   0.16    -0.04  -0.13  -0.04    -0.00  -0.02  -0.01
  22   1     0.29   0.26  -0.06    -0.07  -0.13  -0.00    -0.07  -0.13   0.01
  23   1     0.16  -0.06   0.03     0.09   0.03  -0.04    -0.11  -0.02  -0.02
  24   1     0.02  -0.03   0.18     0.06  -0.00  -0.01    -0.00   0.02  -0.11
  25   1    -0.01   0.02  -0.01    -0.08   0.03  -0.05     0.04  -0.09   0.31
  26   1    -0.08  -0.01  -0.00     0.05   0.03  -0.04    -0.09   0.26   0.17
  27   1    -0.07  -0.02  -0.04     0.03  -0.00   0.06     0.01   0.01  -0.06
  28   1    -0.09  -0.03   0.02     0.01  -0.13   0.00    -0.01  -0.01  -0.02
  29   1    -0.01   0.04   0.03     0.03   0.13  -0.05    -0.02   0.09   0.07
  30   1    -0.02   0.04   0.03     0.04   0.02  -0.03    -0.05  -0.01   0.07
  31   1     0.01  -0.05  -0.02     0.00  -0.10   0.01    -0.07  -0.04  -0.02
  32   1     0.02   0.05  -0.01     0.03   0.07   0.03    -0.02   0.05  -0.05
  33   1     0.01  -0.01  -0.01     0.00  -0.05   0.01     0.01  -0.05  -0.02
  34   1     0.01  -0.02  -0.02     0.01  -0.02   0.02    -0.01  -0.01  -0.01
  35   1    -0.00  -0.05   0.04    -0.08  -0.14  -0.01     0.02  -0.07  -0.01
  36   1     0.02  -0.02  -0.03    -0.06   0.05   0.04     0.05   0.06  -0.06
                     19                     20                     21
                        a                      a                      a 
 Frequencies --   361.7240               384.4379               398.5705
 Red. masses --     8.8375                11.3490                 8.8699
 Frc consts  --     0.0000                 0.0000                 0.0000
 IR Inten    --     0.0111                12.6315                 0.7998
 Raman Activ --     0.0000                 0.0000                 0.0000
 Depolar     --     0.0000                 0.0000                 0.0000
 Atom AN      X      Y      Z        X      Y      Z        X      Y      Z
   1   7    -0.01  -0.03   0.00    -0.00  -0.00   0.02    -0.03  -0.13   0.01
   2   6     0.02   0.00  -0.02    -0.14  -0.05   0.02     0.16   0.04  -0.09
   3   6     0.01   0.03   0.02    -0.12   0.01   0.16     0.05   0.19   0.09
   4   6     0.01   0.02  -0.00    -0.03   0.02  -0.21     0.03   0.09  -0.06
   5   6     0.10   0.41  -0.05    -0.05   0.09  -0.20    -0.08  -0.11  -0.02
   6   6    -0.09  -0.42   0.04    -0.11  -0.02   0.10    -0.07  -0.00   0.05
   7   6    -0.00  -0.02  -0.01     0.04  -0.10   0.22    -0.01   0.24   0.02
   8   6     0.00   0.03   0.02     0.12  -0.02  -0.04    -0.02   0.05  -0.03
   9   6     0.00   0.02   0.02     0.02   0.02  -0.18    -0.03  -0.02  -0.03
  10   6     0.00   0.02   0.00     0.03   0.05  -0.14    -0.07  -0.29  -0.03
  11   6    -0.02  -0.02  -0.01     0.22  -0.08   0.07     0.07   0.20   0.04
  12   6    -0.01   0.01  -0.01     0.20  -0.04   0.19    -0.00  -0.21   0.00
  13   9     0.03  -0.01   0.02    -0.34   0.08  -0.26     0.01   0.09  -0.01
  14   6    -0.01   0.02  -0.01     0.15  -0.02   0.22     0.00  -0.26  -0.01
  15   6    -0.01  -0.03  -0.01    -0.09  -0.03   0.05     0.09   0.41   0.03
  16   6    -0.00   0.00   0.00    -0.06   0.04  -0.11    -0.02  -0.19  -0.03
  17   6     0.09   0.38  -0.06     0.10  -0.03   0.20    -0.02   0.01   0.03
  18   6    -0.09  -0.40   0.05     0.14   0.04  -0.10    -0.04  -0.13  -0.04
  19  17    -0.00  -0.00   0.00    -0.00   0.00   0.00    -0.01  -0.02  -0.00
  20   1    -0.01  -0.00   0.01     0.02  -0.02  -0.00    -0.05   0.01   0.07
  21   1    -0.00  -0.02   0.00     0.01   0.04   0.01    -0.02  -0.09  -0.02
  22   1    -0.00  -0.02  -0.00     0.00  -0.00   0.00    -0.04  -0.09  -0.00
  23   1    -0.00   0.00  -0.01    -0.08  -0.03   0.01     0.06   0.01  -0.03
  24   1     0.01   0.00  -0.01    -0.04  -0.01  -0.03     0.04   0.01  -0.01
  25   1     0.01  -0.01   0.03     0.01  -0.05   0.15     0.02  -0.02   0.14
  26   1    -0.00   0.03   0.01    -0.11   0.10   0.08    -0.02   0.17   0.06
  27   1     0.06   0.26  -0.03    -0.04   0.06  -0.09    -0.05  -0.08  -0.01
  28   1    -0.06  -0.26   0.03    -0.09   0.01   0.05    -0.04  -0.04   0.02
  29   1    -0.00   0.01   0.01     0.09   0.02  -0.03    -0.02  -0.09  -0.01
  30   1    -0.00  -0.02   0.01    -0.00  -0.02  -0.05     0.01   0.10  -0.01
  31   1    -0.01  -0.01  -0.00     0.13  -0.05  -0.01     0.06   0.23   0.02
  32   1    -0.00   0.01  -0.01     0.03  -0.00   0.13    -0.00  -0.09   0.00
  33   1    -0.00  -0.02  -0.00    -0.09  -0.02   0.04     0.05   0.30   0.03
  34   1    -0.00  -0.00   0.00    -0.03   0.01  -0.04    -0.00  -0.05  -0.00
  35   1     0.06   0.26  -0.04     0.06  -0.00   0.08    -0.00  -0.05   0.03
  36   1    -0.05  -0.25   0.03     0.11   0.01  -0.06    -0.02  -0.10  -0.00
                     22                     23                     24
                        a                      a                      a 
 Frequencies --   427.9708               469.1431               476.1370
 Red. masses --     9.5830                10.5935                10.5428
 Frc consts  --     0.0000                 0.0000                 0.0000
 IR Inten    --     1.2167                 2.6132                 3.1815
 Raman Activ --     0.0000                 0.0000                 0.0000
 Depolar     --     0.0000                 0.0000                 0.0000
 Atom AN      X      Y      Z        X      Y      Z        X      Y      Z
   1   7    -0.02  -0.12   0.01     0.00  -0.01  -0.00    -0.00  -0.02  -0.01
   2   6     0.26   0.09  -0.11     0.08   0.03  -0.02    -0.07  -0.04   0.01
   3   6     0.15   0.20   0.06     0.10  -0.01  -0.01    -0.23   0.10  -0.06
   4   6     0.04  -0.09  -0.02     0.02  -0.11   0.12    -0.12   0.32  -0.03
   5   6    -0.13  -0.17   0.04     0.01   0.00   0.10     0.03  -0.13  -0.07
   6   6    -0.08   0.17   0.08     0.03   0.03  -0.14     0.09  -0.07  -0.16
   7   6    -0.11   0.26   0.02    -0.07  -0.08  -0.17     0.31   0.26  -0.06
   8   6    -0.16  -0.14  -0.08    -0.14   0.03   0.38     0.21  -0.09   0.17
   9   6    -0.12  -0.16  -0.05    -0.13   0.04   0.38     0.14  -0.14   0.13
  10   6    -0.03   0.08  -0.00    -0.01   0.05  -0.17     0.10  -0.11  -0.00
  11   6     0.03  -0.06   0.05     0.21  -0.05  -0.01     0.06   0.01  -0.05
  12   6     0.11   0.27   0.06     0.22  -0.13   0.08     0.08   0.18  -0.07
  13   9    -0.01  -0.11  -0.03    -0.03   0.06  -0.26     0.03  -0.05  -0.20
  14   6     0.12   0.11   0.03     0.11  -0.04   0.16    -0.20   0.04   0.04
  15   6    -0.01  -0.27  -0.05    -0.14   0.06  -0.01    -0.20  -0.04   0.08
  16   6     0.06   0.21  -0.02    -0.11  -0.01  -0.18    -0.13   0.12   0.10
  17   6    -0.04   0.13   0.00    -0.03   0.03  -0.22     0.04  -0.02   0.05
  18   6    -0.07  -0.19  -0.05    -0.07   0.01   0.01    -0.03  -0.09   0.14
  19  17    -0.00  -0.02  -0.00     0.00  -0.00  -0.00    -0.00  -0.00   0.00
  20   1    -0.06   0.03   0.08    -0.01   0.01   0.01    -0.00  -0.01  -0.02
  21   1    -0.03  -0.11  -0.02    -0.00  -0.02  -0.01    -0.00  -0.00   0.01
  22   1    -0.04  -0.09  -0.00    -0.01  -0.01  -0.00     0.01   0.00  -0.00
  23   1     0.11   0.03  -0.03     0.03   0.01  -0.01     0.02  -0.00  -0.00
  24   1     0.07   0.02   0.01     0.02   0.02  -0.00    -0.03  -0.05   0.03
  25   1     0.07  -0.01   0.13     0.02   0.01  -0.02    -0.11   0.03  -0.04
  26   1     0.03   0.18   0.05     0.06  -0.02  -0.01    -0.07  -0.00  -0.02
  27   1    -0.08  -0.09  -0.01     0.03   0.03   0.04     0.03  -0.16   0.04
  28   1    -0.02   0.05   0.02     0.06   0.04  -0.06    -0.02  -0.13  -0.02
  29   1    -0.05  -0.11  -0.02    -0.13   0.07   0.13     0.00  -0.10   0.06
  30   1    -0.01  -0.02  -0.02    -0.14  -0.01   0.13     0.01   0.04   0.05
  31   1     0.00  -0.14  -0.00     0.13  -0.00  -0.03    -0.02  -0.04  -0.01
  32   1     0.03  -0.01   0.01     0.02   0.00   0.13    -0.07  -0.04   0.05
  33   1    -0.04  -0.21  -0.02    -0.09   0.04   0.02    -0.04  -0.06   0.01
  34   1     0.03   0.08   0.01    -0.06  -0.00  -0.08    -0.06   0.06   0.00
  35   1     0.01   0.03   0.02    -0.03   0.06  -0.09    -0.06  -0.12  -0.01
  36   1    -0.04  -0.10  -0.00    -0.07   0.05   0.02    -0.01  -0.16   0.04
                     25                     26                     27
                        a                      a                      a 
 Frequencies --   482.3257               526.6475               566.0001
 Red. masses --    13.6198                 9.4687                10.3385
 Frc consts  --     0.0000                 0.0000                 0.0000
 IR Inten    --     5.1299                 8.7356                11.6960
 Raman Activ --     0.0000                 0.0000                 0.0000
 Depolar     --     0.0000                 0.0000                 0.0000
 Atom AN      X      Y      Z        X      Y      Z        X      Y      Z
   1   7    -0.00   0.00   0.00     0.01  -0.07   0.00     0.00  -0.02   0.00
   2   6     0.03   0.01  -0.00     0.18   0.07  -0.08     0.06   0.03  -0.03
   3   6     0.07  -0.02   0.02    -0.14   0.26  -0.09    -0.02   0.06  -0.02
   4   6     0.04  -0.11  -0.01    -0.25  -0.24   0.03    -0.09  -0.22   0.04
   5   6    -0.03   0.04   0.02    -0.05  -0.10  -0.06    -0.02   0.07  -0.00
   6   6    -0.05   0.03   0.10     0.04   0.15  -0.11    -0.03  -0.05  -0.04
   7   6    -0.11  -0.09   0.06     0.10  -0.27   0.05    -0.02  -0.21   0.01
   8   6    -0.06   0.02  -0.14     0.19  -0.12   0.01     0.09   0.21   0.02
   9   6     0.03   0.03  -0.06     0.20   0.01   0.00     0.06   0.11   0.01
  10   6    -0.00   0.01   0.25     0.19   0.17  -0.01    -0.04  -0.46  -0.05
  11   6     0.08  -0.04   0.24    -0.02   0.00  -0.14    -0.01  -0.06  -0.04
  12   6     0.19  -0.08  -0.23    -0.11  -0.22  -0.05     0.09   0.58   0.04
  13   9     0.38  -0.01  -0.44    -0.06   0.08   0.03    -0.04  -0.13  -0.02
  14   6    -0.18   0.04  -0.06    -0.14   0.06   0.02    -0.07  -0.17  -0.01
  15   6    -0.21   0.06  -0.02    -0.02   0.01   0.12     0.01   0.08   0.04
  16   6    -0.27  -0.01   0.34     0.00  -0.06   0.03     0.01   0.02   0.01
  17   6    -0.01   0.01   0.03    -0.03   0.16   0.09    -0.03  -0.05   0.01
  18   6     0.02   0.03  -0.05    -0.10  -0.07   0.12    -0.01   0.08   0.03
  19  17     0.00   0.00  -0.00    -0.00  -0.01  -0.00     0.00  -0.00  -0.00
  20   1    -0.00   0.00   0.01    -0.06   0.04   0.05    -0.02   0.01   0.02
  21   1    -0.00  -0.00  -0.00    -0.02  -0.09  -0.00    -0.01  -0.03  -0.00
  22   1    -0.00  -0.00   0.00    -0.01  -0.06  -0.01    -0.00  -0.02  -0.00
  23   1    -0.00   0.00  -0.00     0.19   0.05  -0.03     0.06   0.02  -0.01
  24   1     0.01   0.02  -0.01     0.02  -0.06   0.10     0.01  -0.02   0.03
  25   1     0.04  -0.01   0.02    -0.02   0.03   0.05     0.02   0.01   0.02
  26   1     0.02   0.01   0.01    -0.03   0.15  -0.00     0.00   0.05   0.00
  27   1    -0.02   0.06  -0.02     0.04   0.08  -0.00     0.03   0.15  -0.01
  28   1    -0.01   0.05   0.02     0.01   0.20  -0.03     0.02   0.11  -0.02
  29   1     0.00   0.03  -0.04     0.07   0.05   0.00     0.00  -0.02   0.01
  30   1     0.06  -0.02  -0.03     0.03  -0.09   0.00     0.03   0.15   0.01
  31   1    -0.06   0.01   0.10    -0.02   0.03  -0.03    -0.02  -0.07  -0.01
  32   1    -0.06   0.02   0.09    -0.02   0.08  -0.01    -0.05  -0.20  -0.02
  33   1     0.01   0.02  -0.03     0.01   0.02   0.03     0.00   0.01   0.01
  34   1    -0.06  -0.01   0.11    -0.04  -0.05  -0.02     0.01   0.08   0.00
  35   1     0.03   0.04   0.02    -0.00   0.21  -0.02     0.01   0.11  -0.02
  36   1     0.01   0.05  -0.02     0.02   0.09   0.01     0.02   0.15  -0.01
                     28                     29                     30
                        a                      a                      a 
 Frequencies --   601.6188               611.4761               638.0377
 Red. masses --    11.0018                11.2110                 9.1660
 Frc consts  --     0.0000                 0.0000                 0.0000
 IR Inten    --     0.5054                 0.1126                 1.5286
 Raman Activ --     0.0000                 0.0000                 0.0000
 Depolar     --     0.0000                 0.0000                 0.0000
 Atom AN      X      Y      Z        X      Y      Z        X      Y      Z
   1   7    -0.00   0.03   0.00     0.01  -0.01  -0.01    -0.00   0.00   0.00
   2   6     0.01   0.00   0.02     0.00   0.01  -0.02    -0.01  -0.01   0.01
   3   6     0.18  -0.13   0.05    -0.04   0.01  -0.07     0.01  -0.01   0.01
   4   6     0.13  -0.01  -0.02    -0.02  -0.01  -0.11     0.04   0.12  -0.01
   5   6    -0.04   0.07   0.05     0.43  -0.14  -0.23    -0.03  -0.06   0.02
   6   6    -0.09  -0.01   0.19     0.36  -0.03   0.29     0.01   0.09  -0.01
   7   6    -0.17   0.11   0.02     0.02  -0.01   0.11    -0.02  -0.02   0.00
   8   6    -0.06   0.00  -0.11     0.00   0.01   0.09    -0.04  -0.13  -0.01
   9   6     0.25  -0.07   0.16    -0.06   0.03   0.06     0.01   0.04  -0.01
  10   6     0.34  -0.05  -0.10    -0.07   0.00   0.01     0.08   0.44   0.04
  11   6     0.05   0.02  -0.37    -0.01  -0.02   0.06    -0.05  -0.28  -0.02
  12   6    -0.05   0.01  -0.05     0.02   0.03   0.02     0.05   0.31   0.03
  13   9    -0.07   0.02  -0.10     0.01  -0.01   0.01     0.00   0.01   0.00
  14   6    -0.28   0.04   0.11     0.05  -0.03  -0.01    -0.05  -0.27  -0.03
  15   6     0.02  -0.03   0.39    -0.01   0.02  -0.07     0.07   0.36   0.03
  16   6     0.11  -0.03   0.01    -0.03  -0.00  -0.02    -0.05  -0.29  -0.02
  17   6    -0.17  -0.01   0.00    -0.37   0.12   0.21     0.04   0.07  -0.02
  18   6    -0.11   0.05  -0.20    -0.32   0.02  -0.30     0.01  -0.07   0.01
  19  17    -0.00   0.00  -0.00     0.00  -0.00  -0.00     0.00  -0.00   0.00
  20   1     0.01  -0.00  -0.01    -0.00   0.00   0.00     0.00  -0.01  -0.01
  21   1     0.00   0.02  -0.01    -0.00  -0.01   0.00     0.00   0.01   0.00
  22   1    -0.01   0.02   0.00     0.00  -0.01  -0.00     0.00   0.01   0.00
  23   1    -0.07  -0.01   0.01     0.02   0.01  -0.01    -0.02  -0.01   0.00
  24   1     0.02   0.06  -0.06    -0.00  -0.01   0.01     0.00   0.01  -0.01
  25   1     0.05  -0.02  -0.01    -0.03   0.03  -0.07    -0.01  -0.00  -0.01
  26   1     0.05  -0.06   0.01     0.01  -0.05  -0.04    -0.00  -0.01   0.00
  27   1    -0.07   0.00  -0.03     0.10  -0.03  -0.08    -0.02  -0.07   0.01
  28   1    -0.03  -0.04   0.06     0.06   0.01   0.09    -0.00  -0.02   0.00
  29   1    -0.07   0.00  -0.01    -0.00   0.01   0.03     0.02   0.07  -0.01
  30   1     0.10  -0.02   0.03    -0.05   0.01   0.03    -0.01  -0.09  -0.00
  31   1     0.00   0.01  -0.10     0.00  -0.01   0.01    -0.05  -0.27  -0.02
  32   1    -0.07   0.01  -0.00     0.01  -0.02   0.01    -0.04  -0.24  -0.02
  33   1     0.02  -0.01   0.10    -0.01   0.01  -0.02     0.00  -0.00  -0.00
  34   1    -0.08   0.02  -0.09     0.01  -0.01   0.01    -0.06  -0.30  -0.03
  35   1    -0.00  -0.05   0.05    -0.07   0.04   0.08     0.01  -0.01   0.00
  36   1    -0.06  -0.00  -0.04    -0.04  -0.00  -0.10    -0.01  -0.07   0.01
                     31                     32                     33
                        a                      a                      a 
 Frequencies --   682.5949               742.0475               753.4458
 Red. masses --    10.5929                10.9732                 6.1568
 Frc consts  --     0.0000                 0.0000                 0.0000
 IR Inten    --     1.5311                21.5114                 5.7474
 Raman Activ --     0.0000                 0.0000                 0.0000
 Depolar     --     0.0000                 0.0000                 0.0000
 Atom AN      X      Y      Z        X      Y      Z        X      Y      Z
   1   7     0.01   0.00   0.00     0.01   0.04   0.01    -0.00  -0.01  -0.01
   2   6     0.05   0.05  -0.04     0.13   0.02   0.02     0.01  -0.02   0.03
   3   6    -0.02   0.03  -0.04     0.23  -0.15   0.10     0.04  -0.01   0.05
   4   6    -0.15  -0.48   0.06     0.01  -0.00   0.00     0.05   0.17  -0.02
   5   6     0.06   0.27  -0.05    -0.17   0.06  -0.02    -0.05  -0.10   0.02
   6   6    -0.05  -0.27  -0.01    -0.16   0.05  -0.14    -0.04  -0.05  -0.00
   7   6     0.14   0.43  -0.05     0.09  -0.02   0.01    -0.02  -0.09   0.01
   8   6     0.04  -0.01   0.02     0.24  -0.13   0.06     0.11   0.36  -0.00
   9   6    -0.02  -0.16   0.00     0.30   0.04   0.06    -0.00  -0.39   0.04
  10   6     0.02   0.21   0.02     0.13  -0.07   0.03     0.05   0.09   0.01
  11   6    -0.00  -0.02   0.02     0.09  -0.04   0.08     0.04   0.10   0.02
  12   6    -0.00  -0.04   0.00     0.03   0.03   0.00    -0.02  -0.17  -0.01
  13   9    -0.00   0.02   0.02    -0.18   0.00   0.25    -0.03   0.05   0.06
  14   6     0.02  -0.02  -0.01     0.07  -0.01  -0.15     0.03   0.09  -0.02
  15   6    -0.00   0.07  -0.04    -0.17   0.05  -0.41    -0.03   0.09  -0.09
  16   6    -0.03  -0.03  -0.01    -0.19   0.03   0.05    -0.03   0.09   0.01
  17   6    -0.09  -0.24   0.06    -0.18   0.07   0.07    -0.03  -0.04  -0.00
  18   6     0.02   0.29   0.00    -0.17   0.05  -0.06    -0.05  -0.10  -0.02
  19  17     0.00  -0.00  -0.00     0.00  -0.00  -0.00     0.00  -0.00   0.00
  20   1    -0.01   0.02   0.03    -0.02   0.03   0.02    -0.00  -0.00  -0.01
  21   1    -0.00  -0.02   0.01    -0.00  -0.04  -0.05    -0.00  -0.01  -0.02
  22   1     0.01  -0.03  -0.01    -0.04   0.03   0.01    -0.01   0.02   0.00
  23   1     0.10   0.03  -0.02    -0.13  -0.01   0.02    -0.08  -0.02   0.02
  24   1    -0.00  -0.03   0.07     0.07   0.10  -0.14     0.02   0.03  -0.06
  25   1     0.06  -0.01   0.04     0.06  -0.02  -0.01    -0.02   0.02  -0.04
  26   1     0.01   0.07   0.00     0.07  -0.09   0.02     0.01  -0.06  -0.00
  27   1     0.04   0.10  -0.01    -0.08  -0.04  -0.01     0.02   0.14  -0.02
  28   1    -0.04  -0.12   0.01    -0.10  -0.04  -0.01     0.04   0.21  -0.02
  29   1    -0.01  -0.10   0.01     0.07   0.07   0.02    -0.07  -0.34   0.02
  30   1     0.00   0.06   0.00     0.05  -0.09   0.02     0.09   0.33   0.01
  31   1    -0.02  -0.09  -0.00     0.02   0.04   0.03    -0.03  -0.20  -0.01
  32   1    -0.00  -0.05  -0.00     0.01   0.02   0.02    -0.03  -0.17  -0.01
  33   1    -0.01  -0.04  -0.02    -0.02   0.04  -0.12    -0.04  -0.18  -0.04
  34   1    -0.02  -0.12  -0.01    -0.01   0.04   0.04    -0.05  -0.24  -0.02
  35   1    -0.05  -0.13   0.02    -0.08  -0.02   0.01     0.04   0.17  -0.02
  36   1     0.01   0.09  -0.00    -0.07  -0.03  -0.00     0.02   0.14  -0.02
                     34                     35                     36
                        a                      a                      a 
 Frequencies --   772.8829               785.6072               804.0612
 Red. masses --     9.9093                 5.5172                 6.1996
 Frc consts  --     0.0000                 0.0000                 0.0000
 IR Inten    --    22.0048                48.2109                 7.8558
 Raman Activ --     0.0000                 0.0000                 0.0000
 Depolar     --     0.0000                 0.0000                 0.0000
 Atom AN      X      Y      Z        X      Y      Z        X      Y      Z
   1   7    -0.03  -0.04  -0.01    -0.01   0.00   0.00    -0.01   0.04   0.02
   2   6    -0.16  -0.03  -0.03    -0.04   0.01  -0.03    -0.01   0.03  -0.06
   3   6    -0.20   0.13  -0.11    -0.04   0.01  -0.05    -0.01  -0.06  -0.06
   4   6     0.06   0.02   0.00    -0.00  -0.07   0.01    -0.03  -0.14   0.02
   5   6     0.07  -0.02   0.14     0.02   0.05   0.04     0.02   0.11   0.01
   6   6     0.08  -0.01   0.28     0.03   0.07   0.05     0.04   0.17  -0.01
   7   6    -0.16   0.07  -0.03    -0.05  -0.06   0.00    -0.08  -0.37   0.04
   8   6    -0.17   0.02  -0.17    -0.05  -0.12  -0.02     0.08   0.29  -0.00
   9   6     0.24  -0.06   0.23     0.08   0.21   0.03    -0.03  -0.23   0.00
  10   6     0.19   0.00   0.02    -0.02  -0.31  -0.02     0.03   0.10   0.01
  11   6     0.11  -0.05  -0.03     0.05   0.15   0.01     0.01  -0.01  -0.00
  12   6     0.05   0.04  -0.00    -0.03  -0.21  -0.02     0.01   0.02  -0.00
  13   9    -0.16   0.00   0.20    -0.02   0.05   0.04    -0.01  -0.00   0.01
  14   6     0.04  -0.04  -0.11     0.04   0.20  -0.00    -0.01  -0.04  -0.01
  15   6    -0.15   0.03  -0.31     0.01   0.12  -0.03    -0.01  -0.02  -0.02
  16   6    -0.15  -0.03   0.01     0.02   0.24   0.03    -0.02  -0.05   0.00
  17   6     0.15  -0.09  -0.14     0.04   0.07  -0.05     0.03   0.26  -0.04
  18   6     0.13  -0.06  -0.06     0.03   0.05  -0.02     0.01   0.16  -0.02
  19  17    -0.00   0.00   0.00     0.00   0.00   0.00    -0.00   0.00  -0.00
  20   1     0.04  -0.05  -0.03     0.01  -0.01   0.00     0.01   0.01   0.02
  21   1     0.01   0.08   0.08     0.00   0.03   0.05     0.00   0.04   0.06
  22   1     0.06  -0.04  -0.02     0.03  -0.03  -0.01     0.03  -0.04  -0.01
  23   1     0.16   0.00  -0.03     0.09   0.01  -0.02     0.12   0.01  -0.03
  24   1    -0.09  -0.10   0.18    -0.03  -0.03   0.08    -0.02  -0.02   0.10
  25   1    -0.05   0.00   0.02     0.01  -0.02   0.03     0.04  -0.06   0.07
  26   1    -0.06   0.10  -0.01    -0.01   0.06   0.00     0.01   0.09   0.01
  27   1     0.00   0.05   0.02    -0.03  -0.10   0.02    -0.05  -0.24   0.04
  28   1     0.09   0.04   0.05    -0.01  -0.12   0.03    -0.05  -0.24   0.03
  29   1    -0.13   0.01  -0.02     0.02   0.17  -0.01    -0.03  -0.16   0.01
  30   1     0.14  -0.04   0.04    -0.00  -0.09   0.01     0.04   0.21   0.00
  31   1     0.04   0.04  -0.00    -0.03  -0.19  -0.02     0.00  -0.01  -0.00
  32   1     0.02   0.07   0.03    -0.07  -0.39  -0.03     0.01   0.08   0.01
  33   1    -0.01   0.08  -0.09    -0.06  -0.33  -0.04     0.01   0.06  -0.00
  34   1    -0.03   0.10  -0.00    -0.08  -0.39  -0.04     0.02   0.08   0.01
  35   1     0.13   0.04   0.01    -0.01  -0.13   0.02    -0.09  -0.36   0.05
  36   1     0.03   0.05  -0.02    -0.03  -0.12   0.01    -0.09  -0.34   0.04
                     37                     38                     39
                        a                      a                      a 
 Frequencies --   843.8623               853.0439               859.0806
 Red. masses --     5.2249                 3.5756                 3.6127
 Frc consts  --     0.0000                 0.0000                 0.0000
 IR Inten    --    57.1083                 0.9684                 0.7331
 Raman Activ --     0.0000                 0.0000                 0.0000
 Depolar     --     0.0000                 0.0000                 0.0000
 Atom AN      X      Y      Z        X      Y      Z        X      Y      Z
   1   7     0.14  -0.07  -0.05     0.01   0.00  -0.00     0.01   0.03  -0.01
   2   6     0.11   0.02   0.16     0.01   0.00  -0.00     0.01   0.00  -0.02
   3   6    -0.17   0.23   0.13    -0.01   0.01   0.00    -0.02  -0.02   0.01
   4   6    -0.14  -0.15  -0.00    -0.02  -0.03   0.00    -0.01  -0.01   0.00
   5   6     0.10   0.00  -0.12     0.05   0.17  -0.04     0.04   0.14  -0.02
   6   6     0.06   0.02   0.05     0.05   0.21  -0.03     0.04   0.16  -0.02
   7   6    -0.09  -0.04   0.00    -0.01  -0.03   0.00    -0.01  -0.03   0.00
   8   6    -0.19   0.06  -0.13    -0.02   0.01  -0.01     0.00   0.06  -0.01
   9   6     0.02  -0.01   0.10    -0.00  -0.00   0.01    -0.01  -0.06   0.01
  10   6     0.04  -0.02   0.00    -0.00  -0.02  -0.00     0.00   0.04   0.00
  11   6     0.02  -0.01  -0.03     0.05   0.27   0.02    -0.06  -0.33  -0.03
  12   6     0.01  -0.01  -0.00    -0.01  -0.05  -0.00     0.01   0.05   0.01
  13   9    -0.02   0.00   0.03     0.00   0.01   0.00     0.00  -0.02  -0.00
  14   6     0.01   0.01  -0.01    -0.00  -0.03  -0.00     0.01   0.05   0.01
  15   6    -0.02   0.02  -0.04    -0.01  -0.05  -0.01     0.01   0.07   0.01
  16   6    -0.02   0.01  -0.00    -0.02  -0.11  -0.01     0.02   0.13   0.01
  17   6     0.14   0.03  -0.00    -0.03  -0.18   0.03    -0.02  -0.14   0.02
  18   6     0.13   0.06   0.10    -0.02  -0.13   0.04    -0.02  -0.10   0.02
  19  17     0.00  -0.01   0.00     0.00  -0.00  -0.00     0.00   0.00   0.00
  20   1    -0.12   0.11   0.04    -0.01   0.02   0.01    -0.02   0.04   0.05
  21   1    -0.02  -0.32  -0.29    -0.00  -0.02  -0.01    -0.01  -0.01   0.01
  22   1    -0.18   0.11   0.05    -0.00  -0.00   0.00     0.01  -0.03  -0.01
  23   1    -0.29   0.04   0.09    -0.01  -0.00   0.00     0.01  -0.02  -0.01
  24   1     0.05  -0.05  -0.30     0.00  -0.00  -0.01    -0.00  -0.00   0.01
  25   1    -0.05   0.20  -0.17     0.00   0.01  -0.00    -0.00  -0.00   0.00
  26   1    -0.03  -0.19  -0.04    -0.01  -0.01  -0.00    -0.01  -0.01   0.00
  27   1     0.03  -0.05  -0.02    -0.07  -0.35   0.04    -0.06  -0.28   0.03
  28   1    -0.00  -0.05   0.02    -0.09  -0.39   0.05    -0.07  -0.29   0.03
  29   1    -0.10   0.02  -0.02    -0.01   0.03  -0.00    -0.02  -0.08   0.00
  30   1     0.06   0.00   0.01     0.02   0.04   0.00     0.02   0.05  -0.00
  31   1     0.02   0.01  -0.01    -0.08  -0.48  -0.04     0.11   0.60   0.05
  32   1    -0.00  -0.03   0.01     0.01   0.03   0.00    -0.01  -0.06  -0.00
  33   1    -0.01  -0.02  -0.01     0.03   0.15   0.01    -0.04  -0.21  -0.02
  34   1    -0.03  -0.00  -0.02     0.03   0.16   0.01    -0.03  -0.19  -0.02
  35   1     0.03  -0.12   0.04     0.08   0.32  -0.04     0.06   0.26  -0.03
  36   1     0.05  -0.11   0.02     0.06   0.26  -0.03     0.05   0.20  -0.02
                     40                     41                     42
                        a                      a                      a 
 Frequencies --   876.3557               878.7169               896.3406
 Red. masses --     5.3416                 7.5979                 5.4595
 Frc consts  --     0.0000                 0.0000                 0.0000
 IR Inten    --     0.7717                12.4046                11.1693
 Raman Activ --     0.0000                 0.0000                 0.0000
 Depolar     --     0.0000                 0.0000                 0.0000
 Atom AN      X      Y      Z        X      Y      Z        X      Y      Z
   1   7    -0.02   0.11   0.09     0.02  -0.21  -0.17     0.02   0.05   0.18
   2   6     0.08  -0.03  -0.07    -0.15   0.06   0.13     0.06  -0.09  -0.02
   3   6     0.03  -0.17  -0.08    -0.01   0.31   0.16    -0.13  -0.04  -0.25
   4   6    -0.05   0.05  -0.02     0.08  -0.09   0.03     0.04  -0.02   0.01
   5   6     0.06  -0.04  -0.11    -0.11   0.05   0.16    -0.07   0.02   0.24
   6   6     0.02  -0.03  -0.07    -0.04   0.05   0.09     0.05   0.05   0.18
   7   6    -0.01   0.01  -0.01     0.03  -0.00   0.02     0.02   0.01  -0.00
   8   6    -0.13   0.03  -0.10     0.23  -0.04   0.16     0.19  -0.04   0.13
   9   6     0.00  -0.01   0.07    -0.02  -0.01  -0.12    -0.01  -0.01  -0.09
  10   6     0.03   0.07   0.01    -0.02   0.06  -0.00    -0.02   0.02  -0.01
  11   6    -0.00  -0.05  -0.02    -0.02  -0.03   0.03    -0.01  -0.01   0.03
  12   6    -0.01  -0.08  -0.01    -0.02  -0.04  -0.00    -0.01   0.00   0.00
  13   9    -0.00   0.01   0.01     0.01   0.01  -0.01     0.01  -0.00  -0.01
  14   6     0.06   0.31   0.03     0.01   0.18   0.02    -0.01   0.02   0.00
  15   6    -0.00   0.05  -0.01     0.01   0.01   0.03     0.01  -0.01   0.02
  16   6    -0.06  -0.30  -0.04    -0.02  -0.17  -0.01     0.01  -0.01   0.00
  17   6    -0.03   0.00   0.12     0.03   0.01  -0.18     0.04   0.06  -0.21
  18   6     0.03   0.02   0.17    -0.06  -0.03  -0.27    -0.08  -0.13  -0.18
  19  17     0.00  -0.00  -0.00    -0.00   0.00  -0.00     0.00   0.00   0.00
  20   1    -0.01   0.03   0.00     0.03  -0.07  -0.02    -0.04  -0.01  -0.13
  21   1    -0.00   0.01  -0.01     0.01   0.01   0.04     0.00  -0.11  -0.22
  22   1    -0.02   0.06   0.03     0.06  -0.14  -0.07    -0.14   0.36   0.13
  23   1     0.01   0.04  -0.01    -0.00  -0.09   0.00    -0.09   0.20   0.06
  24   1     0.03   0.03  -0.04    -0.06  -0.03   0.09     0.01  -0.12  -0.17
  25   1    -0.00  -0.14   0.11     0.02   0.25  -0.20    -0.05  -0.16   0.15
  26   1    -0.02   0.09   0.02     0.06  -0.17  -0.03    -0.11   0.22   0.00
  27   1     0.05  -0.00  -0.01    -0.08   0.02   0.01    -0.02   0.09   0.04
  28   1    -0.00   0.04  -0.02    -0.00  -0.06   0.02     0.04  -0.12   0.05
  29   1    -0.09  -0.00  -0.01     0.13  -0.03   0.02     0.11  -0.01   0.02
  30   1     0.02  -0.04   0.01    -0.05   0.01  -0.02    -0.04   0.03  -0.01
  31   1     0.02   0.09   0.00    -0.00   0.06   0.02    -0.00   0.03   0.01
  32   1    -0.09  -0.53  -0.04    -0.06  -0.29  -0.03    -0.01  -0.03  -0.01
  33   1    -0.02  -0.09  -0.01    -0.00  -0.04   0.00     0.00   0.00   0.01
  34   1     0.07   0.48   0.03     0.08   0.27   0.05     0.03   0.01   0.02
  35   1    -0.01   0.04   0.02     0.01  -0.07  -0.03    -0.02  -0.18  -0.03
  36   1     0.04  -0.03   0.04    -0.06   0.04  -0.06    -0.03   0.25  -0.06
                     43                     44                     45
                        a                      a                      a 
 Frequencies --   898.1880               914.1689               915.3674
 Red. masses --     3.7768                 4.3605                 5.4786
 Frc consts  --     0.0000                 0.0000                 0.0000
 IR Inten    --     0.4532                12.7913                20.5587
 Raman Activ --     0.0000                 0.0000                 0.0000
 Depolar     --     0.0000                 0.0000                 0.0000
 Atom AN      X      Y      Z        X      Y      Z        X      Y      Z
   1   7    -0.03  -0.03  -0.05    -0.04  -0.16  -0.00     0.08   0.35   0.01
   2   6    -0.01   0.02   0.01    -0.05   0.00   0.08     0.10  -0.02  -0.17
   3   6     0.08   0.00   0.07     0.10   0.09  -0.05    -0.20  -0.21   0.11
   4   6    -0.03   0.00  -0.01     0.01  -0.01   0.00    -0.01   0.03  -0.00
   5   6     0.03  -0.10  -0.11    -0.05  -0.29   0.00    -0.06  -0.15   0.08
   6   6     0.01   0.07  -0.11     0.05   0.27  -0.09     0.04   0.12   0.10
   7   6    -0.00   0.01  -0.00     0.00  -0.01  -0.00    -0.01   0.02   0.01
   8   6    -0.12   0.02  -0.08    -0.03   0.02  -0.03     0.07  -0.02   0.05
   9   6     0.00  -0.01   0.05     0.00  -0.01   0.02    -0.01   0.00  -0.04
  10   6     0.02  -0.01   0.00    -0.00   0.00   0.00    -0.01  -0.00  -0.00
  11   6     0.01  -0.00  -0.02    -0.01  -0.01  -0.00     0.01   0.02   0.01
  12   6     0.01   0.00  -0.00    -0.00   0.00   0.00    -0.00  -0.01  -0.00
  13   9    -0.01   0.00   0.01     0.00  -0.00  -0.00    -0.00   0.00   0.00
  14   6     0.01  -0.01  -0.00     0.01  -0.00   0.00    -0.02  -0.02  -0.00
  15   6    -0.00   0.00  -0.01    -0.00  -0.00  -0.00     0.01   0.04   0.01
  16   6    -0.01   0.01   0.01     0.00   0.01  -0.00    -0.00  -0.03  -0.00
  17   6     0.04   0.26   0.09    -0.07  -0.14   0.08     0.06  -0.08  -0.13
  18   6    -0.03  -0.26   0.15     0.04   0.18   0.03     0.02   0.03  -0.11
  19  17    -0.00   0.00  -0.00    -0.00   0.00   0.01     0.00  -0.01  -0.01
  20   1     0.03  -0.03   0.01     0.07  -0.16  -0.18    -0.15   0.34   0.36
  21   1     0.00   0.07   0.08     0.02   0.07  -0.03    -0.05  -0.13   0.07
  22   1     0.06  -0.09  -0.04     0.01   0.14   0.03    -0.04  -0.28  -0.06
  23   1     0.02  -0.06  -0.02    -0.02   0.06   0.04     0.05  -0.11  -0.07
  24   1     0.01   0.06   0.05    -0.01   0.01  -0.00     0.02  -0.02  -0.00
  25   1     0.03   0.04  -0.03     0.05   0.02   0.02    -0.14  -0.05  -0.03
  26   1     0.04  -0.06   0.00     0.04   0.07  -0.00    -0.07  -0.14   0.01
  27   1     0.09   0.24  -0.05     0.12   0.49  -0.06     0.04   0.32  -0.03
  28   1    -0.09  -0.23   0.01    -0.12  -0.46   0.04    -0.02  -0.20   0.05
  29   1    -0.06   0.06  -0.01    -0.02  -0.00  -0.00     0.05   0.01   0.01
  30   1     0.02   0.03   0.01     0.01   0.02   0.00    -0.01   0.01  -0.01
  31   1     0.01   0.00  -0.01     0.00   0.02   0.00    -0.01  -0.04   0.00
  32   1     0.00   0.01   0.00     0.00   0.00   0.00     0.00   0.04   0.00
  33   1     0.00  -0.00  -0.00    -0.00   0.00   0.00    -0.01  -0.08  -0.01
  34   1    -0.02  -0.01  -0.01    -0.01  -0.02  -0.01     0.02   0.06   0.01
  35   1    -0.11  -0.47   0.09     0.03   0.21  -0.01     0.04   0.02  -0.03
  36   1     0.16   0.55  -0.04    -0.04  -0.24   0.04    -0.03  -0.05  -0.01
                     46                     47                     48
                        a                      a                      a 
 Frequencies --   917.6168               958.6368               961.3832
 Red. masses --     3.5067                10.5181                 2.2248
 Frc consts  --     0.0000                 0.0000                 0.0000
 IR Inten    --     2.6862               104.5573                13.5965
 Raman Activ --     0.0000                 0.0000                 0.0000
 Depolar     --     0.0000                 0.0000                 0.0000
 Atom AN      X      Y      Z        X      Y      Z        X      Y      Z
   1   7     0.01   0.05   0.00    -0.00  -0.00   0.00     0.00   0.01  -0.00
   2   6     0.02  -0.00  -0.02    -0.00  -0.00   0.00    -0.00  -0.00  -0.00
   3   6    -0.02  -0.03   0.02     0.01  -0.00  -0.00    -0.01  -0.00   0.00
   4   6    -0.00   0.01  -0.00    -0.01   0.00  -0.00     0.00  -0.01  -0.00
   5   6    -0.00  -0.02   0.00     0.05  -0.02  -0.06    -0.01   0.00   0.01
   6   6     0.00   0.01   0.01     0.02   0.00  -0.00     0.01   0.03   0.00
   7   6    -0.00   0.00   0.00    -0.05   0.02   0.00    -0.01  -0.02   0.00
   8   6    -0.00  -0.01   0.00    -0.07   0.04   0.13     0.07   0.21  -0.02
   9   6    -0.00  -0.02  -0.00    -0.30   0.08  -0.19     0.07   0.21   0.02
  10   6     0.01   0.06   0.00     0.13  -0.01  -0.09    -0.01  -0.02   0.01
  11   6    -0.02  -0.09  -0.01     0.38  -0.07  -0.03    -0.04   0.03   0.02
  12   6     0.01   0.04   0.00     0.25  -0.03  -0.17    -0.03   0.01   0.02
  13   9     0.00   0.00   0.00    -0.24   0.02   0.25     0.03  -0.00  -0.03
  14   6     0.04   0.19   0.02    -0.30   0.07  -0.22     0.02  -0.01   0.03
  15   6    -0.06  -0.37  -0.03     0.10  -0.02   0.06    -0.02  -0.01  -0.01
  16   6     0.03   0.15   0.02     0.00  -0.02   0.27     0.01   0.00  -0.05
  17   6     0.01  -0.01  -0.01     0.01  -0.02  -0.03     0.00  -0.00   0.00
  18   6     0.00   0.01  -0.01     0.02   0.00   0.06     0.00  -0.01  -0.01
  19  17     0.00  -0.00  -0.00    -0.00  -0.00   0.00    -0.00  -0.00   0.00
  20   1    -0.02   0.04   0.05     0.01  -0.01  -0.01    -0.00   0.01   0.01
  21   1    -0.01  -0.01   0.01     0.00   0.01   0.00    -0.00  -0.01  -0.00
  22   1    -0.00  -0.04  -0.01     0.00   0.01   0.00    -0.00  -0.00  -0.00
  23   1     0.01  -0.02  -0.01     0.00   0.00   0.00    -0.00  -0.00  -0.00
  24   1     0.00   0.00   0.00     0.00   0.00   0.00    -0.00  -0.00  -0.00
  25   1    -0.02  -0.01  -0.00     0.00  -0.00   0.00     0.00   0.00  -0.00
  26   1    -0.01  -0.02   0.00     0.01   0.00  -0.00    -0.00  -0.00  -0.00
  27   1     0.01   0.03  -0.00     0.02  -0.00  -0.02    -0.00   0.01  -0.00
  28   1    -0.00  -0.02   0.00     0.00  -0.01  -0.00    -0.00  -0.05   0.00
  29   1     0.01   0.02  -0.00    -0.00  -0.08   0.03    -0.14  -0.65   0.02
  30   1     0.01   0.04  -0.00    -0.21  -0.04  -0.02    -0.10  -0.65   0.00
  31   1     0.01   0.05   0.00     0.20  -0.03  -0.05    -0.04  -0.04   0.01
  32   1    -0.07  -0.37  -0.03    -0.08   0.02  -0.05     0.00  -0.02   0.01
  33   1     0.13   0.71   0.06     0.28  -0.04  -0.08    -0.03   0.04   0.01
  34   1    -0.06  -0.29  -0.03     0.01  -0.01   0.09     0.00  -0.04  -0.01
  35   1     0.01   0.01  -0.00    -0.04   0.02  -0.05    -0.01  -0.04   0.00
  36   1    -0.00  -0.01   0.00     0.00   0.00   0.02     0.01   0.03  -0.01
                     49                     50                     51
                        a                      a                      a 
 Frequencies --   994.1845              1013.0413              1024.4166
 Red. masses --    10.9419                 7.7730                 8.2937
 Frc consts  --     0.0000                 0.0000                 0.0000
 IR Inten    --     4.9411                 5.9245                30.1821
 Raman Activ --     0.0000                 0.0000                 0.0000
 Depolar     --     0.0000                 0.0000                 0.0000
 Atom AN      X      Y      Z        X      Y      Z        X      Y      Z
   1   7     0.00  -0.00  -0.00     0.17  -0.00  -0.06    -0.21   0.19   0.27
   2   6    -0.00   0.00   0.00    -0.27   0.05   0.06     0.19  -0.37  -0.31
   3   6     0.00  -0.00  -0.00     0.01  -0.03  -0.07    -0.05   0.23   0.19
   4   6    -0.00   0.00  -0.00     0.20   0.03   0.01     0.01  -0.09   0.07
   5   6     0.01  -0.00  -0.01    -0.06   0.03   0.27    -0.02   0.03   0.08
   6   6     0.00   0.00   0.01    -0.01  -0.04  -0.36    -0.01  -0.01  -0.18
   7   6    -0.00   0.00   0.01     0.07  -0.02  -0.00     0.02  -0.01   0.03
   8   6    -0.01   0.01   0.05    -0.10   0.02  -0.05    -0.05   0.01  -0.02
   9   6    -0.10   0.02  -0.09    -0.05   0.01   0.02    -0.03   0.01   0.01
  10   6     0.07  -0.01  -0.00    -0.00  -0.00  -0.01    -0.00  -0.00  -0.00
  11   6    -0.14   0.07  -0.55     0.03  -0.00  -0.03     0.01  -0.00  -0.02
  12   6    -0.06   0.00   0.12     0.02  -0.00  -0.01     0.01  -0.00  -0.00
  13   9     0.04  -0.00  -0.06    -0.02   0.00   0.02    -0.01   0.00   0.01
  14   6     0.42  -0.09   0.11    -0.00   0.00  -0.01    -0.00   0.00  -0.01
  15   6    -0.01   0.01  -0.06     0.01  -0.00   0.01     0.01  -0.00   0.00
  16   6    -0.27   0.00   0.50    -0.01  -0.00   0.04    -0.01   0.00   0.02
  17   6     0.00  -0.01  -0.02    -0.12   0.07   0.37     0.01   0.02   0.13
  18   6     0.00   0.00   0.01     0.02  -0.05  -0.25     0.04  -0.02  -0.22
  19  17     0.00   0.00  -0.00     0.00  -0.00  -0.00    -0.00  -0.00   0.00
  20   1    -0.00   0.00   0.00    -0.10   0.15   0.10     0.05  -0.08  -0.09
  21   1    -0.00  -0.00  -0.00    -0.01  -0.23  -0.12    -0.01   0.20   0.08
  22   1    -0.00   0.00   0.00    -0.09  -0.04   0.00     0.02   0.18   0.08
  23   1     0.00   0.00   0.00     0.07   0.07   0.01     0.02  -0.08  -0.08
  24   1    -0.00  -0.00   0.00    -0.14  -0.21   0.09     0.05  -0.08  -0.07
  25   1    -0.00  -0.00   0.00     0.12   0.00   0.03    -0.29   0.08  -0.14
  26   1     0.00   0.00  -0.00    -0.00   0.07   0.00     0.21  -0.10  -0.03
  27   1    -0.00  -0.00  -0.01     0.11   0.01   0.17     0.03  -0.03   0.06
  28   1    -0.00  -0.00   0.00     0.14  -0.04  -0.15     0.04  -0.03  -0.07
  29   1     0.01  -0.03   0.01    -0.07   0.02  -0.00    -0.02   0.00  -0.00
  30   1    -0.10  -0.00  -0.01    -0.00  -0.00   0.00     0.02  -0.01  -0.01
  31   1     0.03   0.01  -0.18     0.03  -0.01  -0.02     0.02   0.00  -0.01
  32   1     0.12  -0.02   0.03    -0.00  -0.00  -0.01    -0.00   0.00  -0.00
  33   1     0.06  -0.01  -0.03     0.03  -0.00  -0.01     0.02  -0.01  -0.01
  34   1    -0.02  -0.01   0.19    -0.02   0.00   0.00    -0.01  -0.00   0.00
  35   1    -0.02   0.01  -0.03     0.09   0.01   0.20     0.11  -0.01   0.12
  36   1    -0.01   0.00   0.01     0.14  -0.03  -0.11     0.11  -0.06  -0.10
                     52                     53                     54
                        a                      a                      a 
 Frequencies --  1045.1297              1080.6765              1120.7014
 Red. masses --     5.4518                 7.0524                 3.7773
 Frc consts  --     0.0000                 0.0000                 0.0000
 IR Inten    --     1.0746                 8.9097                 4.2837
 Raman Activ --     0.0000                 0.0000                 0.0000
 Depolar     --     0.0000                 0.0000                 0.0000
 Atom AN      X      Y      Z        X      Y      Z        X      Y      Z
   1   7    -0.11  -0.09  -0.13     0.06  -0.21  -0.05     0.00  -0.01   0.00
   2   6     0.32   0.16   0.17     0.06   0.48  -0.09     0.01   0.03  -0.02
   3   6    -0.20  -0.04  -0.14    -0.18  -0.30   0.29    -0.02  -0.01   0.03
   4   6    -0.08  -0.06  -0.05    -0.05   0.04   0.08     0.02  -0.01  -0.02
   5   6    -0.05   0.05   0.26     0.01  -0.01  -0.05    -0.03   0.01   0.04
   6   6     0.08  -0.02  -0.06    -0.03  -0.01  -0.05     0.01   0.00   0.05
   7   6     0.04  -0.01  -0.02    -0.02   0.01   0.06     0.06  -0.02  -0.04
   8   6    -0.04   0.01  -0.02    -0.01   0.00   0.01     0.04  -0.01  -0.02
   9   6    -0.03   0.01   0.01    -0.01   0.00   0.00     0.04  -0.01  -0.03
  10   6    -0.01   0.00  -0.01    -0.01   0.00   0.00     0.04   0.00  -0.08
  11   6     0.01  -0.00  -0.02     0.00   0.00  -0.01     0.08  -0.03   0.17
  12   6     0.01  -0.00  -0.00    -0.00  -0.00   0.00    -0.04   0.01  -0.01
  13   9    -0.01   0.00   0.01     0.00   0.00  -0.00     0.01  -0.00   0.00
  14   6    -0.01   0.00  -0.01    -0.01   0.00   0.00     0.20  -0.02  -0.14
  15   6     0.01  -0.00   0.01    -0.00   0.00  -0.00     0.04  -0.03   0.22
  16   6    -0.01  -0.00   0.02     0.00  -0.00   0.00    -0.26   0.04   0.04
  17   6     0.01   0.01   0.12     0.06  -0.02  -0.04    -0.01   0.00   0.02
  18   6     0.01  -0.01  -0.16     0.01  -0.03  -0.12     0.02  -0.00  -0.00
  19  17    -0.00   0.00  -0.00     0.00   0.00   0.00     0.00   0.00   0.00
  20   1     0.09  -0.10  -0.02     0.03  -0.10  -0.13     0.00  -0.01  -0.01
  21   1     0.01   0.17   0.14     0.03  -0.03  -0.10     0.00   0.00  -0.01
  22   1     0.12  -0.13  -0.08    -0.00   0.10   0.02    -0.00   0.01   0.00
  23   1    -0.19  -0.09   0.05     0.21   0.32  -0.00     0.01   0.01  -0.00
  24   1     0.18   0.37  -0.16    -0.00   0.10   0.10     0.00   0.00   0.01
  25   1    -0.05  -0.07   0.06    -0.36  -0.12  -0.02    -0.03  -0.00  -0.01
  26   1    -0.37  -0.03   0.01     0.22  -0.10   0.03     0.00  -0.01   0.00
  27   1     0.08  -0.01   0.16     0.05  -0.01   0.03    -0.07   0.01  -0.04
  28   1     0.17  -0.06  -0.07    -0.06   0.02   0.01    -0.01   0.00   0.02
  29   1    -0.02   0.00  -0.00     0.03  -0.01  -0.01    -0.20   0.03   0.05
  30   1    -0.00  -0.00   0.00     0.05  -0.01  -0.01    -0.13   0.02   0.03
  31   1     0.03  -0.00  -0.01     0.02  -0.00  -0.01    -0.02  -0.00   0.06
  32   1    -0.00   0.00  -0.00    -0.00   0.00   0.01     0.16   0.02  -0.65
  33   1     0.02  -0.00  -0.01     0.00  -0.00  -0.00    -0.04  -0.00   0.09
  34   1    -0.00  -0.00   0.01     0.01  -0.00   0.01    -0.37   0.09  -0.23
  35   1     0.08  -0.01   0.09     0.12  -0.01   0.07    -0.07   0.01  -0.05
  36   1     0.10  -0.04  -0.08     0.02   0.00  -0.05     0.07  -0.02  -0.02
                     55                     56                     57
                        a                      a                      a 
 Frequencies --  1134.5413              1145.1493              1175.8740
 Red. masses --     3.6335                 4.0227                 2.6895
 Frc consts  --     0.0000                 0.0000                 0.0000
 IR Inten    --    91.6859                28.8528               103.6051
 Raman Activ --     0.0000                 0.0000                 0.0000
 Depolar     --     0.0000                 0.0000                 0.0000
 Atom AN      X      Y      Z        X      Y      Z        X      Y      Z
   1   7     0.00  -0.02   0.01    -0.01   0.03  -0.03     0.01   0.00   0.01
   2   6     0.01   0.05  -0.04    -0.00  -0.06   0.07    -0.01  -0.00  -0.01
   3   6    -0.04  -0.02   0.06     0.03   0.03  -0.09     0.02  -0.01   0.01
   4   6     0.03  -0.01  -0.07    -0.02   0.01   0.12    -0.05   0.01  -0.02
   5   6    -0.06   0.02   0.05     0.12  -0.04  -0.08     0.00  -0.01  -0.09
   6   6     0.04  -0.00   0.06    -0.08   0.00  -0.13     0.03  -0.01  -0.05
   7   6    -0.01  -0.01  -0.08    -0.10   0.04   0.14    -0.24   0.06   0.00
   8   6     0.00  -0.00  -0.01    -0.01   0.00   0.06    -0.00   0.00   0.11
   9   6    -0.07   0.01  -0.08    -0.09   0.02  -0.08    -0.06   0.01   0.02
  10   6     0.20  -0.03   0.01     0.14  -0.02   0.01     0.08  -0.02   0.05
  11   6    -0.04   0.01  -0.04     0.02  -0.00  -0.02     0.13  -0.02  -0.06
  12   6     0.17  -0.01  -0.22     0.12  -0.01  -0.18     0.05  -0.00  -0.09
  13   9    -0.10   0.01   0.12    -0.08   0.01   0.09    -0.04   0.00   0.03
  14   6     0.11  -0.02   0.05     0.13  -0.02  -0.00     0.00  -0.00  -0.00
  15   6     0.00  -0.00   0.02     0.00  -0.01   0.07    -0.09   0.01   0.03
  16   6     0.05  -0.01  -0.03    -0.04   0.01  -0.01    -0.01   0.00  -0.00
  17   6    -0.05   0.02   0.07     0.09  -0.03  -0.09    -0.02   0.01   0.01
  18   6     0.07  -0.01   0.04    -0.06   0.00  -0.09     0.00   0.01   0.09
  19  17    -0.00  -0.00   0.00    -0.00  -0.00  -0.00    -0.00  -0.00   0.00
  20   1     0.00  -0.02  -0.02     0.00   0.01   0.02     0.00  -0.00  -0.01
  21   1     0.00  -0.00  -0.02    -0.01   0.01   0.03     0.00  -0.01  -0.01
  22   1    -0.00   0.03   0.01     0.01  -0.04  -0.02    -0.00   0.00   0.00
  23   1     0.03   0.03  -0.01    -0.05  -0.02   0.02     0.01  -0.01  -0.00
  24   1    -0.00   0.00   0.02     0.01   0.00  -0.03    -0.00   0.01   0.01
  25   1    -0.04   0.00  -0.01     0.02  -0.01   0.02     0.03   0.01   0.00
  26   1     0.02  -0.03   0.01    -0.02   0.04  -0.01     0.02   0.00   0.00
  27   1    -0.17   0.02  -0.11     0.36  -0.05   0.24    -0.08   0.01  -0.09
  28   1     0.19  -0.05  -0.05    -0.31   0.08   0.07     0.37  -0.10  -0.16
  29   1    -0.07   0.02   0.01     0.04  -0.01   0.00     0.32  -0.06  -0.06
  30   1    -0.25   0.06   0.04     0.02  -0.01  -0.03     0.12  -0.02  -0.03
  31   1    -0.58   0.09   0.20    -0.37   0.06   0.13    -0.04   0.01   0.01
  32   1    -0.01  -0.02   0.29     0.04  -0.01   0.02     0.06   0.02  -0.36
  33   1    -0.10   0.01   0.04    -0.12   0.02   0.07    -0.47   0.07   0.18
  34   1    -0.06   0.02  -0.07    -0.12   0.03  -0.09     0.26  -0.07   0.22
  35   1    -0.20   0.03  -0.13     0.28  -0.03   0.18     0.11  -0.01   0.10
  36   1     0.23  -0.05  -0.07    -0.32   0.07   0.09    -0.00   0.01   0.03
                     58                     59                     60
                        a                      a                      a 
 Frequencies --  1191.9720              1194.7878              1211.7793
 Red. masses --     4.0929                 2.1066                 4.8870
 Frc consts  --     0.0000                 0.0000                 0.0000
 IR Inten    --    33.8585                 2.7362                23.0091
 Raman Activ --     0.0000                 0.0000                 0.0000
 Depolar     --     0.0000                 0.0000                 0.0000
 Atom AN      X      Y      Z        X      Y      Z        X      Y      Z
   1   7     0.02   0.05  -0.18    -0.01  -0.01   0.02     0.03  -0.00   0.02
   2   6    -0.06  -0.13   0.37     0.01   0.01  -0.06    -0.04  -0.05  -0.01
   3   6     0.12   0.12  -0.19    -0.00  -0.02   0.04     0.13  -0.04   0.02
   4   6    -0.03  -0.04   0.10    -0.02   0.01  -0.03    -0.31   0.09  -0.07
   5   6    -0.00   0.01  -0.03     0.03   0.01   0.12     0.00  -0.01  -0.04
   6   6     0.01   0.00  -0.01    -0.06   0.02   0.08    -0.04   0.01   0.08
   7   6     0.01  -0.00   0.01     0.12  -0.03   0.00    -0.31   0.08   0.01
   8   6    -0.01   0.00  -0.01    -0.08   0.01  -0.09     0.09  -0.02   0.12
   9   6     0.01  -0.00   0.00     0.03  -0.01   0.02     0.01  -0.00  -0.03
  10   6     0.00  -0.00   0.00     0.00  -0.00   0.03     0.11  -0.02  -0.02
  11   6     0.01  -0.00  -0.01     0.08  -0.01  -0.05    -0.04   0.00   0.06
  12   6    -0.00   0.00  -0.00     0.02  -0.00  -0.03    -0.09   0.00   0.15
  13   9    -0.00   0.00  -0.00    -0.02   0.00   0.01     0.05  -0.00  -0.06
  14   6    -0.01   0.00   0.00    -0.06   0.01   0.01    -0.00  -0.00   0.02
  15   6    -0.01   0.00  -0.00    -0.06   0.01  -0.02    -0.01   0.00  -0.04
  16   6     0.01  -0.00   0.00     0.07  -0.01   0.02    -0.04   0.01  -0.03
  17   6    -0.03   0.01  -0.04    -0.02  -0.00  -0.05    -0.02  -0.01  -0.13
  18   6     0.04  -0.02  -0.05     0.04  -0.02  -0.09     0.01  -0.00   0.02
  19  17     0.00   0.00  -0.00     0.00   0.00   0.00    -0.00  -0.00   0.00
  20   1     0.00   0.08   0.12    -0.01  -0.00  -0.01    -0.01   0.01   0.00
  21   1    -0.02  -0.01   0.10     0.00   0.01  -0.01     0.00  -0.02  -0.02
  22   1     0.02  -0.17  -0.08     0.00   0.03   0.01    -0.02   0.01   0.01
  23   1    -0.17   0.05   0.14     0.03   0.01  -0.02     0.02  -0.04  -0.01
  24   1     0.01   0.04  -0.05    -0.00  -0.02  -0.00     0.01   0.07   0.04
  25   1    -0.49  -0.23   0.09     0.10   0.04  -0.01     0.16   0.02   0.02
  26   1     0.41   0.26  -0.04    -0.05  -0.05   0.00     0.16   0.02  -0.00
  27   1    -0.05  -0.01  -0.05     0.29  -0.03   0.26     0.34  -0.04   0.27
  28   1    -0.07   0.02   0.03    -0.38   0.10   0.16     0.18  -0.05  -0.05
  29   1    -0.01   0.00  -0.00    -0.07   0.02  -0.01     0.23  -0.05  -0.02
  30   1    -0.02   0.00   0.01    -0.13   0.03   0.04     0.05  -0.01  -0.02
  31   1     0.01  -0.00  -0.00     0.03  -0.00  -0.02    -0.03   0.00   0.03
  32   1     0.00   0.00  -0.02     0.01   0.01  -0.15    -0.00   0.00  -0.00
  33   1    -0.05   0.01   0.02    -0.34   0.05   0.12     0.23  -0.03  -0.10
  34   1     0.04  -0.01   0.03     0.28  -0.08   0.22    -0.15   0.05  -0.13
  35   1    -0.05   0.00  -0.04    -0.29   0.03  -0.24    -0.02  -0.00  -0.04
  36   1     0.18  -0.05  -0.08     0.28  -0.07  -0.13     0.40  -0.10  -0.15
                     61                     62                     63
                        a                      a                      a 
 Frequencies --  1232.2642              1235.8635              1255.0039
 Red. masses --     6.6937                 3.6579                 4.6659
 Frc consts  --     0.0000                 0.0000                 0.0000
 IR Inten    --    39.5329                41.2407                 3.2769
 Raman Activ --     0.0000                 0.0000                 0.0000
 Depolar     --     0.0000                 0.0000                 0.0000
 Atom AN      X      Y      Z        X      Y      Z        X      Y      Z
   1   7     0.12  -0.04   0.09     0.18  -0.06   0.15     0.02  -0.01   0.03
   2   6    -0.11   0.00  -0.05    -0.17   0.03  -0.07    -0.02   0.06  -0.02
   3   6     0.09   0.01  -0.04     0.04   0.07  -0.08    -0.08   0.08  -0.04
   4   6    -0.16   0.03  -0.01     0.00  -0.03   0.02     0.36  -0.11   0.04
   5   6    -0.07   0.02   0.06     0.02  -0.00  -0.01     0.08  -0.02  -0.03
   6   6     0.07  -0.01   0.06     0.00   0.00  -0.02    -0.07   0.00  -0.15
   7   6     0.20  -0.04   0.00    -0.05   0.00  -0.03    -0.05   0.04   0.17
   8   6    -0.07   0.02   0.02     0.04  -0.01  -0.04    -0.14   0.03   0.02
   9   6    -0.04   0.01   0.08     0.03  -0.01  -0.06    -0.08   0.02   0.10
  10   6    -0.26   0.03   0.08     0.13  -0.01  -0.07     0.09  -0.02   0.05
  11   6    -0.01   0.01  -0.08     0.01  -0.01   0.04     0.04  -0.01  -0.02
  12   6     0.15   0.00  -0.36    -0.07  -0.00   0.21    -0.02  -0.00   0.07
  13   9    -0.10   0.01   0.14     0.05  -0.00  -0.07     0.01  -0.00  -0.02
  14   6     0.14  -0.02  -0.08    -0.09   0.01   0.05    -0.00  -0.00   0.06
  15   6     0.09  -0.03   0.16    -0.06   0.02  -0.09    -0.01   0.01  -0.03
  16   6    -0.07   0.01   0.02     0.06  -0.01   0.00    -0.06   0.02  -0.07
  17   6     0.02  -0.01  -0.07     0.02   0.00   0.03    -0.11   0.03   0.04
  18   6    -0.07   0.01  -0.04     0.01   0.00  -0.00     0.14  -0.03  -0.01
  19  17     0.00   0.00   0.00     0.00  -0.00   0.00     0.00   0.00   0.00
  20   1    -0.05   0.03  -0.03    -0.07   0.03  -0.06    -0.01  -0.00  -0.02
  21   1     0.02  -0.08  -0.10     0.03  -0.13  -0.15     0.00  -0.02  -0.03
  22   1    -0.07   0.09   0.06    -0.10   0.12   0.09    -0.02   0.02   0.02
  23   1     0.01  -0.28  -0.08     0.00  -0.45  -0.13    -0.01  -0.11  -0.03
  24   1     0.02   0.28   0.14     0.03   0.44   0.22    -0.01   0.03   0.03
  25   1    -0.01  -0.02   0.01    -0.18  -0.07   0.01    -0.24  -0.06  -0.01
  26   1     0.05   0.03  -0.01    -0.02   0.04  -0.01    -0.20  -0.04  -0.00
  27   1    -0.05   0.01  -0.01    -0.01  -0.00  -0.01     0.06  -0.01   0.01
  28   1    -0.03   0.01   0.04    -0.03   0.00   0.01    -0.06   0.01  -0.03
  29   1     0.08  -0.03  -0.03    -0.16   0.04   0.04     0.42  -0.09  -0.12
  30   1     0.34  -0.07  -0.07    -0.25   0.05   0.06     0.21  -0.03  -0.04
  31   1     0.15  -0.02  -0.09    -0.10   0.02   0.06    -0.07   0.01   0.03
  32   1     0.01  -0.02   0.17    -0.01   0.01  -0.11     0.01   0.00  -0.09
  33   1    -0.12   0.01   0.10     0.04  -0.00  -0.05     0.15  -0.02  -0.07
  34   1    -0.15   0.04  -0.09     0.14  -0.04   0.10    -0.10   0.03  -0.09
  35   1    -0.01  -0.01  -0.04     0.11  -0.01   0.09    -0.39   0.04  -0.27
  36   1     0.11  -0.03  -0.07    -0.08   0.02   0.03    -0.09   0.02   0.05
                     64                     65                     66
                        a                      a                      a 
 Frequencies --  1261.8338              1277.4278              1291.4054
 Red. masses --     5.2846                 4.8230                10.0144
 Frc consts  --     0.0000                 0.0000                 0.0000
 IR Inten    --    23.3139                15.1714                21.1071
 Raman Activ --     0.0000                 0.0000                 0.0000
 Depolar     --     0.0000                 0.0000                 0.0000
 Atom AN      X      Y      Z        X      Y      Z        X      Y      Z
   1   7    -0.01  -0.00  -0.01    -0.02  -0.01   0.02    -0.01   0.01   0.01
   2   6     0.01  -0.02   0.01     0.04   0.07  -0.02    -0.01   0.05  -0.01
   3   6     0.03  -0.03   0.01    -0.09  -0.01  -0.05     0.00   0.05  -0.02
   4   6    -0.13   0.04  -0.00     0.15  -0.01   0.18     0.20  -0.07  -0.00
   5   6    -0.06   0.02   0.05     0.16  -0.03   0.08     0.12  -0.03  -0.07
   6   6     0.06  -0.01   0.04     0.04  -0.02  -0.08    -0.14   0.03  -0.02
   7   6     0.20  -0.05  -0.02    -0.15   0.01  -0.26    -0.37   0.07  -0.11
   8   6    -0.11   0.02  -0.10     0.08  -0.01   0.21     0.26  -0.05  -0.03
   9   6     0.06  -0.01   0.19    -0.11   0.02  -0.12     0.32  -0.06   0.08
  10   6    -0.24   0.06  -0.21     0.09  -0.02   0.04    -0.35   0.08  -0.20
  11   6     0.11  -0.01  -0.09     0.03  -0.00  -0.02    -0.11   0.02   0.06
  12   6     0.17  -0.03   0.05    -0.02  -0.00   0.06     0.12  -0.00  -0.21
  13   9    -0.03   0.01   0.01     0.01  -0.00  -0.02    -0.04   0.00   0.08
  14   6    -0.02  -0.01   0.16    -0.02   0.00   0.04     0.12  -0.01  -0.09
  15   6    -0.02  -0.00   0.09    -0.01   0.01  -0.05     0.03  -0.03   0.23
  16   6    -0.19   0.04  -0.10     0.01   0.00  -0.02    -0.12   0.02   0.02
  17   6     0.04  -0.01  -0.03    -0.17   0.03  -0.06    -0.12   0.03   0.03
  18   6    -0.07   0.01  -0.04    -0.03   0.02   0.12     0.09  -0.00   0.13
  19  17     0.00   0.00  -0.00    -0.00  -0.00   0.00    -0.00  -0.00   0.00
  20   1    -0.00   0.01   0.01     0.01  -0.02  -0.01     0.01  -0.02  -0.02
  21   1     0.00   0.01   0.01     0.00   0.01  -0.01    -0.00  -0.01  -0.01
  22   1     0.01  -0.00  -0.00     0.02   0.00   0.00     0.00  -0.00   0.00
  23   1     0.00   0.03   0.01    -0.02  -0.07  -0.02    -0.01  -0.05  -0.02
  24   1     0.00  -0.01  -0.01    -0.01  -0.06  -0.02    -0.02  -0.06   0.00
  25   1     0.09   0.02   0.00     0.05   0.01   0.01    -0.16  -0.05   0.00
  26   1     0.06   0.02   0.00    -0.14  -0.01   0.00    -0.14  -0.05   0.00
  27   1    -0.08   0.01  -0.03    -0.23   0.03  -0.21     0.12  -0.02   0.05
  28   1    -0.05   0.02   0.04    -0.38   0.10   0.12    -0.01  -0.00  -0.02
  29   1     0.12  -0.03  -0.07    -0.01   0.01   0.06     0.01   0.00   0.01
  30   1     0.12  -0.03   0.02     0.26  -0.05  -0.11    -0.17   0.03   0.09
  31   1    -0.38   0.06   0.12    -0.07   0.01   0.02     0.07  -0.01  -0.03
  32   1     0.04   0.01  -0.25     0.00   0.00  -0.04     0.02  -0.01   0.10
  33   1     0.42  -0.06  -0.14     0.02  -0.00  -0.02     0.10  -0.02   0.03
  34   1     0.25  -0.07   0.23    -0.00   0.00  -0.01     0.11  -0.03   0.13
  35   1     0.07  -0.01   0.03     0.20  -0.02   0.18     0.02   0.00   0.05
  36   1     0.02  -0.01  -0.03     0.40  -0.10  -0.12     0.09  -0.02   0.02
                     67                     68                     69
                        a                      a                      a 
 Frequencies --  1317.9330              1319.9886              1336.7118
 Red. masses --     4.4948                 4.1066                 5.8660
[...]
   3   6     0.02  -0.01   0.01    -0.00   0.01   0.00     0.03  -0.13  -0.26
   4   6    -0.13   0.02  -0.06     0.00   0.00   0.00     0.00  -0.00  -0.01
   5   6     0.22  -0.03   0.13    -0.00   0.00  -0.00    -0.00   0.00   0.00
   6   6    -0.21   0.05  -0.01     0.00  -0.00   0.00     0.00  -0.00  -0.00
   7   6     0.03   0.00   0.10    -0.00   0.00  -0.00    -0.00   0.00   0.00
   8   6     0.44  -0.10  -0.34     0.01  -0.00  -0.00     0.00   0.00   0.00
   9   6    -0.45   0.09   0.33    -0.00   0.00   0.00    -0.00  -0.00   0.00
  10   6     0.00   0.00  -0.08     0.00  -0.00   0.00     0.00  -0.00   0.00
  11   6     0.15  -0.03   0.00    -0.00   0.00   0.00    -0.00   0.00   0.00
  12   6    -0.14   0.03  -0.06     0.00  -0.00  -0.00     0.00  -0.00   0.00
  13   9     0.01  -0.00  -0.00    -0.00  -0.00   0.00     0.00  -0.00   0.00
  14   6     0.05  -0.01   0.03    -0.00   0.00   0.00     0.00   0.00  -0.00
  15   6    -0.12   0.02   0.00     0.00  -0.00  -0.00     0.00   0.00   0.00
  16   6     0.12  -0.03   0.09    -0.00   0.00  -0.00    -0.00   0.00   0.00
  17   6    -0.18   0.03  -0.12     0.00  -0.00   0.00    -0.00   0.00  -0.00
  18   6     0.19  -0.04  -0.01    -0.00   0.00   0.00     0.00  -0.00   0.00
  19  17    -0.00  -0.00   0.00     0.01   0.01  -0.00     0.00   0.00   0.00
  20   1    -0.00  -0.00   0.00     0.55   0.74  -0.26     0.01   0.01  -0.00
  21   1     0.00   0.00  -0.00     0.03  -0.03   0.01     0.00  -0.00  -0.00
  22   1     0.00   0.00  -0.00    -0.02  -0.01  -0.02     0.00   0.00   0.00
  23   1    -0.00  -0.00   0.00     0.00  -0.00   0.00    -0.02   0.04  -0.17
  24   1    -0.00  -0.01   0.00    -0.01   0.00  -0.00    -0.05   0.01   0.00
  25   1     0.00   0.00  -0.00     0.01  -0.02  -0.02    -0.21   0.60   0.39
  26   1     0.01   0.00   0.00     0.00  -0.00   0.02     0.09  -0.16   0.54
  27   1    -0.04   0.00  -0.04    -0.00   0.00   0.00     0.01  -0.00  -0.00
  28   1     0.03  -0.01  -0.04    -0.00  -0.00  -0.00     0.00   0.00   0.00
  29   1    -0.12   0.03  -0.03    -0.00  -0.00  -0.00     0.00   0.00  -0.00
  30   1     0.12  -0.02   0.03     0.00  -0.00   0.00    -0.00  -0.00  -0.00
  31   1    -0.02   0.00   0.02     0.00  -0.00   0.00    -0.00  -0.00  -0.00
  32   1     0.01  -0.00   0.00    -0.00   0.00  -0.00    -0.00  -0.00  -0.00
  33   1     0.01  -0.00  -0.02     0.00  -0.00   0.00    -0.00   0.00  -0.00
  34   1    -0.01  -0.00  -0.01     0.00  -0.00  -0.00     0.00   0.00  -0.00
  35   1     0.01  -0.00   0.02    -0.00   0.00   0.00    -0.00   0.00   0.00
  36   1    -0.03   0.01   0.02    -0.00  -0.00  -0.00    -0.01   0.00  -0.01
                     88                     89                     90
                        a                      a                      a 
 Frequencies --  2958.3359              2974.3275              2985.4402
 Red. masses --     1.9178                 1.5498                 1.5665
 Frc consts  --     0.0000                 0.0000                 0.0000
 IR Inten    --    50.5310                24.2538                 5.3531
 Raman Activ --     0.0000                 0.0000                 0.0000
 Depolar     --     0.0000                 0.0000                 0.0000
 Atom AN      X      Y      Z        X      Y      Z        X      Y      Z
   1   7    -0.00  -0.00   0.00     0.00   0.01  -0.00    -0.00  -0.00  -0.00
   2   6    -0.22   0.08  -0.16    -0.08   0.02  -0.01    -0.10  -0.02   0.19
   3   6     0.02  -0.06  -0.01    -0.07   0.16  -0.11     0.01  -0.02   0.06
   4   6     0.00  -0.00   0.00    -0.01   0.00  -0.00     0.00  -0.00   0.00
   5   6    -0.00   0.00   0.00     0.00  -0.00   0.00     0.00  -0.00  -0.00
   6   6    -0.00   0.00  -0.00    -0.00  -0.00   0.00     0.00  -0.00   0.00
   7   6     0.00  -0.00   0.00     0.00  -0.00   0.00    -0.00  -0.00  -0.00
   8   6    -0.00   0.00   0.00    -0.00   0.00   0.00     0.00  -0.00  -0.00
   9   6     0.00  -0.00  -0.00     0.00  -0.00  -0.00    -0.00   0.00   0.00
  10   6    -0.00   0.00  -0.00    -0.00   0.00  -0.00     0.00  -0.00  -0.00
  11   6     0.00  -0.00   0.00     0.00   0.00   0.00    -0.00   0.00  -0.00
  12   6    -0.00  -0.00  -0.00     0.00   0.00  -0.00    -0.00   0.00   0.00
  13   9    -0.00  -0.00   0.00    -0.00  -0.00   0.00     0.00   0.00  -0.00
  14   6    -0.00   0.00  -0.00    -0.00   0.00  -0.00    -0.00  -0.00   0.00
  15   6    -0.00   0.00   0.00    -0.00   0.00  -0.00     0.00  -0.00  -0.00
  16   6     0.00  -0.00   0.00     0.00  -0.00   0.00    -0.00  -0.00  -0.00
  17   6    -0.00   0.00  -0.00    -0.00  -0.00  -0.00     0.00  -0.00  -0.00
  18   6    -0.00  -0.00  -0.00     0.00  -0.00   0.00    -0.00   0.00  -0.00
  19  17     0.00   0.00  -0.00    -0.00  -0.00   0.00     0.00  -0.00  -0.00
  20   1     0.01   0.01  -0.00    -0.01  -0.02   0.01     0.01   0.01  -0.00
  21   1    -0.02   0.00  -0.00    -0.01   0.00  -0.00    -0.01   0.00  -0.00
  22   1    -0.00   0.00  -0.01     0.00   0.00   0.01     0.00  -0.00   0.02
  23   1     0.05  -0.11   0.48    -0.01   0.01  -0.01    -0.13   0.19  -0.77
  24   1     0.74  -0.17   0.08     0.31  -0.07   0.04     0.48  -0.12   0.08
  25   1    -0.07   0.21   0.15     0.14  -0.42  -0.32    -0.00   0.01   0.01
  26   1    -0.01   0.02  -0.13     0.10  -0.15   0.72    -0.03   0.05  -0.21
  27   1     0.00  -0.00  -0.00    -0.00   0.00   0.00    -0.00   0.00   0.00
  28   1     0.00   0.00   0.00    -0.00  -0.00  -0.00    -0.00  -0.00  -0.00
  29   1     0.00   0.00   0.00     0.00  -0.00   0.00    -0.00  -0.00  -0.00
  30   1    -0.00  -0.00  -0.00    -0.00   0.00  -0.00     0.00   0.00   0.00
  31   1    -0.00  -0.00  -0.00    -0.00   0.00  -0.00     0.00   0.00   0.00
  32   1     0.00  -0.00   0.00     0.00   0.00   0.00    -0.00  -0.00  -0.00
  33   1    -0.00   0.00  -0.00     0.00  -0.00   0.00     0.00  -0.00  -0.00
  34   1     0.00   0.00  -0.00     0.00  -0.00   0.00     0.00  -0.00  -0.00
  35   1     0.00  -0.00  -0.00    -0.00   0.00   0.00    -0.00   0.00   0.00
  36   1     0.00  -0.00   0.00    -0.00   0.00  -0.01     0.00   0.00   0.01
                     91                     92                     93
                        a                      a                      a 
 Frequencies --  3107.9714              3108.2869              3113.4783
 Red. masses --     1.7992                 1.8036                 1.7819
 Frc consts  --     0.0000                 0.0000                 0.0000
 IR Inten    --    40.2259                47.1412                17.5193
 Raman Activ --     0.0000                 0.0000                 0.0000
 Depolar     --     0.0000                 0.0000                 0.0000
 Atom AN      X      Y      Z        X      Y      Z        X      Y      Z
   1   7    -0.00  -0.00   0.00     0.00   0.00  -0.00    -0.00  -0.00  -0.00
   2   6     0.00   0.00  -0.00    -0.00  -0.00   0.00     0.00  -0.00   0.00
   3   6    -0.00   0.00  -0.00     0.00  -0.00   0.00    -0.00   0.00   0.00
   4   6    -0.01   0.00  -0.01     0.00  -0.00   0.00    -0.01   0.00   0.00
   5   6     0.02  -0.01  -0.02    -0.01   0.00   0.01    -0.12   0.05   0.16
   6   6     0.01   0.00   0.02    -0.00  -0.00  -0.00    -0.06  -0.00  -0.15
   7   6    -0.00   0.00   0.00     0.00  -0.00  -0.00    -0.00   0.00  -0.00
   8   6    -0.00   0.00  -0.01    -0.00   0.00  -0.01     0.00   0.00   0.01
   9   6    -0.00   0.00  -0.01    -0.00   0.00   0.00     0.00  -0.00   0.00
  10   6    -0.00   0.00   0.00    -0.00   0.00   0.00    -0.00   0.00   0.00
  11   6     0.00  -0.00   0.00     0.00  -0.00   0.00     0.00  -0.00  -0.00
  12   6     0.00  -0.00   0.00     0.00  -0.00   0.00    -0.00   0.00  -0.00
  13   9    -0.00   0.00  -0.00    -0.00   0.00  -0.00    -0.00   0.00   0.00
  14   6     0.01  -0.00   0.00     0.03  -0.01   0.00    -0.00   0.00  -0.00
  15   6    -0.03   0.01  -0.08    -0.08   0.03  -0.23    -0.00   0.00  -0.00
  16   6    -0.01   0.00   0.01    -0.03   0.00   0.04     0.00  -0.00  -0.00
  17   6    -0.03   0.01   0.04     0.01  -0.00  -0.01    -0.00   0.00   0.01
  18   6    -0.09  -0.01  -0.23     0.03   0.00   0.07    -0.01  -0.00  -0.04
  19  17    -0.00  -0.00   0.00     0.00   0.00  -0.00    -0.00  -0.00  -0.00
  20   1     0.00   0.00  -0.00    -0.00  -0.00   0.00     0.00   0.00  -0.00
  21   1     0.00  -0.00  -0.00    -0.00  -0.00   0.00     0.00  -0.00   0.00
  22   1     0.00   0.00  -0.00    -0.00  -0.00   0.00     0.00  -0.00   0.00
  23   1     0.00  -0.00   0.00    -0.00   0.00  -0.00     0.00   0.00  -0.00
  24   1    -0.00   0.00  -0.00     0.00  -0.00   0.00     0.00  -0.00  -0.00
  25   1    -0.00   0.00   0.00     0.00  -0.00  -0.00     0.00  -0.01  -0.00
  26   1     0.00  -0.00   0.01    -0.00   0.00  -0.00    -0.00  -0.00  -0.00
  27   1    -0.07   0.03   0.09     0.03  -0.01  -0.04     0.45  -0.17  -0.58
  28   1    -0.02  -0.00  -0.06     0.01   0.00   0.01     0.21   0.02   0.55
  29   1     0.01  -0.00   0.02     0.01  -0.00   0.03    -0.01   0.00  -0.04
  30   1     0.01  -0.00   0.04    -0.00   0.00  -0.01    -0.00   0.00  -0.01
  31   1    -0.00   0.00  -0.01    -0.00   0.00  -0.00    -0.00   0.00  -0.00
  32   1    -0.04   0.01  -0.01    -0.14   0.03  -0.02     0.00  -0.00   0.00
  33   1     0.10  -0.04   0.27     0.30  -0.12   0.82     0.00  -0.00   0.00
  34   1     0.04  -0.00  -0.05     0.12  -0.01  -0.15    -0.01   0.00   0.01
  35   1     0.14  -0.05  -0.18    -0.04   0.02   0.06     0.02  -0.01  -0.02
  36   1     0.32   0.03   0.81    -0.10  -0.01  -0.27     0.05   0.00   0.13
                     94                     95                     96
                        a                      a                      a 
 Frequencies --  3124.7531              3127.6064              3131.5047
 Red. masses --     1.8784                 1.8119                 1.8508
 Frc consts  --     0.0000                 0.0000                 0.0000
 IR Inten    --    29.0727                26.7475                10.0035
 Raman Activ --     0.0000                 0.0000                 0.0000
 Depolar     --     0.0000                 0.0000                 0.0000
 Atom AN      X      Y      Z        X      Y      Z        X      Y      Z
   1   7    -0.00   0.00  -0.00    -0.00   0.00  -0.00    -0.00  -0.00   0.00
   2   6    -0.00   0.00   0.00    -0.00   0.00   0.00    -0.00   0.00   0.00
   3   6     0.00   0.00   0.00    -0.00   0.00   0.00    -0.00   0.00   0.00
   4   6    -0.01   0.00  -0.00     0.00  -0.00  -0.00     0.00  -0.00  -0.00
   5   6    -0.10   0.04   0.13    -0.01   0.00   0.02     0.01  -0.00  -0.01
   6   6     0.08   0.01   0.20     0.01   0.00   0.03    -0.01  -0.00  -0.03
   7   6     0.01  -0.00  -0.00    -0.00   0.00   0.00    -0.01   0.00  -0.00
   8   6    -0.01   0.00  -0.05     0.03  -0.00   0.13    -0.03   0.00  -0.11
   9   6     0.00   0.00   0.01    -0.04   0.01  -0.17    -0.01   0.00  -0.03
  10   6    -0.00   0.00   0.00     0.00  -0.00  -0.01    -0.01   0.00  -0.00
  11   6     0.00  -0.00  -0.00     0.00  -0.00   0.01     0.00  -0.00   0.01
  12   6    -0.00   0.00  -0.00     0.00  -0.00   0.00    -0.00   0.00   0.00
  13   9    -0.00   0.00   0.00    -0.00   0.00   0.00     0.00  -0.00  -0.00
  14   6    -0.00   0.00  -0.00     0.01  -0.00   0.00    -0.02   0.00  -0.01
  15   6     0.00  -0.00   0.01    -0.01   0.00  -0.02     0.01  -0.01   0.04
  16   6    -0.01   0.00   0.01     0.04  -0.00  -0.05    -0.10   0.01   0.12
  17   6    -0.00   0.00   0.00    -0.08   0.03   0.10    -0.10   0.04   0.14
  18   6    -0.00  -0.00  -0.01     0.02   0.00   0.04     0.02   0.00   0.05
  19  17    -0.00  -0.00  -0.00     0.00  -0.00  -0.00     0.00  -0.00  -0.00
  20   1    -0.00  -0.00   0.00    -0.00  -0.00   0.00     0.00   0.00  -0.00
  21   1     0.00  -0.00   0.00     0.00  -0.00   0.00    -0.00   0.00   0.00
  22   1     0.00  -0.00   0.00     0.00  -0.00   0.00    -0.00   0.00  -0.00
  23   1     0.00   0.00  -0.00     0.00   0.00  -0.00    -0.00   0.00  -0.00
  24   1    -0.00   0.00  -0.00     0.00  -0.00   0.00     0.00  -0.00  -0.00
  25   1     0.00  -0.00  -0.00     0.00  -0.00  -0.00    -0.00  -0.00  -0.00
  26   1    -0.00   0.00  -0.00    -0.00   0.00  -0.00    -0.00   0.00  -0.00
  27   1     0.35  -0.13  -0.45     0.04  -0.02  -0.05    -0.03   0.01   0.04
  28   1    -0.27  -0.02  -0.68    -0.04  -0.00  -0.10     0.04   0.00   0.11
  29   1     0.05  -0.00   0.18    -0.13   0.01  -0.48     0.11  -0.01   0.39
  30   1    -0.01   0.00  -0.03     0.16  -0.03   0.60     0.02  -0.00   0.08
  31   1    -0.00   0.00  -0.00    -0.01   0.00  -0.03    -0.01   0.00  -0.02
  32   1     0.01  -0.00   0.00    -0.04   0.01  -0.01     0.09  -0.02   0.01
  33   1    -0.01   0.00  -0.03     0.02  -0.01   0.06    -0.04   0.02  -0.11
  34   1     0.04  -0.00  -0.05    -0.14   0.01   0.18     0.35  -0.02  -0.43
  35   1     0.01  -0.00  -0.01     0.26  -0.10  -0.35     0.36  -0.14  -0.47
  36   1     0.01   0.00   0.02    -0.05  -0.00  -0.13    -0.06  -0.01  -0.16
                     97                     98                     99
                        a                      a                      a 
 Frequencies --  3135.9238              3141.8523              3144.4122
 Red. masses --     1.8157                 1.8542                 1.8243
 Frc consts  --     0.0000                 0.0000                 0.0000
 IR Inten    --    30.7360                 4.3944                40.3024
 Raman Activ --     0.0000                 0.0000                 0.0000
 Depolar     --     0.0000                 0.0000                 0.0000
 Atom AN      X      Y      Z        X      Y      Z        X      Y      Z
   1   7    -0.00  -0.00   0.00    -0.00   0.00  -0.00     0.00  -0.00   0.00
   2   6    -0.00   0.00   0.00    -0.00   0.00  -0.00     0.00  -0.00   0.00
   3   6    -0.00   0.00   0.00    -0.00   0.00  -0.00     0.00   0.00  -0.00
   4   6     0.00  -0.00  -0.00    -0.00   0.00   0.00    -0.00   0.00   0.00
   5   6     0.00  -0.00  -0.00     0.00  -0.00  -0.00     0.00  -0.00  -0.01
   6   6    -0.00  -0.00  -0.01    -0.00  -0.00  -0.00    -0.01  -0.00  -0.02
   7   6    -0.00   0.00  -0.00     0.00  -0.00  -0.00     0.00  -0.00  -0.01
   8   6    -0.01   0.00  -0.06    -0.01   0.00  -0.03    -0.05   0.00  -0.17
   9   6     0.03  -0.00   0.11    -0.01   0.00  -0.03    -0.04   0.01  -0.14
  10   6     0.00  -0.00   0.00    -0.00   0.00  -0.00     0.00  -0.00  -0.00
  11   6    -0.01   0.00  -0.01     0.00  -0.00   0.02     0.03  -0.01   0.08
  12   6     0.00  -0.00  -0.00     0.01  -0.00  -0.01    -0.00   0.00   0.00
  13   9    -0.00   0.00   0.00    -0.00   0.00   0.00     0.00  -0.00  -0.00
  14   6     0.03  -0.01   0.01     0.26  -0.05   0.04    -0.03   0.01  -0.00
  15   6    -0.01   0.00  -0.03     0.02  -0.01   0.05    -0.01   0.00  -0.02
  16   6     0.11  -0.01  -0.14    -0.02   0.00   0.02     0.06  -0.00  -0.07
  17   6    -0.08   0.03   0.11     0.01  -0.00  -0.01     0.03  -0.01  -0.04
  18   6     0.01   0.00   0.03    -0.00  -0.00  -0.00    -0.00  -0.00  -0.01
  19  17     0.00   0.00  -0.00    -0.00   0.00   0.00     0.00   0.00   0.00
  20   1     0.00   0.00  -0.00     0.00  -0.00  -0.00     0.00   0.00  -0.00
  21   1     0.00   0.00   0.00    -0.00   0.00  -0.00    -0.00   0.00  -0.00
  22   1    -0.00   0.00  -0.00     0.00  -0.00   0.00    -0.00   0.00  -0.00
  23   1    -0.00   0.00  -0.00     0.00  -0.00   0.00    -0.00  -0.00  -0.00
  24   1     0.00  -0.00   0.00     0.00   0.00  -0.00    -0.00   0.00  -0.00
  25   1    -0.00  -0.00  -0.00     0.00  -0.00  -0.00    -0.00   0.00   0.00
  26   1    -0.00   0.00  -0.00     0.00  -0.00   0.00     0.00  -0.00   0.00
  27   1    -0.01   0.00   0.01    -0.00   0.00   0.00    -0.01   0.00   0.02
  28   1     0.01   0.00   0.02     0.01   0.00   0.01     0.03   0.00   0.07
  29   1     0.06  -0.01   0.23     0.03  -0.00   0.09     0.16  -0.01   0.59
  30   1    -0.11   0.02  -0.42     0.03  -0.00   0.10     0.14  -0.02   0.51
  31   1     0.02  -0.01   0.05    -0.02   0.01  -0.07    -0.10   0.04  -0.29
  32   1    -0.13   0.02  -0.02    -0.90   0.17  -0.14     0.12  -0.02   0.02
  33   1     0.04  -0.02   0.10    -0.06   0.02  -0.15     0.02  -0.01   0.06
  34   1    -0.40   0.03   0.49     0.05  -0.00  -0.06    -0.20   0.01   0.25
  35   1     0.29  -0.11  -0.38    -0.03   0.01   0.04    -0.12   0.05   0.16
  36   1    -0.04  -0.00  -0.10     0.00   0.00   0.01     0.01   0.00   0.02
                    100                    101                    102
                        a                      a                      a 
 Frequencies --  3150.2115              3207.6590              3237.3194
 Red. masses --     1.8210                 1.8499                 1.6766
 Frc consts  --     0.0000                 0.0000                 0.0000
 IR Inten    --    54.3695                86.4291                24.9105
 Raman Activ --     0.0000                 0.0000                 0.0000
 Depolar     --     0.0000                 0.0000                 0.0000
 Atom AN      X      Y      Z        X      Y      Z        X      Y      Z
   1   7     0.00  -0.00   0.00     0.08  -0.05   0.24     0.22  -0.06  -0.00
   2   6     0.00  -0.00   0.00     0.00   0.00   0.01     0.01  -0.01  -0.00
   3   6    -0.00   0.00   0.00    -0.00   0.00  -0.00     0.00   0.00   0.00
   4   6     0.00  -0.00  -0.00    -0.00  -0.00   0.00    -0.00  -0.00  -0.00
   5   6    -0.00   0.00   0.00    -0.00   0.00   0.00    -0.00   0.00   0.00
   6   6     0.00   0.00   0.01    -0.00   0.00   0.00    -0.00   0.00   0.00
   7   6     0.00   0.00   0.00     0.00  -0.00   0.00     0.00  -0.00  -0.00
   8   6     0.01  -0.00   0.05    -0.00   0.00   0.00    -0.00   0.00   0.00
   9   6     0.02  -0.00   0.07     0.00  -0.00  -0.00     0.00  -0.00  -0.00
  10   6     0.01  -0.00   0.01    -0.00   0.00  -0.00    -0.00   0.00  -0.00
  11   6     0.08  -0.03   0.24    -0.00   0.00  -0.00     0.00  -0.00  -0.00
  12   6    -0.01   0.00   0.01     0.00  -0.00  -0.00    -0.00   0.00   0.00
  13   9     0.00  -0.00  -0.00    -0.00  -0.00   0.00    -0.00   0.00   0.00
  14   6    -0.01   0.00  -0.00     0.00  -0.00   0.00     0.00  -0.00   0.00
  15   6     0.00  -0.00   0.00     0.00  -0.00   0.00    -0.00   0.00  -0.00
  16   6    -0.01   0.00   0.01    -0.00  -0.00   0.00     0.00  -0.00   0.00
  17   6    -0.01   0.00   0.01     0.00  -0.00  -0.00     0.00  -0.00   0.00
  18   6     0.00   0.00   0.00     0.00  -0.00   0.00    -0.00  -0.00  -0.00
  19  17    -0.00   0.00  -0.00     0.00   0.00   0.00    -0.00  -0.00   0.00
  20   1     0.00  -0.00   0.00    -0.01  -0.03   0.03     0.05   0.04  -0.01
  21   1    -0.00   0.00   0.00    -0.14   0.03   0.01    -0.92   0.25  -0.12
  22   1    -0.00   0.00  -0.00    -0.16   0.19  -0.92     0.05  -0.03   0.15
  23   1    -0.00   0.00  -0.00    -0.01   0.01  -0.02     0.00  -0.00   0.01
  24   1    -0.00   0.00  -0.00     0.00  -0.00  -0.00    -0.02   0.01  -0.00
  25   1     0.00  -0.00  -0.00     0.00  -0.00  -0.00    -0.00   0.00   0.00
  26   1    -0.00   0.00  -0.00     0.00   0.00   0.00     0.00  -0.00  -0.00
  27   1     0.00  -0.00  -0.00     0.00  -0.00  -0.00     0.00  -0.00  -0.00
  28   1    -0.01  -0.00  -0.02    -0.00  -0.00  -0.00     0.00   0.00  -0.00
  29   1    -0.05   0.00  -0.19    -0.00   0.00  -0.00    -0.00   0.00  -0.00
  30   1    -0.07   0.01  -0.24     0.00   0.00   0.00    -0.00   0.00  -0.00
  31   1    -0.30   0.12  -0.85     0.00  -0.00   0.00     0.00  -0.00   0.00
  32   1     0.02  -0.00   0.00    -0.00   0.00  -0.00     0.00  -0.00   0.00
  33   1    -0.00   0.00  -0.01    -0.00   0.00  -0.00     0.00  -0.00   0.00
  34   1     0.04  -0.00  -0.05     0.00  -0.00  -0.00    -0.00   0.00   0.00
  35   1     0.04  -0.02  -0.05    -0.00   0.00   0.00     0.00  -0.00  -0.00
  36   1    -0.00  -0.00  -0.01    -0.00   0.00  -0.00     0.00   0.00   0.00
