 Entering Gaussian System
 *********************************************
 Gaussian 98:
 frequency output generated by the xtb code
 *********************************************
                         Standard orientation:
 --------------------------------------------------------------------
  Center     Atomic     Atomic              Coordinates (Angstroms)
  Number     Number      Type              X           Y           Z
 --------------------------------------------------------------------
    1          7             0       -1.219454    1.557765   -0.684349
    2          6             0       -0.071310    0.619889   -0.831711
    3          6             0        0.254751   -0.106651    0.466089
    4          6             0        1.422786   -1.082267    0.330537
    5          6             0        2.727908   -0.405114    0.002071
    6          8             0        2.788076    0.940236    0.131949
    7          8             0        3.671393   -1.078980   -0.351791
    8         17             0       -3.966911   -0.341569    0.436024
    9          1             0       -2.060786    1.047680   -0.368055
   10          1             0       -1.448315    2.027875   -1.569179
   11          1             0       -1.013858    2.279686    0.016770
   12          1             0        0.811462    1.170204   -1.177535
   13          1             0       -0.291096   -0.110411   -1.618859
   14          1             0       -0.640240   -0.629975    0.821633
   15          1             0        0.491258    0.630980    1.240417
   16          1             0        1.208169   -1.816247   -0.451371
   17          1             0        1.556646   -1.655746    1.252898
   18          1             0        3.683056    1.233531   -0.090555
 --------------------------------------------------------------------
     1 basis functions        1 primitive gaussians
     1 alpha electrons        1 beta electrons

 Harmonic frequencies (cm**-1), IR intensities (km*mol⁻¹),
 Raman scattering activities (A**4/amu), Raman depolarization ratios,
 reduced masses (AMU), force constants (mDyne/A) and normal coordinates:
                      1                      2                      3
                        a                      a                      a 
 Frequencies --   -42.3411                34.9881                42.1643
 Red. masses --    24.4487                16.4218                20.5424
 Frc consts  --     0.0000                 0.0000                 0.0000
 IR Inten    --    95.4154                18.7340                21.9716
 Raman Activ --     0.0000                 0.0000                 0.0000
 Depolar     --     0.0000                 0.0000                 0.0000
 Atom AN      X      Y      Z        X      Y      Z        X      Y      Z
   1   7    -0.31  -0.30   0.18    -0.03   0.10  -0.14    -0.03  -0.29   0.09
   2   6    -0.19  -0.15   0.12    -0.07   0.05  -0.24    -0.02  -0.24  -0.02
   3   6    -0.06  -0.11   0.11    -0.15  -0.13  -0.32     0.10  -0.28  -0.07
   4   6    -0.01  -0.04   0.07    -0.13  -0.09  -0.37     0.22  -0.12  -0.16
   5   6    -0.07   0.03  -0.02    -0.06  -0.01   0.07     0.16   0.08  -0.01
   6   8    -0.15   0.04  -0.03    -0.17  -0.02   0.18    -0.03   0.09   0.06
   7   8    -0.07   0.09  -0.09     0.10   0.05   0.41     0.33   0.25   0.06
   8  17     0.61   0.33  -0.24     0.35   0.03   0.30    -0.48   0.37   0.04
   9   1    -0.07  -0.11   0.05    -0.00   0.03  -0.01    -0.01  -0.08   0.03
  10   1    -0.10  -0.08   0.05    -0.03   0.03  -0.03    -0.03  -0.07   0.03
  11   1    -0.10  -0.08   0.05     0.02   0.02  -0.04     0.00  -0.08   0.03
  12   1    -0.08  -0.02   0.02    -0.01   0.01  -0.04    -0.02  -0.06  -0.02
  13   1    -0.04  -0.05   0.04    -0.03   0.05  -0.10    -0.01  -0.06  -0.01
  14   1    -0.00  -0.04   0.05    -0.05  -0.05  -0.13     0.05  -0.12  -0.02
  15   1    -0.02  -0.02   0.02    -0.06  -0.07  -0.06     0.01  -0.08  -0.01
  16   1    -0.00  -0.02   0.03     0.00   0.03  -0.17     0.10  -0.01  -0.08
  17   1     0.02  -0.01   0.02    -0.08  -0.09  -0.14     0.07  -0.06  -0.07
  18   1    -0.05   0.02  -0.03    -0.03   0.01   0.13    -0.01   0.06   0.04
                      4                      5                      6
                        a                      a                      a 
 Frequencies --    83.7405               125.4681               166.5513
 Red. masses --    14.1512                11.3221                 7.9314
 Frc consts  --     0.0000                 0.0000                 0.0000
 IR Inten    --     6.1667                17.0031                 4.0802
 Raman Activ --     0.0000                 0.0000                 0.0000
 Depolar     --     0.0000                 0.0000                 0.0000
 Atom AN      X      Y      Z        X      Y      Z        X      Y      Z
   1   7    -0.23   0.05   0.30    -0.42  -0.30  -0.19    -0.02   0.13   0.06
   2   6    -0.15   0.15   0.10     0.05   0.24  -0.04    -0.41  -0.32  -0.16
   3   6     0.10   0.14   0.03     0.07   0.20  -0.07     0.08   0.19  -0.00
   4   6     0.01   0.07  -0.19     0.00   0.11  -0.09     0.00   0.11  -0.08
   5   6     0.10  -0.06  -0.06     0.10  -0.03   0.03     0.07   0.02   0.02
   6   8     0.12  -0.03  -0.48     0.36  -0.08   0.33     0.26  -0.02   0.29
   7   8     0.21  -0.23   0.49    -0.01  -0.15  -0.12     0.00  -0.05  -0.08
   8  17    -0.08  -0.07  -0.14    -0.07   0.04   0.09     0.01  -0.05  -0.05
   9   1    -0.04  -0.01   0.08    -0.07  -0.18  -0.08    -0.02   0.13   0.12
  10   1    -0.09   0.02   0.09    -0.13  -0.10  -0.05    -0.05   0.00   0.01
  11   1    -0.06   0.01   0.09    -0.24  -0.06  -0.03     0.14   0.06  -0.05
  12   1    -0.07   0.06  -0.00    -0.03   0.19   0.06    -0.12  -0.23  -0.26
  13   1    -0.06   0.04   0.04     0.15   0.07  -0.05    -0.31  -0.17   0.09
  14   1     0.04   0.05   0.06     0.01   0.06  -0.02     0.06   0.10   0.16
  15   1     0.08   0.04  -0.00     0.03   0.05  -0.01     0.12   0.14  -0.11
  16   1    -0.03   0.07  -0.09    -0.01   0.05  -0.04    -0.02   0.05  -0.04
  17   1    -0.01  -0.04  -0.09    -0.03   0.02  -0.03    -0.01   0.01  -0.04
  18   1     0.04  -0.03  -0.10     0.11  -0.05   0.12     0.09  -0.02   0.14
                      7                      8                      9
                        a                      a                      a 
 Frequencies --   240.6276               283.5939               305.6359
 Red. masses --     9.1709                 8.4579                 2.2583
 Frc consts  --     0.0000                 0.0000                 0.0000
 IR Inten    --     1.6729                12.8390                 1.9334
 Raman Activ --     0.0000                 0.0000                 0.0000
 Depolar     --     0.0000                 0.0000                 0.0000
 Atom AN      X      Y      Z        X      Y      Z        X      Y      Z
   1   7     0.06  -0.09  -0.15    -0.00  -0.10   0.27    -0.04   0.02   0.12
   2   6     0.15   0.00   0.15     0.06   0.08  -0.37     0.06   0.15  -0.06
   3   6     0.32   0.29   0.27     0.21   0.23  -0.33     0.03  -0.01  -0.13
   4   6    -0.09  -0.13  -0.22     0.04  -0.06   0.22     0.05  -0.04   0.11
   5   6    -0.09  -0.10  -0.07     0.00  -0.12   0.07     0.02  -0.05   0.02
   6   8    -0.43  -0.12   0.07    -0.30  -0.13   0.06    -0.09  -0.06   0.01
   7   8     0.08   0.12  -0.01     0.07   0.03  -0.03     0.05   0.00  -0.04
   8  17    -0.00   0.00  -0.00    -0.01   0.01   0.01    -0.02  -0.01  -0.04
   9   1     0.03  -0.02  -0.00     0.01  -0.10  -0.03     0.14   0.05   0.51
  10   1     0.01  -0.11  -0.08    -0.01   0.17   0.18    -0.40  -0.39  -0.08
  11   1    -0.01   0.05  -0.10    -0.01  -0.18   0.24     0.18   0.32  -0.35
  12   1     0.02  -0.00  -0.01    -0.03   0.06  -0.16     0.00   0.07  -0.01
  13   1     0.06  -0.07   0.10    -0.03   0.03  -0.10     0.03   0.06  -0.04
  14   1     0.07   0.20   0.21     0.04   0.14  -0.04    -0.00  -0.02  -0.09
  15   1     0.28   0.10   0.00     0.10   0.12  -0.16    -0.04  -0.02  -0.01
  16   1    -0.12   0.08  -0.15     0.02  -0.13   0.17     0.03  -0.07   0.08
  17   1    -0.03  -0.16  -0.14    -0.04   0.13   0.16    -0.00   0.06   0.08
  18   1    -0.11   0.03   0.10    -0.11   0.03  -0.02    -0.03   0.01   0.01
                     10                     11                     12
                        a                      a                      a 
 Frequencies --   359.8655               471.0269               545.6308
 Red. masses --    11.4350                 4.4183                11.9758
 Frc consts  --     0.0000                 0.0000                 0.0000
 IR Inten    --    17.9135               101.3141                81.6896
 Raman Activ --     0.0000                 0.0000                 0.0000
 Depolar     --     0.0000                 0.0000                 0.0000
 Atom AN      X      Y      Z        X      Y      Z        X      Y      Z
   1   7     0.28  -0.36   0.25     0.04  -0.03   0.02    -0.01   0.03  -0.03
   2   6     0.27  -0.13  -0.14     0.03  -0.02   0.04    -0.02  -0.01   0.03
   3   6    -0.01   0.09  -0.04    -0.06  -0.00   0.04     0.14  -0.05  -0.02
   4   6    -0.17   0.11  -0.16     0.01   0.12  -0.02     0.31   0.25  -0.08
   5   6    -0.20   0.19   0.00    -0.08   0.03  -0.47     0.24   0.14   0.01
   6   8     0.16   0.24  -0.04    -0.09  -0.02  -0.05    -0.36   0.17   0.13
   7   8    -0.40  -0.07   0.11     0.08  -0.08   0.12    -0.22  -0.56  -0.01
   8  17    -0.02   0.00  -0.01     0.00   0.00  -0.00     0.00   0.00   0.00
   9   1     0.13  -0.14   0.16     0.01  -0.01  -0.01    -0.01   0.02  -0.02
  10   1    -0.07  -0.08   0.11     0.02   0.01   0.01     0.02  -0.00  -0.02
  11   1     0.13  -0.11   0.06     0.00  -0.02   0.02    -0.01   0.01  -0.01
  12   1     0.07  -0.02  -0.04     0.02  -0.01   0.03    -0.01  -0.00  -0.01
  13   1     0.09  -0.04  -0.04     0.02  -0.00   0.01    -0.02  -0.01   0.02
  14   1    -0.03   0.07  -0.01    -0.01  -0.03   0.00     0.08  -0.11  -0.05
  15   1     0.02   0.04  -0.03    -0.04   0.00   0.02    -0.05  -0.03   0.03
  16   1    -0.04   0.11  -0.12    -0.08  -0.15   0.19     0.13   0.10  -0.06
  17   1    -0.03  -0.07  -0.11     0.17   0.25   0.11     0.10   0.02  -0.05
  18   1     0.08  -0.03   0.03     0.16  -0.02   0.71    -0.19   0.30  -0.01
                     13                     14                     15
                        a                      a                      a 
 Frequencies --   561.6531               636.6278               790.0761
 Red. masses --    10.1379                 7.4005                 4.7470
 Frc consts  --     0.0000                 0.0000                 0.0000
 IR Inten    --     7.2703               161.1949                54.3742
 Raman Activ --     0.0000                 0.0000                 0.0000
 Depolar     --     0.0000                 0.0000                 0.0000
 Atom AN      X      Y      Z        X      Y      Z        X      Y      Z
   1   7    -0.14   0.15  -0.05     0.03  -0.02  -0.01     0.01  -0.02  -0.01
   2   6    -0.04   0.08   0.04     0.00  -0.02   0.05    -0.11  -0.12  -0.04
   3   6     0.38  -0.21  -0.13     0.00  -0.01   0.01    -0.26  -0.07   0.01
   4   6     0.14  -0.42   0.01    -0.03   0.03  -0.14    -0.16  -0.12  -0.02
   5   6    -0.21   0.14   0.05    -0.17   0.05  -0.51     0.21  -0.01   0.04
   6   8     0.12   0.25  -0.04     0.09  -0.03   0.36    -0.00   0.24   0.00
   7   8    -0.36  -0.00   0.11     0.04  -0.02   0.23     0.14  -0.15  -0.08
   8  17     0.00  -0.00  -0.00    -0.00   0.00   0.00     0.00  -0.00  -0.00
   9   1    -0.06   0.05  -0.05     0.01   0.00   0.01    -0.03   0.10   0.06
  10   1     0.02  -0.00  -0.05     0.01  -0.02  -0.01    -0.00   0.05   0.03
  11   1    -0.08   0.08  -0.04     0.01   0.01  -0.01     0.17  -0.05  -0.01
  12   1    -0.03   0.05  -0.01     0.00   0.00   0.03     0.04   0.11   0.38
  13   1    -0.03   0.05  -0.01     0.02  -0.00   0.00     0.24   0.15  -0.25
  14   1     0.09   0.06   0.10     0.01   0.02   0.05    -0.06   0.20   0.35
  15   1     0.30  -0.07  -0.09     0.06  -0.01  -0.01     0.23   0.14  -0.24
  16   1     0.14  -0.21   0.06    -0.07  -0.18   0.15    -0.00  -0.08   0.03
  17   1     0.08  -0.01   0.07     0.15   0.23   0.08    -0.06   0.02   0.04
  18   1     0.10  -0.08   0.10    -0.15   0.04  -0.56    -0.04   0.20   0.03
                     16                     17                     18
                        a                      a                      a 
 Frequencies --   835.0956               850.7792               911.0221
 Red. masses --     8.0958                 6.6174                 4.1242
 Frc consts  --     0.0000                 0.0000                 0.0000
 IR Inten    --    19.0029                 4.8482                11.1695
 Raman Activ --     0.0000                 0.0000                 0.0000
 Depolar     --     0.0000                 0.0000                 0.0000
 Atom AN      X      Y      Z        X      Y      Z        X      Y      Z
   1   7    -0.02  -0.05  -0.00    -0.18   0.12  -0.11    -0.07  -0.20   0.02
   2   6    -0.13  -0.13   0.02     0.03  -0.03  -0.29    -0.09  -0.00   0.11
   3   6     0.13  -0.04  -0.07     0.06  -0.01   0.22     0.20   0.18  -0.08
   4   6     0.23   0.36  -0.10     0.16  -0.17   0.36    -0.16  -0.12  -0.04
   5   6    -0.17   0.03   0.12    -0.10   0.04  -0.31     0.02  -0.09   0.01
   6   8    -0.06  -0.42  -0.05     0.02   0.03   0.06     0.02   0.23   0.01
   7   8    -0.18   0.19   0.06     0.01  -0.02   0.08     0.06  -0.05  -0.03
   8  17     0.00  -0.00  -0.00     0.00  -0.00  -0.00     0.00  -0.00  -0.00
   9   1    -0.11   0.19   0.04    -0.03   0.08   0.09    -0.24   0.35   0.05
  10   1     0.10   0.03  -0.00    -0.20   0.22   0.11     0.27   0.03  -0.03
  11   1     0.22  -0.04  -0.04     0.21  -0.11   0.04     0.38  -0.09  -0.07
  12   1    -0.04   0.15   0.27    -0.03   0.10   0.00    -0.17   0.20  -0.04
  13   1     0.22   0.08  -0.17     0.13   0.01  -0.13     0.17  -0.13   0.10
  14   1     0.14  -0.10   0.11     0.01  -0.05  -0.02     0.01  -0.07  -0.29
  15   1     0.02   0.08  -0.10    -0.13   0.05   0.06    -0.13  -0.11   0.17
  16   1     0.13   0.08  -0.02    -0.11   0.22  -0.12    -0.13  -0.07   0.05
  17   1     0.08   0.10  -0.03     0.16  -0.38  -0.13    -0.15   0.04   0.05
  18   1     0.04  -0.24  -0.02     0.01  -0.00   0.01     0.01   0.04   0.00
                     19                     20                     21
                        a                      a                      a 
 Frequencies --   932.5864              1019.7711              1034.9153
 Red. masses --     4.6962                 7.9609                 9.5247
 Frc consts  --     0.0000                 0.0000                 0.0000
 IR Inten    --    76.4619               220.9034               125.6045
 Raman Activ --     0.0000                 0.0000                 0.0000
 Depolar     --     0.0000                 0.0000                 0.0000
 Atom AN      X      Y      Z        X      Y      Z        X      Y      Z
   1   7    -0.11   0.09  -0.25     0.16  -0.25  -0.05    -0.38   0.20   0.17
   2   6     0.09   0.02  -0.04    -0.19   0.34   0.03     0.50  -0.33  -0.05
   3   6    -0.03  -0.00   0.24    -0.28   0.05   0.03    -0.07  -0.03  -0.03
   4   6    -0.01  -0.01  -0.31     0.14  -0.16   0.06    -0.10   0.02  -0.01
   5   6     0.06  -0.01   0.24     0.07   0.29  -0.06     0.08   0.20  -0.01
   6   8    -0.02  -0.02  -0.05     0.05  -0.32  -0.04     0.07  -0.25  -0.04
   7   8    -0.04   0.02  -0.04    -0.08   0.04   0.04    -0.05   0.05   0.02
   8  17    -0.00   0.00  -0.00    -0.00  -0.00  -0.00     0.00  -0.00  -0.00
   9   1     0.10  -0.07   0.13    -0.02   0.05   0.01    -0.20   0.19  -0.01
  10   1    -0.40   0.31   0.18     0.11  -0.02  -0.01     0.09  -0.00  -0.03
  11   1     0.24  -0.22   0.10     0.18  -0.09  -0.03    -0.07   0.12  -0.04
  12   1     0.03  -0.04  -0.07    -0.12   0.09  -0.16     0.06  -0.02  -0.10
  13   1     0.10  -0.15   0.12    -0.06  -0.03   0.13     0.11  -0.15   0.05
  14   1    -0.01  -0.03   0.02    -0.22   0.26   0.01    -0.15   0.18  -0.07
  15   1     0.07  -0.15   0.18     0.13  -0.08   0.04     0.07  -0.02  -0.03
  16   1     0.08  -0.22   0.10     0.30  -0.03  -0.07     0.09  -0.01  -0.02
  17   1     0.06   0.24   0.07     0.14  -0.08  -0.03    -0.00   0.03   0.00
  18   1     0.00  -0.02  -0.02    -0.06   0.17   0.04    -0.07   0.23   0.03
                     22                     23                     24
                        a                      a                      a 
 Frequencies --  1067.6440              1091.1774              1138.2665
 Red. masses --     6.0040                 5.5526                 8.1930
 Frc consts  --     0.0000                 0.0000                 0.0000
 IR Inten    --    74.8996               164.6890                 2.7739
 Raman Activ --     0.0000                 0.0000                 0.0000
 Depolar     --     0.0000                 0.0000                 0.0000
 Atom AN      X      Y      Z        X      Y      Z        X      Y      Z
   1   7    -0.05  -0.02   0.16    -0.09   0.01  -0.03    -0.06  -0.11   0.02
   2   6     0.09   0.02  -0.23     0.15  -0.03   0.18     0.09   0.26  -0.24
   3   6    -0.23   0.14   0.21    -0.19   0.01  -0.16     0.10  -0.49   0.18
   4   6     0.22  -0.12  -0.21     0.17   0.13   0.11    -0.24   0.36   0.09
   5   6     0.01  -0.13   0.21    -0.09  -0.15  -0.19     0.00  -0.09   0.02
   6   8    -0.11   0.19   0.02    -0.16   0.24   0.09    -0.03   0.06   0.01
   7   8     0.02  -0.06  -0.05     0.13  -0.11  -0.02     0.08  -0.02  -0.03
   8  17     0.00  -0.00   0.00    -0.00  -0.00  -0.00     0.00  -0.00  -0.00
   9   1    -0.10   0.09  -0.05    -0.03   0.04   0.03    -0.09   0.10  -0.00
  10   1     0.19  -0.11  -0.07    -0.04   0.06   0.03     0.13  -0.01  -0.03
  11   1    -0.05   0.10  -0.06     0.08  -0.04   0.01     0.10  -0.00  -0.05
  12   1    -0.02   0.05  -0.09     0.03  -0.05  -0.03    -0.05   0.06  -0.27
  13   1    -0.01   0.02  -0.07     0.03  -0.13   0.16    -0.13   0.07  -0.03
  14   1    -0.13   0.11  -0.01    -0.12   0.17   0.01    -0.01   0.02   0.17
  15   1    -0.12   0.10   0.01     0.15  -0.04  -0.05     0.30  -0.20   0.04
  16   1    -0.07  -0.12   0.07     0.41   0.07  -0.11    -0.14   0.12   0.02
  17   1     0.51   0.02  -0.08    -0.26  -0.05   0.01     0.03   0.05  -0.02
  18   1     0.08  -0.33  -0.07     0.12  -0.47  -0.06     0.01  -0.06  -0.01
                     25                     26                     27
                        a                      a                      a 
 Frequencies --  1179.1874              1206.4259              1226.8517
 Red. masses --     5.5774                 7.7231                 4.5771
 Frc consts  --     0.0000                 0.0000                 0.0000
 IR Inten    --     5.6562               100.3326                87.7669
 Raman Activ --     0.0000                 0.0000                 0.0000
 Depolar     --     0.0000                 0.0000                 0.0000
 Atom AN      X      Y      Z        X      Y      Z        X      Y      Z
   1   7    -0.07  -0.05  -0.13     0.09   0.07  -0.01     0.18   0.17   0.03
   2   6     0.10   0.06   0.40    -0.10  -0.11   0.03    -0.22  -0.22  -0.02
   3   6    -0.03  -0.09  -0.41     0.09  -0.06  -0.05     0.07  -0.01  -0.08
   4   6    -0.02   0.07   0.09    -0.17  -0.07   0.05    -0.10   0.18   0.08
   5   6     0.01  -0.07   0.11     0.34   0.56  -0.01    -0.12  -0.26   0.04
   6   8     0.01   0.01  -0.01    -0.18  -0.12   0.03     0.05   0.07  -0.01
   7   8    -0.01   0.02  -0.01     0.04  -0.12  -0.03     0.04   0.03  -0.01
   8  17    -0.00  -0.00  -0.00    -0.00   0.00   0.00    -0.00   0.00   0.00
   9   1    -0.01   0.03   0.07     0.06  -0.06  -0.02     0.11  -0.11  -0.05
  10   1    -0.09   0.12   0.05    -0.07  -0.02   0.00    -0.11  -0.08  -0.01
  11   1     0.15  -0.11   0.02    -0.09   0.01   0.03    -0.20   0.05   0.07
  12   1     0.07  -0.13   0.01    -0.13   0.13   0.01    -0.23   0.26   0.04
  13   1    -0.10  -0.04   0.19     0.11  -0.04  -0.02     0.31  -0.19   0.02
  14   1    -0.06   0.12  -0.04    -0.07   0.09  -0.08    -0.17   0.19  -0.19
  15   1     0.03   0.10  -0.24     0.04  -0.07   0.03     0.19  -0.22   0.13
  16   1    -0.37   0.10   0.04    -0.28   0.02   0.04     0.11   0.06  -0.03
  17   1     0.45  -0.08  -0.10    -0.03   0.00   0.02     0.29  -0.03  -0.07
  18   1    -0.01   0.03  -0.01     0.10  -0.47  -0.07    -0.03   0.14   0.03
                     28                     29                     30
                        a                      a                      a 
 Frequencies --  1275.5181              1310.9926              1318.3470
 Red. masses --     2.1127                 4.3818                 4.4399
 Frc consts  --     0.0000                 0.0000                 0.0000
 IR Inten    --     5.3098                36.6034                16.1686
 Raman Activ --     0.0000                 0.0000                 0.0000
 Depolar     --     0.0000                 0.0000                 0.0000
 Atom AN      X      Y      Z        X      Y      Z        X      Y      Z
   1   7    -0.08  -0.08  -0.04    -0.09   0.03   0.08     0.07  -0.04  -0.10
   2   6    -0.07  -0.11  -0.00    -0.05   0.14  -0.14     0.11  -0.10   0.18
   3   6     0.17   0.15   0.03    -0.03   0.17  -0.15     0.17  -0.06   0.10
   4   6    -0.09   0.04   0.04    -0.38  -0.04   0.13    -0.42  -0.01   0.01
   5   6     0.02   0.02  -0.00     0.06   0.10  -0.00     0.01   0.03   0.00
   6   8    -0.02  -0.00   0.00    -0.04  -0.01   0.01    -0.02   0.01   0.01
   7   8     0.02  -0.01  -0.01     0.07  -0.05  -0.03     0.09  -0.05  -0.03
   8  17    -0.00  -0.00   0.00     0.00   0.00   0.00     0.00  -0.00  -0.00
   9   1    -0.04   0.03   0.03     0.01  -0.05   0.00    -0.01   0.07   0.02
  10   1     0.01   0.03   0.01     0.12  -0.05  -0.05    -0.11   0.08   0.05
  11   1     0.07  -0.03  -0.03     0.05   0.01  -0.01    -0.04  -0.01  -0.00
  12   1     0.26  -0.30   0.28     0.22  -0.23   0.14    -0.20   0.22  -0.16
  13   1    -0.30   0.35  -0.28     0.18  -0.22   0.15    -0.20   0.22  -0.11
  14   1    -0.19   0.22  -0.30     0.30  -0.33   0.17     0.03  -0.03  -0.04
  15   1     0.14  -0.26   0.26     0.08  -0.12   0.09    -0.26   0.28  -0.16
  16   1     0.10   0.03  -0.03     0.28  -0.03  -0.06     0.46  -0.05  -0.10
  17   1     0.11   0.02  -0.01     0.33  -0.08  -0.07     0.23   0.04  -0.02
  18   1     0.01  -0.04  -0.01     0.02  -0.08  -0.02     0.01  -0.04  -0.01
                     31                     32                     33
                        a                      a                      a 
 Frequencies --  1370.7715              1392.9369              1402.8565
 Red. masses --     4.5182                 2.5075                 1.9852
 Frc consts  --     0.0000                 0.0000                 0.0000
 IR Inten    --     6.0184               196.0128               118.9837
 Raman Activ --     0.0000                 0.0000                 0.0000
 Depolar     --     0.0000                 0.0000                 0.0000
 Atom AN      X      Y      Z        X      Y      Z        X      Y      Z
   1   7     0.08  -0.04  -0.08     0.15  -0.29   0.03    -0.23   0.04  -0.02
   2   6     0.20  -0.20   0.12    -0.05   0.04  -0.06     0.01  -0.12   0.08
   3   6    -0.30   0.29  -0.16     0.01  -0.01  -0.01    -0.04   0.04  -0.02
   4   6     0.08  -0.05   0.06     0.00   0.01   0.01     0.01  -0.01   0.00
   5   6    -0.00   0.00   0.01     0.00   0.01  -0.00    -0.00  -0.01   0.00
   6   8     0.00   0.00  -0.00    -0.00  -0.00  -0.00     0.00   0.00  -0.00
   7   8    -0.01   0.00   0.00    -0.00  -0.00   0.00    -0.00   0.00   0.00
   8  17     0.00  -0.00  -0.00     0.00  -0.00  -0.00    -0.00   0.00  -0.00
   9   1    -0.05   0.17   0.09    -0.12   0.19  -0.00     0.37  -0.51   0.20
  10   1    -0.08   0.01   0.02    -0.10   0.52   0.33     0.47   0.31   0.03
  11   1    -0.14  -0.04   0.06    -0.32   0.43  -0.37     0.19   0.18  -0.24
  12   1    -0.19   0.24  -0.14     0.05  -0.04   0.08    -0.13   0.12  -0.09
  13   1    -0.22   0.21  -0.14     0.05  -0.10   0.07    -0.01   0.08  -0.08
  14   1     0.23  -0.30   0.16     0.00   0.00   0.00     0.01  -0.01   0.01
  15   1     0.30  -0.28   0.17     0.01  -0.02   0.01     0.03  -0.04   0.03
  16   1    -0.09   0.02   0.01    -0.01  -0.00   0.01    -0.01   0.02  -0.01
  17   1     0.05  -0.04  -0.01     0.00  -0.01  -0.01     0.01   0.02   0.01
  18   1     0.00   0.01   0.01     0.00  -0.00   0.00    -0.00   0.01   0.00
                     34                     35                     36
                        a                      a                      a 
 Frequencies --  1426.0593              1429.7819              1482.0862
 Red. masses --     1.8738                 1.7075                 1.8840
 Frc consts  --     0.0000                 0.0000                 0.0000
 IR Inten    --    23.8835                65.5966                 7.2658
 Raman Activ --     0.0000                 0.0000                 0.0000
 Depolar     --     0.0000                 0.0000                 0.0000
 Atom AN      X      Y      Z        X      Y      Z        X      Y      Z
   1   7    -0.01  -0.01  -0.05     0.00   0.03   0.19     0.00  -0.01   0.01
   2   6    -0.01  -0.00   0.01     0.04  -0.05   0.07    -0.13   0.03   0.24
   3   6     0.03   0.00   0.02    -0.03   0.05  -0.05    -0.01   0.02  -0.01
   4   6    -0.02   0.26  -0.03    -0.00   0.05   0.00     0.01  -0.01   0.00
   5   6     0.00   0.05   0.00     0.00   0.01   0.00    -0.01  -0.00   0.00
   6   8     0.00  -0.01  -0.00     0.00  -0.00   0.00     0.00   0.00   0.00
   7   8     0.01  -0.01  -0.01     0.00  -0.00  -0.00     0.01  -0.00  -0.00
   8  17    -0.00   0.00  -0.00     0.00   0.00   0.00     0.00  -0.00  -0.00
   9   1     0.04   0.04   0.16    -0.11  -0.23  -0.67    -0.03   0.05   0.00
  10   1     0.07   0.02  -0.02    -0.29  -0.05   0.07    -0.03   0.01   0.02
  11   1    -0.09  -0.04   0.06     0.41   0.16  -0.26    -0.04   0.02   0.00
  12   1     0.00  -0.01  -0.00    -0.06   0.05  -0.04     0.03  -0.40  -0.55
  13   1    -0.01   0.02  -0.02    -0.05   0.07  -0.04     0.53   0.22  -0.35
  14   1    -0.01   0.00  -0.05     0.04  -0.02   0.05     0.01  -0.00   0.01
  15   1     0.01   0.02  -0.02     0.01  -0.05   0.04     0.00  -0.01   0.01
  16   1     0.06  -0.49   0.46     0.01  -0.11   0.11     0.01   0.01  -0.01
  17   1    -0.12  -0.54  -0.33    -0.01  -0.13  -0.08     0.01   0.01   0.00
  18   1    -0.00   0.00   0.00    -0.00   0.00   0.00    -0.00   0.00  -0.00
                     37                     38                     39
                        a                      a                      a 
 Frequencies --  1498.2577              1698.7431              2943.7708
 Red. masses --     1.9452                13.3418                 1.9244
 Frc consts  --     0.0000                 0.0000                 0.0000
 IR Inten    --     5.5271               674.8633                 8.3193
 Raman Activ --     0.0000                 0.0000                 0.0000
 Depolar     --     0.0000                 0.0000                 0.0000
 Atom AN      X      Y      Z        X      Y      Z        X      Y      Z
   1   7     0.00   0.00  -0.02     0.00  -0.00   0.00    -0.00  -0.00  -0.00
   2   6     0.03  -0.03  -0.00    -0.00  -0.00   0.00    -0.08  -0.08  -0.02
   3   6     0.13  -0.03  -0.26    -0.01   0.00   0.01     0.17   0.19   0.06
   4   6     0.00   0.01  -0.01    -0.07  -0.00   0.02    -0.01  -0.02  -0.05
   5   6    -0.01  -0.02   0.00     0.65  -0.37  -0.23    -0.00  -0.00  -0.00
   6   8     0.00   0.01   0.00    -0.04   0.03   0.01     0.00  -0.00  -0.00
   7   8     0.00   0.00  -0.00    -0.48   0.32   0.18     0.00  -0.00  -0.00
   8  17    -0.00  -0.00  -0.00     0.00   0.00  -0.00    -0.00   0.00   0.00
   9   1     0.00   0.03   0.05    -0.00   0.00  -0.00    -0.01  -0.00   0.00
  10   1     0.01   0.00  -0.00    -0.00   0.00   0.00     0.00   0.00   0.00
  11   1    -0.04  -0.02   0.03    -0.00   0.00  -0.00     0.00  -0.00  -0.00
  12   1    -0.01   0.03  -0.01    -0.01   0.00  -0.02     0.24   0.15  -0.10
  13   1    -0.02   0.01  -0.01     0.00   0.00  -0.01     0.05   0.17   0.19
  14   1     0.02   0.37   0.57    -0.00  -0.00   0.00    -0.50  -0.29   0.21
  15   1    -0.50  -0.23   0.36    -0.01   0.00   0.00    -0.12  -0.39  -0.42
  16   1     0.00  -0.01   0.01     0.05  -0.02  -0.00     0.03   0.12   0.13
  17   1     0.01  -0.01  -0.01     0.02  -0.02  -0.01     0.01  -0.04   0.06
  18   1    -0.00   0.01   0.00     0.01  -0.09  -0.01    -0.00  -0.00  -0.00
                     40                     41                     42
                        a                      a                      a 
 Frequencies --  2950.9811              2960.7127              2971.9411
 Red. masses --     1.9261                 2.0013                 1.5022
 Frc consts  --     0.0000                 0.0000                 0.0000
 IR Inten    --     2.1105                23.8778                14.5947
 Raman Activ --     0.0000                 0.0000                 0.0000
 Depolar     --     0.0000                 0.0000                 0.0000
 Atom AN      X      Y      Z        X      Y      Z        X      Y      Z
   1   7    -0.00   0.00  -0.00     0.00   0.00  -0.00     0.00  -0.00  -0.00
   2   6     0.02   0.03   0.01    -0.17  -0.20  -0.06     0.03  -0.02  -0.06
   3   6    -0.04  -0.02   0.02    -0.09  -0.09  -0.03    -0.09   0.03   0.17
   4   6    -0.05   0.02  -0.28    -0.00   0.02  -0.02     0.00  -0.03   0.04
   5   6     0.00   0.00  -0.01     0.00   0.00  -0.00    -0.00  -0.00   0.00
   6   8    -0.00  -0.00   0.00    -0.00  -0.00  -0.00     0.00   0.00  -0.00
   7   8    -0.00   0.00   0.00    -0.00  -0.00   0.00    -0.00   0.00   0.00
   8  17    -0.00  -0.00  -0.00    -0.00  -0.00   0.00    -0.00  -0.00   0.00
   9   1     0.00   0.00  -0.00    -0.02  -0.01   0.01     0.01   0.00  -0.00
  10   1    -0.00  -0.00   0.00     0.00   0.00   0.00     0.00  -0.00   0.01
  11   1     0.00   0.00   0.00    -0.00  -0.01  -0.01    -0.00  -0.01  -0.00
  12   1    -0.07  -0.04   0.03     0.51   0.31  -0.20    -0.19  -0.12   0.06
  13   1    -0.02  -0.07  -0.07     0.11   0.39   0.42     0.07   0.19   0.19
  14   1     0.15   0.09  -0.06     0.24   0.14  -0.10     0.49   0.32  -0.17
  15   1    -0.01  -0.03  -0.02     0.06   0.18   0.19    -0.17  -0.44  -0.44
  16   1     0.09   0.34   0.33    -0.01  -0.03  -0.04     0.01   0.03   0.04
  17   1     0.09  -0.42   0.67     0.01  -0.06   0.10    -0.02   0.10  -0.16
  18   1    -0.00   0.00   0.00     0.00   0.00  -0.00    -0.00  -0.00   0.00
                     43                     44                     45
                        a                      a                      a 
 Frequencies --  2977.0750              2985.2306              3141.8167
 Red. masses --     1.5663                 1.5318                 1.9219
 Frc consts  --     0.0000                 0.0000                 0.0000
 IR Inten    --    14.7232                35.0725               514.2699
 Raman Activ --     0.0000                 0.0000                 0.0000
 Depolar     --     0.0000                 0.0000                 0.0000
 Atom AN      X      Y      Z        X      Y      Z        X      Y      Z
   1   7     0.00  -0.00   0.00    -0.00  -0.00   0.01    -0.20  -0.15   0.08
   2   6     0.02   0.00  -0.02     0.09  -0.03  -0.17    -0.01  -0.00   0.01
   3   6     0.02   0.04   0.03     0.04  -0.02  -0.08    -0.00  -0.00   0.00
   4   6     0.03   0.21   0.05    -0.01  -0.01  -0.03     0.00   0.00   0.00
   5   6     0.00   0.01   0.00    -0.00  -0.00  -0.00    -0.00   0.00   0.00
   6   8    -0.00  -0.00  -0.00     0.00   0.00   0.00     0.00   0.00   0.00
   7   8    -0.00  -0.00   0.00     0.00   0.00   0.00     0.00  -0.00  -0.00
   8  17     0.00   0.00   0.00     0.00   0.00  -0.00     0.00   0.00  -0.00
   9   1     0.00   0.00  -0.00     0.03   0.02  -0.01     0.77   0.48  -0.29
  10   1     0.00   0.00  -0.00     0.00   0.00  -0.00    -0.04   0.03  -0.08
  11   1     0.00  -0.00  -0.00    -0.00  -0.01  -0.01     0.00   0.05   0.07
  12   1    -0.09  -0.06   0.03    -0.49  -0.32   0.16     0.04   0.02  -0.01
  13   1     0.02   0.04   0.04     0.16   0.45   0.45    -0.00  -0.00  -0.00
  14   1    -0.03  -0.01   0.01    -0.20  -0.13   0.07     0.01   0.00  -0.00
  15   1    -0.04  -0.11  -0.12     0.07   0.19   0.19    -0.00  -0.00  -0.00
  16   1    -0.16  -0.53  -0.60     0.02   0.07   0.07    -0.00  -0.00  -0.00
  17   1     0.06  -0.23   0.43     0.00  -0.02   0.02     0.00  -0.00   0.00
  18   1     0.00   0.00  -0.00    -0.00  -0.00   0.00    -0.00  -0.00   0.00
                     46                     47                     48
                        a                      a                      a 
 Frequencies --  3247.0402              3263.7116              3473.9477
 Red. masses --     2.0139                 1.4886                 1.8633
 Frc consts  --     0.0000                 0.0000                 0.0000
 IR Inten    --   171.3529                81.6583               212.5910
 Raman Activ --     0.0000                 0.0000                 0.0000
 Depolar     --     0.0000                 0.0000                 0.0000
 Atom AN      X      Y      Z        X      Y      Z        X      Y      Z
   1   7     0.08  -0.01   0.27     0.01  -0.18  -0.05     0.00  -0.00   0.00
   2   6     0.00   0.00   0.01     0.00  -0.01  -0.01    -0.00  -0.00   0.00
   3   6    -0.00   0.00   0.00    -0.00   0.00   0.00    -0.00  -0.00  -0.00
   4   6    -0.00  -0.00  -0.00    -0.00   0.00  -0.00    -0.00  -0.00   0.00
   5   6     0.00  -0.00  -0.00     0.00  -0.00   0.00     0.00   0.01   0.00
   6   8    -0.00  -0.00   0.00    -0.00   0.00  -0.00     0.22   0.07  -0.06
   7   8     0.00  -0.00  -0.00    -0.00   0.00   0.00     0.00  -0.00  -0.00
   8  17     0.00   0.00  -0.00     0.00   0.00  -0.00     0.00  -0.00  -0.00
   9   1    -0.02  -0.02   0.04    -0.11  -0.08   0.04    -0.00  -0.00   0.00
  10   1    -0.17   0.38  -0.73    -0.10   0.20  -0.42    -0.00   0.00  -0.00
  11   1    -0.10  -0.33  -0.30     0.18   0.58   0.59    -0.00   0.00   0.00
  12   1     0.00   0.00  -0.00    -0.01  -0.00   0.00     0.00   0.00  -0.00
  13   1    -0.00  -0.01  -0.01     0.00   0.02   0.01     0.00  -0.00  -0.00
  14   1     0.00   0.00  -0.00     0.00   0.00  -0.00    -0.00  -0.00   0.00
  15   1    -0.00  -0.00  -0.01     0.00   0.00   0.00     0.00   0.00   0.00
  16   1     0.00   0.00   0.00     0.00   0.00   0.00    -0.00  -0.00  -0.00
  17   1    -0.00   0.00  -0.00    -0.00   0.00  -0.00     0.00  -0.00   0.00
  18   1     0.00   0.00  -0.00     0.00   0.00   0.00    -0.89  -0.31   0.22
