 Entering Gaussian System
 *********************************************
 Gaussian 98:
 frequency output generated by the xtb code
 *********************************************
                         Standard orientation:
 --------------------------------------------------------------------
  Center     Atomic     Atomic              Coordinates (Angstroms)
  Number     Number      Type              X           Y           Z
 --------------------------------------------------------------------
    1          7             0       -3.755776   -1.224690    0.152315
    2          6             0       -3.304390    0.173017   -0.118859
    3          6             0       -1.842377    0.417990    0.245136
    4          6             0       -0.857124   -0.380297   -0.611106
    5          6             0        0.575009   -0.080794   -0.284832
    6          6             0        1.245942    0.969512   -0.918696
    7          6             0        2.563725    1.270456   -0.591661
    8          6             0        3.226924    0.528634    0.378558
    9          6             0        2.569551   -0.512592    1.022662
   10          6             0        1.251608   -0.813095    0.695227
   11          1             0       -3.606704   -1.469949    1.137395
   12          1             0       -3.240552   -1.900894   -0.422575
   13          1             0       -4.754518   -1.340555   -0.054111
   14          1             0       -3.949014    0.865002    0.436792
   15          1             0       -3.464852    0.405126   -1.177679
   16          1             0       -1.682085    0.176661    1.301006
   17          1             0       -1.606782    1.484939    0.155453
   18          1             0       -1.036057   -0.178438   -1.672096
   19          1             0       -1.034389   -1.451996   -0.484444
   20          1             0        0.732082    1.547933   -1.666765
   21          1             0        3.070517    2.080062   -1.090164
   22          1             0        4.248037    0.761599    0.632044
   23          1             0        3.080861   -1.086863    1.777371
   24          1             0        0.742116   -1.616412    1.198550
 --------------------------------------------------------------------
     1 basis functions        1 primitive gaussians
     1 alpha electrons        1 beta electrons

 Harmonic frequencies (cm**-1), IR intensities (km*mol⁻¹),
 Raman scattering activities (A**4/amu), Raman depolarization ratios,
 reduced masses (AMU), force constants (mDyne/A) and normal coordinates:
                      1                      2                      3
                        a                      a                      a 
 Frequencies --    54.9210                76.0474                93.4781
 Red. masses --     8.6305                 9.3142                 4.1679
 Frc consts  --     0.0000                 0.0000                 0.0000
 IR Inten    --     3.6138                16.1560                 2.7436
 Raman Activ --     0.0000                 0.0000                 0.0000
 Depolar     --     0.0000                 0.0000                 0.0000
 Atom AN      X      Y      Z        X      Y      Z        X      Y      Z
   1   7    -0.13   0.18  -0.03     0.19  -0.03   0.49     0.15   0.08  -0.17
   2   6     0.01   0.08  -0.25    -0.01  -0.08  -0.11     0.04   0.16   0.12
   3   6    -0.02   0.06  -0.09     0.01   0.19  -0.36     0.10   0.07  -0.07
   4   6     0.02  -0.27   0.27     0.01   0.04  -0.21    -0.02  -0.20   0.05
   5   6     0.02  -0.14   0.16    -0.01  -0.01  -0.11    -0.01  -0.16  -0.02
   6   6    -0.19   0.03   0.21     0.01   0.10   0.08    -0.10  -0.11  -0.02
   7   6    -0.19   0.15   0.08    -0.02   0.09   0.22    -0.14   0.03   0.01
   8   6     0.03   0.10  -0.12    -0.07  -0.03   0.16    -0.10   0.13   0.05
   9   6     0.25  -0.07  -0.17    -0.09  -0.14  -0.04    -0.00   0.05   0.03
  10   6     0.24  -0.18  -0.03    -0.06  -0.13  -0.17     0.04  -0.09   0.00
  11   1    -0.16   0.13   0.03     0.16   0.08   0.14     0.44  -0.17  -0.15
  12   1     0.03   0.00   0.11     0.00  -0.05   0.13    -0.25   0.10  -0.39
  13   1    -0.01   0.04  -0.12     0.03  -0.04   0.25    -0.05   0.12   0.36
  14   1    -0.01   0.07  -0.14    -0.00   0.02  -0.08     0.05   0.00   0.13
  15   1     0.05  -0.03  -0.09    -0.05  -0.14  -0.05    -0.06   0.13   0.06
  16   1    -0.06   0.10  -0.00     0.04   0.15  -0.09     0.04   0.07  -0.01
  17   1     0.02   0.00  -0.10    -0.03   0.05  -0.20     0.06   0.01  -0.08
  18   1     0.02  -0.20   0.05     0.03  -0.02  -0.07    -0.01  -0.12   0.00
  19   1     0.01  -0.06   0.20    -0.02   0.02  -0.03    -0.02  -0.04   0.09
  20   1    -0.11   0.02   0.11     0.01   0.06   0.04    -0.04  -0.05  -0.01
  21   1    -0.11   0.08   0.04    -0.00   0.05   0.11    -0.06   0.02   0.01
  22   1     0.01   0.05  -0.07    -0.03  -0.01   0.08    -0.04   0.07   0.03
  23   1     0.12  -0.03  -0.09    -0.04  -0.07  -0.02     0.01   0.04   0.02
  24   1     0.12  -0.09  -0.02    -0.02  -0.06  -0.09     0.03  -0.04   0.00
                      4                      5                      6
                        a                      a                      a 
 Frequencies --   110.1087               167.1234               264.7453
 Red. masses --     9.2612                 7.8575                 9.5371
 Frc consts  --     0.0000                 0.0000                 0.0000
 IR Inten    --     7.4365                21.0383                 4.7964
 Raman Activ --     0.0000                 0.0000                 0.0000
 Depolar     --     0.0000                 0.0000                 0.0000
 Atom AN      X      Y      Z        X      Y      Z        X      Y      Z
   1   7     0.22  -0.23  -0.13    -0.51   0.04   0.14    -0.22  -0.13  -0.05
   2   6    -0.16  -0.10  -0.12    -0.10  -0.13  -0.16    -0.25  -0.05   0.13
   3   6    -0.23   0.28  -0.07    -0.10  -0.25  -0.05    -0.22   0.23   0.00
   4   6    -0.07   0.17   0.23     0.10   0.01  -0.07    -0.07   0.14   0.19
   5   6    -0.06   0.18   0.23     0.08   0.11   0.05     0.08  -0.03  -0.08
   6   6    -0.02   0.10   0.15     0.11   0.11   0.08     0.24  -0.19  -0.21
   7   6     0.09  -0.11  -0.08     0.15   0.04   0.02     0.17  -0.04  -0.00
   8   6     0.15  -0.24  -0.22     0.18  -0.02  -0.05     0.05   0.23   0.28
   9   6     0.08  -0.10  -0.07     0.13   0.02  -0.02     0.14  -0.02  -0.04
  10   6    -0.03   0.11   0.16     0.10   0.10   0.04     0.21  -0.16  -0.24
  11   1     0.20  -0.09  -0.06     0.10  -0.03  -0.01    -0.10  -0.07  -0.01
  12   1     0.01  -0.01  -0.13    -0.39  -0.05  -0.12    -0.03  -0.01  -0.02
  13   1     0.04  -0.10   0.10    -0.21   0.15   0.32    -0.05  -0.03  -0.05
  14   1    -0.10  -0.07  -0.04     0.00   0.03  -0.09    -0.08  -0.05   0.07
  15   1    -0.05  -0.04  -0.04    -0.00  -0.09  -0.06    -0.11   0.02   0.05
  16   1    -0.08   0.17   0.00    -0.06  -0.12  -0.02    -0.05   0.16   0.02
  17   1    -0.12   0.08  -0.10    -0.03  -0.06   0.05    -0.13   0.07  -0.09
  18   1     0.01  -0.01   0.05     0.05   0.05  -0.02    -0.03  -0.02   0.04
  19   1    -0.02   0.06   0.12     0.05  -0.01  -0.08    -0.03   0.05   0.11
  20   1    -0.01   0.05   0.07     0.03   0.04   0.03     0.10  -0.08  -0.10
  21   1     0.04  -0.06  -0.05     0.05   0.01   0.00     0.04  -0.01  -0.00
  22   1     0.07  -0.13  -0.13     0.06  -0.03  -0.03    -0.03   0.15   0.18
  23   1     0.03  -0.05  -0.05     0.04  -0.01  -0.01     0.03  -0.01  -0.01
  24   1    -0.02   0.06   0.07     0.03   0.03   0.02     0.08  -0.08  -0.10
                      7                      8                      9
                        a                      a                      a 
 Frequencies --   279.5927               335.1500               380.3889
 Red. masses --     7.2085                 8.0667                 8.6847
 Frc consts  --     0.0000                 0.0000                 0.0000
 IR Inten    --     2.0022                 0.2988                 0.0059
 Raman Activ --     0.0000                 0.0000                 0.0000
 Depolar     --     0.0000                 0.0000                 0.0000
 Atom AN      X      Y      Z        X      Y      Z        X      Y      Z
   1   7     0.20   0.06   0.06    -0.02  -0.01  -0.01    -0.00  -0.00  -0.00
   2   6     0.14  -0.02  -0.38     0.11  -0.05  -0.02     0.01  -0.01   0.00
   3   6    -0.08  -0.01   0.38     0.06  -0.05   0.13     0.01   0.00   0.01
   4   6    -0.08   0.21   0.19     0.01  -0.31   0.32     0.00   0.00   0.00
   5   6    -0.02  -0.03   0.00    -0.00   0.25  -0.24     0.00   0.00  -0.00
   6   6    -0.01  -0.12  -0.12     0.10   0.25  -0.16     0.13  -0.26  -0.30
   7   6    -0.05  -0.03  -0.06     0.13   0.02   0.05    -0.13   0.26   0.29
   8   6    -0.12   0.10   0.09    -0.04  -0.12   0.07    -0.00  -0.00  -0.00
   9   6    -0.03  -0.04  -0.05    -0.19  -0.07  -0.01     0.13  -0.27  -0.29
  10   6     0.01  -0.14  -0.11    -0.16   0.17  -0.22    -0.14   0.27   0.29
  11   1     0.20   0.08   0.01    -0.00  -0.01  -0.01    -0.00  -0.00  -0.00
  12   1    -0.03  -0.03  -0.01    -0.04  -0.02  -0.01    -0.00  -0.00  -0.00
  13   1     0.02   0.01   0.17    -0.01   0.04   0.01    -0.00   0.00   0.00
  14   1    -0.07   0.05  -0.30     0.01   0.01  -0.05     0.00  -0.00  -0.00
  15   1     0.21  -0.14  -0.16     0.08  -0.03  -0.02     0.01  -0.00  -0.00
  16   1    -0.13  -0.14   0.09    -0.01   0.05   0.06     0.00   0.00   0.00
  17   1     0.01   0.00   0.26     0.04  -0.03  -0.03     0.00   0.00   0.00
  18   1    -0.05   0.16   0.08    -0.13  -0.32   0.07     0.00   0.00   0.00
  19   1    -0.05   0.05  -0.04     0.12  -0.08   0.34    -0.00   0.00   0.00
  20   1    -0.00  -0.06  -0.05     0.07   0.11  -0.05     0.09  -0.17  -0.20
  21   1    -0.01  -0.01  -0.02     0.09  -0.01   0.05    -0.09   0.17   0.19
  22   1    -0.06   0.08   0.07    -0.01  -0.07   0.05    -0.00  -0.00  -0.00
  23   1     0.00  -0.01  -0.02    -0.11  -0.05   0.00     0.09  -0.17  -0.19
  24   1     0.01  -0.06  -0.05    -0.10   0.06  -0.10    -0.09   0.18   0.19
                     10                     11                     12
                        a                      a                      a 
 Frequencies --   416.8576               482.4292               567.1657
 Red. masses --     8.4893                 9.3257                10.2108
 Frc consts  --     0.0000                 0.0000                 0.0000
 IR Inten    --    17.3150                 2.7872                 3.2621
 Raman Activ --     0.0000                 0.0000                 0.0000
 Depolar     --     0.0000                 0.0000                 0.0000
 Atom AN      X      Y      Z        X      Y      Z        X      Y      Z
   1   7    -0.26  -0.17  -0.06    -0.02  -0.04  -0.01     0.01  -0.02  -0.02
   2   6     0.38  -0.27   0.06    -0.03  -0.02  -0.02     0.20  -0.06   0.02
   3   6     0.29   0.31   0.06    -0.06   0.14   0.14     0.10   0.05   0.04
   4   6     0.11   0.22   0.05    -0.20   0.02   0.00    -0.35  -0.12  -0.16
   5   6     0.07  -0.03   0.03     0.05  -0.39  -0.42    -0.40   0.02   0.04
   6   6    -0.09   0.01  -0.02     0.05  -0.08   0.05    -0.04  -0.10   0.24
   7   6    -0.11   0.03  -0.06    -0.01   0.12   0.25     0.09  -0.23   0.06
   8   6    -0.17  -0.04  -0.07     0.30  -0.18  -0.20     0.31   0.20   0.21
   9   6    -0.08  -0.04   0.02    -0.01   0.23   0.14     0.07   0.09  -0.25
  10   6    -0.06  -0.09   0.06     0.05   0.05  -0.07    -0.06   0.23  -0.07
  11   1    -0.16  -0.12  -0.02    -0.00  -0.01  -0.00    -0.04  -0.03  -0.01
  12   1    -0.21  -0.13  -0.04    -0.01  -0.01  -0.01    -0.05  -0.04  -0.01
  13   1    -0.09   0.18  -0.05    -0.01  -0.00   0.00    -0.00   0.09  -0.02
  14   1     0.07  -0.05  -0.06    -0.06  -0.01  -0.06     0.02  -0.00  -0.06
  15   1     0.18  -0.11  -0.00     0.05  -0.04  -0.02     0.13  -0.05  -0.01
  16   1     0.16   0.23   0.03    -0.02   0.05   0.04     0.09   0.05   0.01
  17   1    -0.03   0.10  -0.13    -0.03   0.04   0.03     0.04   0.01  -0.05
  18   1     0.03   0.08   0.02    -0.12   0.02   0.01    -0.11  -0.01  -0.04
  19   1    -0.04   0.08   0.01    -0.12   0.02   0.01    -0.11  -0.03  -0.04
  20   1    -0.06  -0.01   0.01    -0.00   0.09   0.12     0.09  -0.03   0.00
  21   1    -0.02   0.01  -0.01    -0.09   0.15   0.18    -0.02  -0.11  -0.11
  22   1    -0.05  -0.01  -0.02     0.10  -0.08  -0.09     0.09   0.05   0.05
  23   1    -0.00   0.01   0.01    -0.09   0.16   0.17    -0.02  -0.09  -0.13
  24   1    -0.04  -0.02   0.01    -0.00   0.10   0.11     0.08   0.00  -0.02
                     13                     14                     15
                        a                      a                      a 
 Frequencies --   590.4108               671.1288               739.0303
 Red. masses --    11.1443                 8.6036                 5.3810
 Frc consts  --     0.0000                 0.0000                 0.0000
 IR Inten    --     0.0304                 5.2454                23.2826
 Raman Activ --     0.0000                 0.0000                 0.0000
 Depolar     --     0.0000                 0.0000                 0.0000
 Atom AN      X      Y      Z        X      Y      Z        X      Y      Z
   1   7    -0.00  -0.00  -0.00    -0.01  -0.01   0.00     0.03   0.03  -0.00
   2   6     0.01  -0.00  -0.00    -0.05   0.01  -0.01     0.08  -0.03   0.00
   3   6     0.01   0.02  -0.01    -0.02   0.02   0.02     0.02  -0.08  -0.09
   4   6    -0.01   0.05  -0.05     0.02   0.01   0.01     0.02   0.03   0.04
   5   6    -0.01   0.12  -0.11     0.18  -0.26  -0.29    -0.18   0.26   0.28
   6   6    -0.32   0.14  -0.26    -0.07   0.20   0.17     0.03  -0.20  -0.13
   7   6    -0.33  -0.33   0.14     0.13  -0.20  -0.29    -0.02  -0.12   0.00
   8   6     0.01  -0.13   0.13    -0.14   0.16   0.18     0.14  -0.11  -0.12
   9   6     0.34  -0.17   0.30     0.13  -0.27  -0.23    -0.02   0.01  -0.12
  10   6     0.31   0.29  -0.11    -0.07   0.14   0.22     0.04  -0.11  -0.22
  11   1    -0.00  -0.00  -0.00     0.01   0.01   0.00    -0.01   0.01   0.00
  12   1    -0.00  -0.00   0.00     0.01   0.00   0.00    -0.02  -0.02   0.01
  13   1    -0.00   0.00  -0.00    -0.00  -0.02   0.01     0.00   0.05  -0.01
  14   1     0.00  -0.00  -0.00    -0.02  -0.00  -0.00     0.05  -0.01   0.04
  15   1     0.00  -0.00  -0.00    -0.02   0.00  -0.00    -0.01   0.02   0.01
  16   1     0.01  -0.00  -0.01    -0.02  -0.00   0.01     0.01  -0.02  -0.02
  17   1    -0.00   0.01   0.00    -0.01   0.01   0.02     0.00  -0.02  -0.02
  18   1     0.00   0.04  -0.01    -0.02  -0.00   0.00     0.06   0.00   0.00
  19   1    -0.01   0.01  -0.04    -0.02   0.01   0.01     0.05   0.00   0.00
  20   1    -0.03   0.07  -0.08    -0.11   0.21   0.22    -0.08   0.16   0.20
  21   1    -0.04  -0.11   0.07    -0.00   0.05   0.04    -0.16   0.22   0.25
  22   1     0.00   0.08  -0.07    -0.11   0.19   0.21    -0.11   0.26   0.29
  23   1     0.04  -0.08   0.09     0.00   0.04   0.05    -0.16   0.23   0.24
  24   1     0.04   0.09  -0.06    -0.11   0.20   0.23    -0.09   0.19   0.19
                     16                     17                     18
                        a                      a                      a 
 Frequencies --   778.3307               816.7376               836.8232
 Red. masses --     3.0551                 5.1285                 7.3659
 Frc consts  --     0.0000                 0.0000                 0.0000
 IR Inten    --    22.7251                19.7465                25.8015
 Raman Activ --     0.0000                 0.0000                 0.0000
 Depolar     --     0.0000                 0.0000                 0.0000
 Atom AN      X      Y      Z        X      Y      Z        X      Y      Z
   1   7     0.01  -0.12   0.01    -0.03  -0.03   0.10    -0.11  -0.01   0.09
   2   6     0.07  -0.01  -0.10    -0.06   0.08   0.15    -0.14   0.08   0.08
   3   6     0.06   0.19  -0.15     0.01   0.13  -0.00     0.07   0.00  -0.02
   4   6     0.06   0.22  -0.06    -0.21  -0.06  -0.29     0.41   0.12   0.08
   5   6    -0.00  -0.04  -0.03    -0.06   0.09   0.10     0.10  -0.05  -0.05
   6   6    -0.04  -0.07   0.05     0.08   0.04  -0.04    -0.12  -0.09   0.06
   7   6    -0.06  -0.08   0.04     0.10   0.15  -0.10    -0.18  -0.24   0.15
   8   6     0.05   0.03   0.02    -0.12  -0.06  -0.07     0.18   0.07   0.07
   9   6    -0.03   0.05  -0.04     0.14  -0.12   0.16    -0.17   0.16  -0.23
  10   6    -0.03   0.01   0.01     0.09  -0.08   0.08    -0.11   0.05  -0.09
  11   1    -0.05   0.06   0.04    -0.06  -0.32  -0.04     0.01  -0.25  -0.04
  12   1    -0.11  -0.18   0.08     0.07   0.22  -0.17     0.15   0.28  -0.15
  13   1    -0.02   0.10   0.02     0.02  -0.02  -0.10     0.01  -0.18  -0.06
  14   1     0.08  -0.10   0.17    -0.14   0.15  -0.27    -0.06   0.16  -0.18
  15   1    -0.18   0.11   0.03     0.19  -0.26  -0.05     0.07  -0.19  -0.04
  16   1    -0.06  -0.41  -0.13     0.10  -0.16  -0.06     0.02  -0.02  -0.01
  17   1     0.03   0.09   0.44     0.03   0.04   0.16    -0.00   0.01   0.03
  18   1     0.03  -0.32  -0.09    -0.04  -0.24  -0.12     0.16  -0.02   0.00
  19   1    -0.04   0.12   0.38    -0.06   0.01   0.15     0.15   0.03   0.06
  20   1    -0.02  -0.03   0.01    -0.01   0.01   0.01    -0.02  -0.03   0.01
  21   1    -0.04  -0.02  -0.02     0.06   0.06   0.04    -0.11  -0.07  -0.03
  22   1     0.03  -0.01  -0.03    -0.06   0.05   0.04     0.07  -0.02  -0.03
  23   1    -0.01  -0.02  -0.04     0.08   0.04   0.07    -0.11  -0.01  -0.06
  24   1     0.02  -0.03  -0.01     0.02  -0.01   0.03    -0.02   0.02  -0.01
                     19                     20                     21
                        a                      a                      a 
 Frequencies --   864.8871               880.4443               890.4997
 Red. masses --     3.3835                 3.9695                 6.1524
 Frc consts  --     0.0000                 0.0000                 0.0000
 IR Inten    --     0.2692                 4.8499                35.1255
 Raman Activ --     0.0000                 0.0000                 0.0000
 Depolar     --     0.0000                 0.0000                 0.0000
 Atom AN      X      Y      Z        X      Y      Z        X      Y      Z
   1   7     0.01  -0.01   0.01    -0.11  -0.10  -0.04     0.29   0.27   0.10
   2   6     0.01   0.00  -0.01    -0.06   0.08  -0.04     0.11  -0.21   0.07
   3   6    -0.00   0.01  -0.02     0.11   0.07   0.07    -0.30  -0.15  -0.16
   4   6    -0.01  -0.00   0.01     0.04  -0.03  -0.03    -0.00   0.08   0.13
   5   6    -0.00   0.00   0.00     0.02  -0.02  -0.02     0.05  -0.08  -0.08
   6   6    -0.08   0.15   0.17    -0.09   0.16   0.18    -0.04   0.07   0.07
   7   6    -0.06   0.13   0.13     0.00  -0.03  -0.02    -0.00  -0.03  -0.01
   8   6    -0.01   0.02   0.02     0.10  -0.18  -0.20     0.03  -0.04  -0.05
   9   6     0.06  -0.12  -0.12     0.03  -0.06  -0.09    -0.00  -0.01  -0.04
  10   6     0.10  -0.19  -0.20    -0.07   0.14   0.15    -0.04   0.07   0.08
  11   1    -0.02  -0.02   0.00     0.06   0.10   0.01    -0.18  -0.27  -0.02
  12   1    -0.01  -0.01   0.00     0.03  -0.03   0.04    -0.08   0.08  -0.12
  13   1     0.00   0.02  -0.01    -0.03  -0.17   0.06     0.07   0.46  -0.18
  14   1     0.01  -0.00   0.01    -0.04  -0.00  -0.01     0.11   0.00   0.03
  15   1    -0.01   0.00   0.00     0.02   0.06  -0.01    -0.09  -0.15   0.01
  16   1    -0.02  -0.02  -0.01     0.04   0.01   0.02    -0.16  -0.03  -0.03
  17   1     0.01   0.00   0.01     0.05   0.01   0.02    -0.14  -0.03  -0.03
  18   1    -0.01  -0.00   0.00    -0.00  -0.00  -0.00     0.01   0.04   0.03
  19   1    -0.00  -0.00   0.00    -0.00  -0.01  -0.01     0.01   0.02   0.00
  20   1     0.15  -0.28  -0.32     0.16  -0.30  -0.34     0.06  -0.11  -0.13
  21   1     0.13  -0.25  -0.28    -0.05   0.09   0.10    -0.02   0.03   0.04
  22   1     0.01  -0.03  -0.03    -0.14   0.28   0.31    -0.03   0.06   0.07
  23   1    -0.11   0.22   0.24    -0.09   0.17   0.19    -0.04   0.06   0.06
  24   1    -0.18   0.35   0.38     0.13  -0.26  -0.28     0.06  -0.12  -0.13
                     22                     23                     24
                        a                      a                      a 
 Frequencies --   912.2486               921.7424               924.9494
 Red. masses --     4.3071                 3.2467                 5.9416
 Frc consts  --     0.0000                 0.0000                 0.0000
 IR Inten    --     0.0215                 0.5767                 7.3640
 Raman Activ --     0.0000                 0.0000                 0.0000
 Depolar     --     0.0000                 0.0000                 0.0000
 Atom AN      X      Y      Z        X      Y      Z        X      Y      Z
   1   7     0.00  -0.00   0.01    -0.01   0.03  -0.03     0.00   0.32  -0.17
   2   6    -0.00   0.00  -0.00     0.00  -0.03   0.02     0.01  -0.30   0.16
   3   6    -0.00   0.00  -0.00    -0.01  -0.03   0.02    -0.14  -0.20   0.08
   4   6     0.00  -0.00   0.00    -0.01   0.03  -0.04     0.02   0.24  -0.19
   5   6     0.01  -0.01  -0.01    -0.03   0.06   0.05     0.03  -0.00  -0.05
   6   6    -0.08   0.16   0.18    -0.01   0.02   0.04    -0.02  -0.04   0.05
   7   6     0.09  -0.18  -0.20     0.07  -0.15  -0.17    -0.05  -0.01   0.05
   8   6     0.01  -0.03  -0.03    -0.10   0.20   0.21     0.03  -0.01  -0.05
   9   6    -0.10   0.20   0.22     0.07  -0.12  -0.12     0.01   0.02   0.03
  10   6     0.07  -0.15  -0.16     0.01  -0.01   0.00    -0.00  -0.06   0.04
  11   1    -0.01  -0.01  -0.00     0.03   0.06  -0.00     0.15   0.29  -0.01
  12   1    -0.00   0.00  -0.00     0.01   0.00   0.01     0.07   0.06   0.05
  13   1     0.00   0.01  -0.00    -0.00  -0.03   0.02    -0.00  -0.10   0.09
  14   1     0.00   0.00   0.00    -0.01  -0.01  -0.01    -0.03  -0.05  -0.03
  15   1    -0.01  -0.00  -0.00     0.04   0.01   0.00     0.22   0.03   0.04
  16   1    -0.01  -0.00   0.00     0.05   0.01  -0.00     0.26   0.07   0.00
  17   1     0.01  -0.00   0.00    -0.04   0.00  -0.02    -0.35   0.00  -0.11
  18   1    -0.01   0.00   0.00    -0.01  -0.04  -0.02    -0.06  -0.24  -0.10
  19   1     0.01  -0.00  -0.00     0.02   0.01   0.04     0.11   0.08   0.25
  20   1     0.12  -0.23  -0.26     0.06  -0.11  -0.12    -0.01  -0.03   0.01
  21   1    -0.14   0.28   0.31    -0.16   0.31   0.34    -0.01  -0.06  -0.07
  22   1    -0.02   0.05   0.05     0.19  -0.37  -0.42    -0.03   0.08   0.05
  23   1     0.16  -0.32  -0.35    -0.12   0.26   0.28     0.04  -0.03  -0.04
  24   1    -0.11   0.21   0.23     0.04  -0.07  -0.07     0.01  -0.00   0.05
                     25                     26                     27
                        a                      a                      a 
 Frequencies --   975.3210               989.2878              1046.1857
 Red. masses --     8.6049                 8.0094                 8.1476
 Frc consts  --     0.0000                 0.0000                 0.0000
 IR Inten    --    11.6900                17.0803                11.6108
 Raman Activ --     0.0000                 0.0000                 0.0000
 Depolar     --     0.0000                 0.0000                 0.0000
 Atom AN      X      Y      Z        X      Y      Z        X      Y      Z
   1   7     0.16  -0.03  -0.06    -0.17   0.02   0.07    -0.03   0.34  -0.09
   2   6    -0.17   0.07   0.10     0.22  -0.07  -0.12    -0.16  -0.49   0.07
   3   6    -0.10   0.11   0.13     0.08  -0.11  -0.13     0.16   0.27  -0.03
   4   6     0.08  -0.18  -0.17    -0.26   0.13   0.12     0.01  -0.25   0.11
   5   6     0.13   0.05   0.06     0.01   0.00  -0.00    -0.02  -0.06   0.10
   6   6    -0.14   0.25  -0.30    -0.12   0.25  -0.28    -0.03   0.08  -0.09
   7   6    -0.05  -0.13   0.08     0.02  -0.03   0.03     0.05   0.06  -0.04
   8   6     0.29   0.07   0.08     0.25   0.06   0.06     0.01  -0.05   0.05
   9   6    -0.05   0.10  -0.12     0.02   0.04  -0.02    -0.03   0.03  -0.04
  10   6    -0.13  -0.32   0.21    -0.12  -0.31   0.23     0.03   0.08  -0.07
  11   1    -0.07   0.08   0.02     0.07  -0.08  -0.02     0.08   0.13  -0.02
  12   1    -0.15  -0.22   0.06     0.15   0.22  -0.06     0.08   0.15  -0.02
  13   1     0.01   0.25   0.00    -0.01  -0.26  -0.00     0.00  -0.07   0.01
  14   1    -0.26  -0.08  -0.09     0.29   0.08   0.11    -0.04  -0.12   0.01
  15   1     0.11  -0.01  -0.00    -0.11   0.01   0.00    -0.08  -0.12   0.03
  16   1     0.03   0.02   0.02    -0.04  -0.02  -0.02     0.05  -0.16  -0.05
  17   1     0.03   0.02   0.02    -0.02  -0.02  -0.02     0.03   0.09   0.21
  18   1     0.05  -0.05  -0.05    -0.15   0.03   0.04     0.25   0.10   0.02
  19   1     0.02  -0.05  -0.07    -0.12   0.04   0.05    -0.27  -0.04  -0.13
  20   1    -0.01   0.10  -0.08     0.01   0.10  -0.09    -0.03   0.01  -0.02
  21   1     0.03  -0.04   0.06     0.07  -0.02   0.05     0.08   0.01   0.03
  22   1     0.08   0.01   0.02     0.07   0.02   0.01     0.00  -0.07   0.07
  23   1     0.03   0.06  -0.03     0.07   0.05  -0.01    -0.08  -0.03   0.00
  24   1    -0.02  -0.08   0.09     0.01  -0.10   0.09     0.02   0.03   0.00
                     28                     29                     30
                        a                      a                      a 
 Frequencies --  1071.4537              1081.0322              1113.3036
 Red. masses --     6.7820                 6.4139                 6.8255
 Frc consts  --     0.0000                 0.0000                 0.0000
 IR Inten    --     0.0171                10.6383                 0.7207
 Raman Activ --     0.0000                 0.0000                 0.0000
 Depolar     --     0.0000                 0.0000                 0.0000
 Atom AN      X      Y      Z        X      Y      Z        X      Y      Z
   1   7     0.01  -0.00  -0.00     0.02   0.17   0.05    -0.08  -0.01   0.10
   2   6    -0.02   0.01   0.00    -0.22  -0.27  -0.21     0.25   0.00  -0.15
   3   6     0.01  -0.01   0.01     0.24   0.13   0.26    -0.27   0.19   0.28
   4   6     0.05   0.02   0.01     0.06  -0.01  -0.22     0.17  -0.19  -0.33
   5   6    -0.02  -0.00  -0.01    -0.02   0.15  -0.05     0.01  -0.01   0.08
   6   6    -0.15  -0.05  -0.02     0.07  -0.09   0.09    -0.11   0.01  -0.07
   7   6     0.05   0.28  -0.23    -0.05  -0.08   0.05     0.05   0.06  -0.04
   8   6     0.42   0.10   0.10    -0.01   0.08  -0.07     0.01  -0.07   0.07
   9   6     0.06  -0.26   0.26     0.05  -0.05   0.06    -0.06   0.04  -0.07
  10   6    -0.16  -0.03  -0.04    -0.06  -0.11   0.07     0.12   0.07  -0.02
  11   1    -0.01  -0.00   0.00    -0.02  -0.07  -0.01     0.01  -0.10  -0.01
  12   1    -0.01  -0.01  -0.00     0.03   0.11  -0.05     0.06   0.10  -0.03
  13   1     0.00   0.01  -0.00     0.01   0.07  -0.05    -0.00  -0.08  -0.02
  14   1    -0.01  -0.00  -0.01     0.01  -0.11   0.08     0.16  -0.04   0.13
  15   1    -0.00  -0.00  -0.00    -0.33  -0.06  -0.01    -0.07   0.12   0.01
  16   1     0.00   0.01   0.00    -0.12   0.13   0.12    -0.22   0.13   0.11
  17   1     0.00  -0.00  -0.00     0.20  -0.00  -0.02    -0.22   0.08   0.05
  18   1     0.00  -0.01   0.00    -0.34  -0.03  -0.00     0.01  -0.10  -0.09
  19   1     0.02   0.00   0.00     0.27  -0.03   0.02     0.10  -0.05  -0.04
  20   1    -0.27  -0.17   0.02     0.09   0.04   0.03    -0.23  -0.12   0.02
  21   1    -0.23   0.14  -0.23    -0.11   0.00  -0.05     0.11   0.00   0.06
  22   1     0.12   0.03   0.03    -0.00   0.13  -0.11     0.00  -0.16   0.16
  23   1    -0.22  -0.24   0.12     0.12   0.07   0.01    -0.14  -0.06   0.00
  24   1    -0.28   0.04  -0.17    -0.09  -0.01  -0.02     0.19  -0.01   0.11
                     31                     32                     33
                        a                      a                      a 
 Frequencies --  1116.8974              1172.7929              1176.5112
 Red. masses --     5.2510                 1.6611                 4.8521
 Frc consts  --     0.0000                 0.0000                 0.0000
 IR Inten    --     2.0513                 0.5866                14.7932
 Raman Activ --     0.0000                 0.0000                 0.0000
 Depolar     --     0.0000                 0.0000                 0.0000
 Atom AN      X      Y      Z        X      Y      Z        X      Y      Z
   1   7    -0.09  -0.01   0.01     0.02  -0.01   0.04     0.08  -0.02   0.18
   2   6     0.27   0.00   0.06    -0.05   0.02  -0.08    -0.18   0.08  -0.35
   3   6    -0.28   0.18   0.02     0.04  -0.04   0.07     0.16  -0.17   0.26
   4   6     0.09  -0.24  -0.05     0.00   0.00  -0.01     0.01   0.01  -0.03
   5   6     0.01   0.05  -0.03    -0.01  -0.07   0.07    -0.03  -0.06   0.07
   6   6     0.17  -0.01   0.08     0.10   0.04   0.01     0.01   0.04  -0.03
   7   6    -0.08  -0.09   0.04     0.01  -0.01   0.01    -0.03   0.01  -0.03
   8   6     0.00   0.10  -0.09    -0.00   0.06  -0.05     0.00  -0.03   0.03
   9   6     0.07  -0.05   0.08    -0.01  -0.01   0.01     0.04   0.03  -0.01
  10   6    -0.16  -0.08  -0.01    -0.10  -0.01  -0.04    -0.02   0.03  -0.04
  11   1     0.05   0.01  -0.00    -0.02  -0.04   0.00    -0.09  -0.18   0.02
  12   1     0.05   0.05   0.00    -0.01   0.01  -0.02    -0.04   0.05  -0.08
  13   1    -0.01  -0.12   0.02     0.01   0.02  -0.02     0.04   0.08  -0.09
  14   1     0.09  -0.00   0.05     0.00  -0.01   0.02     0.01  -0.06   0.07
  15   1     0.11   0.07   0.03    -0.03   0.05  -0.01    -0.12   0.20  -0.04
  16   1    -0.15  -0.02   0.00     0.08   0.03   0.01     0.35   0.09   0.04
  17   1    -0.18   0.08   0.12    -0.06   0.00  -0.03    -0.28   0.02  -0.09
  18   1     0.21  -0.00  -0.03     0.07  -0.02  -0.02     0.27  -0.07  -0.06
  19   1    -0.09  -0.05  -0.10    -0.09   0.02   0.03    -0.35   0.07   0.10
  20   1     0.30   0.17  -0.01    -0.08  -0.07   0.02     0.12   0.09  -0.03
  21   1    -0.17   0.01  -0.08     0.36  -0.08   0.24    -0.06   0.02  -0.04
  22   1    -0.00   0.24  -0.21    -0.00   0.52  -0.47     0.00  -0.11   0.10
  23   1     0.16   0.08   0.00    -0.36  -0.25   0.06     0.10   0.07  -0.02
  24   1    -0.32   0.04  -0.18     0.09  -0.03   0.07    -0.13   0.04  -0.09
                     34                     35                     36
                        a                      a                      a 
 Frequencies --  1186.1509              1231.5621              1241.2394
 Red. masses --     1.8159                 7.9734                 3.2151
 Frc consts  --     0.0000                 0.0000                 0.0000
 IR Inten    --     0.0823                11.8742                19.3134
 Raman Activ --     0.0000                 0.0000                 0.0000
 Depolar     --     0.0000                 0.0000                 0.0000
 Atom AN      X      Y      Z        X      Y      Z        X      Y      Z
   1   7    -0.00  -0.00   0.01     0.01   0.00  -0.02     0.07  -0.06  -0.23
   2   6    -0.01   0.00  -0.01     0.01   0.00   0.01    -0.06   0.09   0.16
   3   6    -0.00   0.00   0.01     0.01  -0.03  -0.01     0.08  -0.07   0.14
   4   6     0.04   0.01   0.01    -0.25  -0.08  -0.10     0.12   0.01  -0.12
   5   6    -0.09  -0.02  -0.03     0.57   0.15   0.18    -0.09  -0.07   0.07
   6   6     0.08   0.08  -0.04     0.18   0.05   0.04     0.00   0.02  -0.02
   7   6    -0.07   0.07  -0.09    -0.13  -0.16   0.08    -0.02   0.04  -0.04
   8   6    -0.02  -0.01  -0.01    -0.07  -0.02  -0.02     0.01  -0.02   0.02
   9   6    -0.07  -0.10   0.06    -0.13   0.10  -0.15     0.06   0.02   0.01
  10   6     0.08  -0.04   0.07     0.19   0.04   0.05    -0.04   0.01  -0.04
  11   1    -0.00  -0.01   0.00    -0.00   0.01  -0.00    -0.00   0.17  -0.01
  12   1     0.00   0.00  -0.00    -0.01  -0.01   0.00    -0.04  -0.17   0.08
  13   1     0.00   0.01  -0.00     0.00  -0.02   0.00    -0.01   0.02   0.08
  14   1    -0.01  -0.01   0.00     0.04   0.04  -0.01     0.30   0.41  -0.07
  15   1     0.00   0.01  -0.00    -0.03  -0.04  -0.00    -0.34  -0.47  -0.02
  16   1     0.01  -0.00   0.00    -0.01  -0.00  -0.00    -0.17   0.13   0.10
  17   1    -0.00   0.00  -0.00    -0.02  -0.00  -0.01    -0.11   0.01  -0.01
  18   1     0.05   0.01  -0.00    -0.25  -0.01   0.01     0.05  -0.05  -0.04
  19   1     0.04   0.00   0.02    -0.28   0.02  -0.00    -0.20   0.06   0.10
  20   1     0.42   0.30  -0.07    -0.10  -0.10   0.04     0.08   0.06  -0.02
  21   1    -0.36   0.09  -0.25    -0.25   0.00  -0.12     0.05  -0.00   0.02
  22   1    -0.00  -0.01   0.00    -0.03  -0.01  -0.00     0.00  -0.02   0.02
  23   1    -0.35  -0.25   0.07    -0.27  -0.12  -0.01     0.00   0.00   0.01
  24   1     0.42  -0.10   0.28    -0.13   0.06  -0.11    -0.03   0.01  -0.01
                     37                     38                     39
                        a                      a                      a 
 Frequencies --  1256.8685              1277.0097              1295.4071
 Red. masses --     3.2406                 7.5431                 5.9109
 Frc consts  --     0.0000                 0.0000                 0.0000
 IR Inten    --     4.6855                 0.1742                 2.8231
 Raman Activ --     0.0000                 0.0000                 0.0000
 Depolar     --     0.0000                 0.0000                 0.0000
 Atom AN      X      Y      Z        X      Y      Z        X      Y      Z
   1   7     0.04  -0.05  -0.02    -0.01  -0.00  -0.00     0.00  -0.02  -0.03
   2   6    -0.06   0.10  -0.04     0.01  -0.00   0.00    -0.01  -0.04  -0.03
   3   6     0.08   0.10  -0.07    -0.01  -0.00   0.00    -0.11   0.01   0.13
   4   6     0.08  -0.22   0.13    -0.01  -0.01   0.02    -0.17   0.02   0.03
   5   6    -0.03   0.17  -0.13     0.01  -0.06   0.06     0.07   0.25  -0.25
   6   6    -0.04  -0.05   0.03     0.36   0.22  -0.03    -0.09  -0.05   0.01
   7   6     0.10  -0.03   0.07    -0.18   0.00  -0.08     0.24  -0.08   0.19
   8   6     0.00   0.05  -0.04     0.00  -0.29   0.27    -0.01   0.09  -0.09
   9   6    -0.09  -0.08   0.03     0.18   0.09   0.00    -0.26  -0.17   0.04
  10   6     0.03  -0.03   0.04    -0.36   0.05  -0.21     0.13  -0.02   0.08
  11   1    -0.02   0.01   0.00     0.01   0.00  -0.00     0.01   0.04   0.00
  12   1    -0.02  -0.05   0.00     0.01   0.00   0.00     0.01  -0.00   0.00
  13   1     0.00   0.04   0.00    -0.00   0.00  -0.00    -0.00   0.02   0.00
  14   1     0.10   0.15  -0.03    -0.00  -0.00  -0.00     0.14   0.09   0.03
  15   1    -0.10  -0.06  -0.02    -0.01  -0.00   0.00    -0.08  -0.07  -0.01
  16   1     0.36  -0.15  -0.11    -0.00   0.00   0.00     0.09   0.03   0.02
  17   1    -0.53   0.17   0.18     0.01  -0.00  -0.00     0.22  -0.06  -0.08
  18   1    -0.30   0.18   0.13     0.02   0.00   0.00     0.46  -0.10  -0.10
  19   1     0.12  -0.09  -0.15    -0.00  -0.00  -0.01    -0.05   0.00  -0.03
  20   1    -0.10  -0.07   0.02    -0.27  -0.19   0.05    -0.21  -0.15   0.03
  21   1    -0.06   0.01  -0.04    -0.24   0.04  -0.15    -0.18   0.03  -0.11
  22   1     0.00   0.05  -0.05    -0.00   0.12  -0.11    -0.00   0.13  -0.12
  23   1     0.08   0.04  -0.01     0.23   0.15  -0.03     0.14   0.09  -0.02
  24   1     0.12  -0.03   0.09     0.26  -0.06   0.18     0.17  -0.03   0.11
                     40                     41                     42
                        a                      a                      a 
 Frequencies --  1299.4723              1331.7803              1364.8441
 Red. masses --     4.1135                 3.6495                 4.6407
 Frc consts  --     0.0000                 0.0000                 0.0000
 IR Inten    --    12.5018                25.4912                65.7135
 Raman Activ --     0.0000                 0.0000                 0.0000
 Depolar     --     0.0000                 0.0000                 0.0000
 Atom AN      X      Y      Z        X      Y      Z        X      Y      Z
   1   7     0.01   0.07   0.03    -0.06   0.19  -0.07    -0.06  -0.16   0.02
   2   6    -0.00   0.03   0.08     0.33   0.22   0.01    -0.09   0.02   0.04
   3   6     0.19  -0.15  -0.12     0.04  -0.08   0.02     0.41  -0.07  -0.07
   4   6     0.27  -0.03  -0.06    -0.13   0.03   0.04    -0.31   0.03   0.03
   5   6    -0.10   0.16  -0.10     0.03  -0.01  -0.01     0.06  -0.01  -0.01
   6   6    -0.08  -0.05   0.00     0.00   0.01  -0.00     0.02   0.02  -0.00
   7   6     0.15  -0.01   0.07     0.00  -0.01   0.01    -0.00  -0.01   0.01
   8   6     0.01   0.04  -0.04    -0.00   0.00  -0.00    -0.01  -0.00  -0.00
   9   6    -0.12  -0.12   0.05    -0.01   0.00  -0.01     0.00   0.02  -0.01
  10   6     0.02  -0.00   0.01     0.01  -0.00   0.01     0.02  -0.01   0.02
  11   1    -0.03  -0.05  -0.00     0.00  -0.17  -0.07     0.12   0.16   0.03
  12   1    -0.05  -0.02  -0.01    -0.03  -0.10   0.13     0.17   0.14  -0.02
  13   1     0.02  -0.10  -0.01    -0.01  -0.20   0.07    -0.03   0.29  -0.04
  14   1    -0.23  -0.16  -0.04    -0.41  -0.39  -0.01    -0.08  -0.01  -0.03
  15   1     0.14   0.08   0.02    -0.41  -0.34  -0.01     0.07   0.05   0.00
  16   1    -0.42   0.10   0.07     0.05  -0.01   0.00    -0.40   0.09   0.09
  17   1    -0.13   0.01   0.01    -0.15   0.01  -0.02    -0.37   0.10   0.10
  18   1    -0.18   0.08   0.04     0.13  -0.04  -0.03     0.26  -0.07  -0.07
  19   1    -0.50   0.11   0.14     0.11  -0.02  -0.04     0.26  -0.06  -0.07
  20   1    -0.08  -0.04   0.01    -0.00  -0.01  -0.00    -0.02  -0.02  -0.00
  21   1    -0.06   0.02  -0.04    -0.01  -0.00  -0.01    -0.02  -0.00  -0.01
  22   1     0.00   0.08  -0.06    -0.00  -0.00  -0.00    -0.00  -0.01  -0.00
  23   1     0.12   0.08  -0.01    -0.01  -0.01  -0.00    -0.02  -0.01  -0.00
  24   1     0.14  -0.02   0.09    -0.01   0.00  -0.01    -0.02   0.00  -0.02
                     43                     44                     45
                        a                      a                      a 
 Frequencies --  1369.5459              1394.3705              1403.0581
 Red. masses --     3.2671                 1.6134                 1.7074
 Frc consts  --     0.0000                 0.0000                 0.0000
 IR Inten    --   234.4859               119.0698               108.8001
 Raman Activ --     0.0000                 0.0000                 0.0000
 Depolar     --     0.0000                 0.0000                 0.0000
 Atom AN      X      Y      Z        X      Y      Z        X      Y      Z
   1   7     0.19   0.24  -0.05    -0.06   0.10   0.16    -0.12   0.12  -0.11
   2   6    -0.16  -0.08  -0.00    -0.05  -0.00   0.03    -0.11  -0.03  -0.03
   3   6     0.16   0.03  -0.02     0.03  -0.00  -0.01     0.01   0.01  -0.01
   4   6    -0.16   0.01   0.02    -0.03   0.01   0.01     0.02   0.01   0.01
   5   6     0.03  -0.00  -0.01     0.00   0.01  -0.01    -0.00  -0.01   0.02
   6   6     0.02   0.01   0.00     0.01  -0.00   0.01    -0.01  -0.00  -0.01
   7   6    -0.02  -0.01   0.00    -0.02  -0.00  -0.00     0.02   0.01   0.00
   8   6    -0.01  -0.00  -0.00    -0.00   0.01  -0.01     0.00  -0.01   0.01
   9   6     0.02   0.02  -0.01     0.02   0.01   0.00    -0.02  -0.01  -0.00
  10   6     0.00  -0.01   0.01    -0.01  -0.01   0.00     0.01   0.01  -0.01
  11   1    -0.38  -0.28  -0.02     0.49   0.01  -0.06     0.32  -0.49  -0.18
  12   1    -0.29  -0.25   0.03    -0.37  -0.25  -0.01     0.32  -0.23   0.57
  13   1     0.03  -0.43   0.21     0.15  -0.18  -0.66    -0.06   0.20   0.09
  14   1     0.15   0.13   0.03     0.05   0.07  -0.00     0.09   0.07   0.03
  15   1     0.19   0.12  -0.00     0.02  -0.03   0.00     0.11   0.07  -0.01
  16   1    -0.17   0.01   0.03    -0.03   0.03   0.01     0.01   0.01   0.00
  17   1    -0.12   0.05   0.03    -0.02   0.01   0.03     0.01   0.00   0.02
  18   1     0.13  -0.05  -0.04     0.03  -0.03  -0.01    -0.03  -0.03  -0.00
  19   1     0.19  -0.04  -0.07     0.05  -0.01  -0.03    -0.05   0.01  -0.02
  20   1    -0.01  -0.01   0.00    -0.00  -0.00   0.00     0.01   0.01  -0.00
  21   1    -0.01  -0.00  -0.00     0.01  -0.00   0.01    -0.00   0.00  -0.00
  22   1    -0.00  -0.01   0.01     0.00  -0.01   0.01     0.00   0.01  -0.01
  23   1    -0.02  -0.02   0.00    -0.01  -0.01   0.00     0.01   0.01  -0.00
  24   1    -0.01  -0.00  -0.01    -0.00  -0.00   0.00    -0.00   0.00  -0.00
                     46                     47                     48
                        a                      a                      a 
 Frequencies --  1425.0331              1464.9768              1477.1640
 Red. masses --     8.4795                 9.0607                 1.8528
 Frc consts  --     0.0000                 0.0000                 0.0000
 IR Inten    --     2.3937                 2.0522                13.1408
 Raman Activ --     0.0000                 0.0000                 0.0000
 Depolar     --     0.0000                 0.0000                 0.0000
 Atom AN      X      Y      Z        X      Y      Z        X      Y      Z
   1   7    -0.01  -0.00  -0.01    -0.00   0.00  -0.00     0.01  -0.01   0.00
   2   6     0.00   0.00  -0.00    -0.00   0.00   0.00     0.17  -0.19   0.11
   3   6    -0.01  -0.01   0.01    -0.00  -0.01  -0.02     0.00   0.01   0.02
   4   6     0.01  -0.05   0.05     0.13   0.02   0.02    -0.01   0.01   0.01
   5   6    -0.00   0.31  -0.28    -0.41  -0.09  -0.10     0.00   0.00  -0.00
   6   6     0.23  -0.05   0.15     0.14   0.22  -0.13     0.00   0.00   0.00
   7   6    -0.30  -0.12  -0.03     0.26  -0.13   0.24    -0.00  -0.00   0.00
   8   6    -0.00   0.27  -0.24    -0.25  -0.06  -0.06     0.00   0.01  -0.00
   9   6     0.30   0.01   0.13     0.26   0.25  -0.11    -0.00  -0.00   0.00
  10   6    -0.23  -0.15   0.03     0.14  -0.15   0.20    -0.00  -0.00  -0.00
  11   1     0.00  -0.01  -0.00     0.01  -0.00  -0.00    -0.00  -0.04  -0.01
  12   1     0.04   0.01   0.02     0.00  -0.00   0.01    -0.01  -0.04   0.03
  13   1    -0.01   0.02   0.02    -0.00   0.00  -0.00     0.00  -0.01   0.00
  14   1    -0.00  -0.01   0.01    -0.01  -0.00  -0.01    -0.18   0.29  -0.59
  15   1     0.00  -0.01  -0.00    -0.00   0.01   0.00    -0.41   0.50   0.18
  16   1    -0.00   0.01   0.01     0.01   0.04   0.01    -0.03  -0.05  -0.01
  17   1     0.01  -0.01  -0.00     0.01  -0.00   0.04    -0.00  -0.01  -0.06
  18   1     0.11   0.01  -0.01     0.03   0.03   0.01     0.02  -0.03  -0.01
  19   1    -0.14   0.01  -0.01     0.03   0.01   0.03    -0.00   0.00  -0.02
  20   1    -0.09  -0.12   0.07    -0.22  -0.11   0.00     0.00   0.00   0.00
  21   1     0.14  -0.09   0.14    -0.22   0.03  -0.13     0.00  -0.00   0.00
  22   1     0.00  -0.28   0.25    -0.08  -0.02  -0.02     0.00  -0.00   0.00
  23   1    -0.13  -0.15   0.08    -0.22  -0.13   0.02    -0.00  -0.00   0.00
  24   1     0.09  -0.08   0.11    -0.22   0.01  -0.11     0.00  -0.00   0.00
                     49                     50                     51
                        a                      a                      a 
 Frequencies --  1496.5599              1502.3364              1564.3619
 Red. masses --     1.8732                 2.1317                11.4035
 Frc consts  --     0.0000                 0.0000                 0.0000
 IR Inten    --     2.3304                 0.8460                 0.0092
 Raman Activ --     0.0000                 0.0000                 0.0000
 Depolar     --     0.0000                 0.0000                 0.0000
 Atom AN      X      Y      Z        X      Y      Z        X      Y      Z
   1   7     0.01   0.01  -0.00    -0.00   0.02  -0.00    -0.00  -0.00  -0.00
   2   6     0.02  -0.02  -0.01     0.01  -0.02  -0.00     0.00  -0.00   0.00
   3   6    -0.07  -0.16  -0.19    -0.05  -0.07  -0.08    -0.00  -0.00   0.00
   4   6     0.02   0.07   0.07    -0.13  -0.18  -0.19     0.00  -0.03   0.03
   5   6     0.01   0.00   0.01     0.05  -0.00  -0.00    -0.01   0.35  -0.32
   6   6    -0.01  -0.01   0.01     0.02   0.00   0.01    -0.13  -0.23   0.15
   7   6    -0.01   0.01  -0.01    -0.03  -0.00  -0.01    -0.12   0.20  -0.24
   8   6     0.01  -0.00   0.00     0.02   0.01   0.00     0.00  -0.41   0.37
   9   6    -0.01  -0.01   0.01    -0.03  -0.02   0.00     0.11   0.25  -0.18
  10   6    -0.01   0.01  -0.01     0.01   0.01   0.00     0.14  -0.17   0.22
  11   1    -0.04   0.00   0.01     0.01  -0.03  -0.01     0.00  -0.00  -0.00
  12   1    -0.01   0.01  -0.02    -0.00  -0.03   0.03     0.01   0.00   0.00
  13   1    -0.00  -0.01   0.02     0.00  -0.01   0.00    -0.00   0.00   0.00
  14   1    -0.02   0.00  -0.04    -0.01   0.02  -0.03    -0.00   0.00  -0.00
  15   1    -0.03   0.03   0.01    -0.02   0.04   0.01    -0.00   0.00   0.00
  16   1     0.17   0.60   0.10     0.08   0.23   0.03    -0.00   0.00   0.00
  17   1     0.12   0.02   0.61     0.06   0.00   0.24     0.00  -0.00  -0.00
  18   1    -0.06  -0.25  -0.04     0.17   0.60   0.08     0.07   0.01  -0.00
  19   1    -0.05  -0.02  -0.25     0.16   0.04   0.59    -0.07   0.01  -0.01
  20   1     0.02   0.01  -0.00    -0.01  -0.01   0.00     0.08   0.02   0.02
  21   1     0.01   0.00   0.00     0.01  -0.00   0.01     0.07   0.03   0.01
  22   1     0.00   0.00  -0.00     0.01   0.00   0.00     0.00   0.10  -0.09
  23   1     0.01   0.01  -0.00     0.01   0.01  -0.00    -0.07  -0.00  -0.03
  24   1     0.02  -0.00   0.01    -0.01   0.00  -0.01    -0.08  -0.02  -0.02
                     52                     53                     54
                        a                      a                      a 
 Frequencies --  1577.0871              2938.0523              2948.9854
 Red. masses --    11.4414                 1.9116                 1.9896
 Frc consts  --     0.0000                 0.0000                 0.0000
 IR Inten    --    12.5290                 5.8113                68.7266
 Raman Activ --     0.0000                 0.0000                 0.0000
 Depolar     --     0.0000                 0.0000                 0.0000
 Atom AN      X      Y      Z        X      Y      Z        X      Y      Z
   1   7    -0.00  -0.00   0.00    -0.00   0.00  -0.00    -0.00   0.00  -0.00
   2   6    -0.00   0.00   0.00    -0.00   0.00  -0.01     0.00  -0.00  -0.04
   3   6     0.01  -0.00  -0.00    -0.01  -0.13   0.10    -0.01  -0.19   0.15
   4   6     0.05   0.02   0.02    -0.00   0.16  -0.17     0.00  -0.12   0.13
   5   6    -0.30  -0.07  -0.07    -0.00   0.01  -0.01     0.00  -0.00   0.00
   6   6     0.42   0.20   0.01     0.00  -0.00   0.00    -0.00   0.00  -0.00
   7   6    -0.39  -0.00  -0.18    -0.00   0.00  -0.00     0.00  -0.00   0.00
   8   6     0.19   0.05   0.04     0.00  -0.00   0.00     0.00   0.00  -0.00
   9   6    -0.40  -0.18  -0.01     0.00   0.00  -0.00    -0.00  -0.00   0.00
  10   6     0.41  -0.00   0.19    -0.00  -0.00   0.00     0.00   0.00  -0.00
  11   1     0.00   0.00   0.00     0.00   0.00   0.00     0.00   0.00  -0.00
  12   1     0.00   0.00  -0.00     0.00  -0.00  -0.00     0.00  -0.00   0.00
  13   1    -0.00   0.00  -0.00     0.00  -0.00  -0.00    -0.00   0.00   0.00
  14   1    -0.00  -0.00   0.00     0.01  -0.01  -0.01    -0.03   0.03   0.02
  15   1     0.00  -0.00  -0.00     0.01  -0.01   0.05     0.02  -0.03   0.14
  16   1    -0.01  -0.00  -0.00    -0.06   0.07  -0.37    -0.08   0.10  -0.48
  17   1    -0.00   0.00  -0.00     0.09   0.41  -0.03     0.13   0.56  -0.04
  18   1     0.00  -0.02  -0.00     0.09  -0.10   0.56    -0.07   0.08  -0.43
  19   1     0.01  -0.00  -0.02    -0.09  -0.51   0.05     0.06   0.33  -0.03
  20   1    -0.08  -0.08   0.03    -0.00   0.00  -0.00     0.00  -0.00   0.00
  21   1     0.07  -0.04   0.07     0.00  -0.00   0.00     0.00   0.00  -0.00
  22   1     0.05   0.01   0.01     0.00  -0.00   0.00    -0.00  -0.00  -0.00
  23   1     0.07   0.07  -0.03    -0.00  -0.00  -0.00    -0.00   0.00  -0.00
  24   1    -0.08   0.04  -0.07     0.00   0.00  -0.00    -0.00  -0.00   0.00
                     55                     56                     57
                        a                      a                      a 
 Frequencies --  2958.1113              2968.3778              2976.0257
 Red. masses --     1.9239                 1.4904                 1.5570
 Frc consts  --     0.0000                 0.0000                 0.0000
 IR Inten    --     2.7955                15.4725                74.5381
 Raman Activ --     0.0000                 0.0000                 0.0000
 Depolar     --     0.0000                 0.0000                 0.0000
 Atom AN      X      Y      Z        X      Y      Z        X      Y      Z
   1   7    -0.00  -0.00   0.00    -0.00  -0.00  -0.00     0.00   0.00   0.00
   2   6     0.11  -0.10  -0.24    -0.02   0.02   0.02     0.03  -0.04  -0.04
   3   6     0.02   0.05   0.02     0.03   0.05   0.09    -0.05  -0.10  -0.14
   4   6    -0.00   0.01  -0.01    -0.05  -0.13  -0.11    -0.03  -0.08  -0.08
   5   6     0.00   0.00  -0.00    -0.00  -0.00  -0.00    -0.00  -0.00  -0.00
   6   6     0.00  -0.00   0.00     0.00  -0.00   0.00     0.00   0.00   0.00
   7   6     0.00   0.00  -0.00    -0.00  -0.00   0.00    -0.00  -0.00   0.00
   8   6     0.00   0.00   0.00    -0.00  -0.00  -0.00    -0.00  -0.00  -0.00
   9   6     0.00   0.00   0.00    -0.00   0.00  -0.00    -0.00   0.00  -0.00
  10   6    -0.00   0.00  -0.00     0.00   0.00  -0.00     0.00   0.00   0.00
  11   1    -0.00   0.00  -0.01     0.00   0.00  -0.00    -0.00  -0.00   0.00
  12   1     0.01  -0.01  -0.01    -0.00   0.01   0.00     0.00  -0.00  -0.00
  13   1     0.00   0.00   0.00     0.01   0.00   0.00    -0.00  -0.00  -0.00
  14   1    -0.45   0.50   0.39     0.07  -0.08  -0.06    -0.13   0.14   0.12
  15   1     0.08  -0.12   0.47    -0.00   0.01  -0.02     0.01  -0.01   0.03
  16   1    -0.02   0.03  -0.11    -0.06   0.10  -0.38     0.08  -0.16   0.56
  17   1    -0.05  -0.23   0.03    -0.06  -0.30   0.04     0.11   0.52  -0.08
  18   1     0.00  -0.01   0.03     0.08  -0.13   0.51     0.05  -0.09   0.33
  19   1    -0.01  -0.04   0.00     0.10   0.62  -0.11     0.06   0.37  -0.07
  20   1    -0.00   0.00  -0.00    -0.00   0.00  -0.00    -0.00   0.00  -0.00
  21   1    -0.00  -0.00  -0.00     0.00   0.00  -0.00     0.00   0.00  -0.00
  22   1    -0.00   0.00  -0.00     0.00   0.00   0.00     0.00   0.00   0.00
  23   1    -0.00   0.00  -0.00     0.00  -0.00   0.00     0.00  -0.00   0.00
  24   1     0.00   0.00   0.00    -0.00  -0.00   0.00    -0.00  -0.00   0.00
                     58                     59                     60
                        a                      a                      a 
 Frequencies --  2985.5534              3091.4872              3097.5921
 Red. masses --     1.5582                 1.7511                 1.8028
 Frc consts  --     0.0000                 0.0000                 0.0000
 IR Inten    --    19.2146                 7.7772                77.1129
 Raman Activ --     0.0000                 0.0000                 0.0000
 Depolar     --     0.0000                 0.0000                 0.0000
 Atom AN      X      Y      Z        X      Y      Z        X      Y      Z
   1   7     0.00   0.00   0.00     0.00   0.00   0.00     0.00  -0.00   0.00
   2   6    -0.11   0.13  -0.14     0.00  -0.00   0.00    -0.00   0.00   0.00
   3   6    -0.01   0.01  -0.04    -0.00  -0.00  -0.00     0.00   0.00  -0.00
   4   6    -0.00   0.00  -0.01     0.00  -0.00   0.00     0.00  -0.00   0.00
   5   6    -0.00   0.00  -0.00     0.00   0.00   0.00    -0.00   0.00  -0.00
   6   6     0.00  -0.00   0.00     0.01  -0.01   0.01    -0.03   0.03  -0.04
   7   6     0.00  -0.00  -0.00     0.06   0.09  -0.06    -0.09  -0.14   0.08
   8   6     0.00  -0.00   0.00    -0.19  -0.04  -0.05    -0.01  -0.00  -0.00
   9   6    -0.00   0.00   0.00     0.05  -0.06   0.08     0.09  -0.10   0.13
  10   6    -0.00  -0.00   0.00     0.01   0.01  -0.01     0.03   0.04  -0.02
  11   1    -0.00   0.01  -0.02    -0.00  -0.00  -0.00    -0.00   0.00  -0.00
  12   1    -0.01   0.01   0.01     0.00  -0.00  -0.00    -0.00  -0.00  -0.00
  13   1    -0.00   0.00  -0.00     0.00   0.00   0.00    -0.00  -0.00  -0.00
  14   1     0.28  -0.31  -0.29     0.00  -0.00  -0.00     0.00  -0.00  -0.00
  15   1     0.10  -0.16   0.80    -0.00   0.00  -0.00     0.00   0.00   0.00
  16   1     0.02  -0.04   0.14     0.00  -0.00   0.00    -0.00  -0.00   0.00
  17   1    -0.01  -0.01  -0.00     0.00   0.00  -0.00     0.00  -0.00  -0.00
  18   1     0.00  -0.00   0.02    -0.00   0.00  -0.00     0.00  -0.00   0.00
  19   1    -0.00  -0.00  -0.00     0.00   0.00  -0.00    -0.00  -0.00   0.00
  20   1    -0.00   0.00  -0.00    -0.04   0.04  -0.05     0.10  -0.11   0.15
  21   1    -0.00  -0.00  -0.00    -0.22  -0.35   0.21     0.30   0.48  -0.30
  22   1    -0.00   0.00  -0.00     0.69   0.16   0.17     0.03   0.01   0.01
  23   1     0.00  -0.00   0.00    -0.20   0.23  -0.30    -0.31   0.35  -0.46
  24   1     0.00   0.00   0.00    -0.03  -0.05   0.03    -0.10  -0.16   0.10
                     61                     62                     63
                        a                      a                      a 
 Frequencies --  3107.0239              3116.5109              3122.5628
 Red. masses --     1.8483                 1.8561                 1.8849
 Frc consts  --     0.0000                 0.0000                 0.0000
 IR Inten    --   199.4811               185.3805                 6.1950
 Raman Activ --     0.0000                 0.0000                 0.0000
 Depolar     --     0.0000                 0.0000                 0.0000
 Atom AN      X      Y      Z        X      Y      Z        X      Y      Z
   1   7    -0.00   0.00  -0.00     0.00  -0.00   0.00     0.00  -0.00   0.00
   2   6    -0.00   0.00  -0.00     0.00  -0.00  -0.00     0.00   0.00   0.00
   3   6     0.00   0.00   0.00    -0.00  -0.00  -0.00    -0.00  -0.00  -0.00
   4   6     0.00   0.00   0.00     0.00   0.00  -0.00    -0.00   0.00   0.00
   5   6    -0.01  -0.00  -0.00     0.00   0.00  -0.00     0.01   0.00   0.00
   6   6    -0.04   0.05  -0.07    -0.09   0.10  -0.13     0.08  -0.09   0.12
   7   6    -0.05  -0.09   0.05     0.03   0.05  -0.03    -0.04  -0.07   0.04
   8   6    -0.16  -0.04  -0.04    -0.00  -0.00   0.00    -0.08  -0.02  -0.02
   9   6    -0.06   0.07  -0.09    -0.03   0.04  -0.05    -0.04   0.05  -0.07
  10   6    -0.04  -0.07   0.05     0.09   0.14  -0.09     0.07   0.12  -0.08
  11   1     0.00  -0.00   0.00    -0.00   0.00  -0.00     0.00   0.00  -0.00
  12   1     0.00  -0.00  -0.00    -0.00   0.00   0.00     0.00   0.00   0.00
  13   1     0.00   0.00   0.00    -0.00  -0.00  -0.00    -0.00  -0.00  -0.00
  14   1    -0.00   0.00   0.00    -0.00   0.00   0.00    -0.00   0.00   0.00
  15   1     0.00  -0.00   0.00     0.00   0.00   0.00     0.00   0.00  -0.00
  16   1     0.00  -0.00  -0.00    -0.00  -0.00   0.00    -0.00  -0.00   0.00
  17   1     0.00  -0.00  -0.00     0.00   0.00  -0.00     0.00   0.00   0.00
  18   1     0.00   0.00  -0.00     0.00  -0.00   0.00    -0.00   0.00  -0.01
  19   1     0.00  -0.00   0.00    -0.00  -0.01   0.00    -0.00  -0.01   0.00
  20   1     0.16  -0.19   0.24     0.30  -0.34   0.44    -0.28   0.32  -0.42
  21   1     0.19   0.31  -0.19    -0.09  -0.15   0.09     0.15   0.23  -0.14
  22   1     0.54   0.12   0.13     0.01   0.00   0.00     0.25   0.06   0.06
  23   1     0.20  -0.23   0.30     0.11  -0.12   0.16     0.14  -0.16   0.21
  24   1     0.17   0.27  -0.17    -0.31  -0.49   0.31    -0.26  -0.41   0.26
                     64                     65                     66
                        a                      a                      a 
 Frequencies --  3255.2013              3262.2972              3285.6226
 Red. masses --     2.0467                 2.0487                 1.2916
 Frc consts  --     0.0000                 0.0000                 0.0000
 IR Inten    --   197.5950               161.8155                56.9402
 Raman Activ --     0.0000                 0.0000                 0.0000
 Depolar     --     0.0000                 0.0000                 0.0000
 Atom AN      X      Y      Z        X      Y      Z        X      Y      Z
   1   7    -0.27   0.07  -0.01    -0.01  -0.07  -0.27     0.02   0.14  -0.05
   2   6    -0.00   0.00  -0.00     0.00  -0.00  -0.01    -0.00   0.01  -0.00
   3   6     0.00   0.00  -0.00     0.00   0.00  -0.00    -0.00   0.00   0.00
   4   6     0.00  -0.00   0.00    -0.00   0.00  -0.00    -0.00  -0.00  -0.00
   5   6    -0.00   0.00  -0.00     0.00  -0.00   0.00     0.00   0.00  -0.00
   6   6     0.00  -0.00   0.00    -0.00   0.00  -0.00    -0.00   0.00  -0.00
   7   6     0.00  -0.00  -0.00     0.00   0.00   0.00     0.00   0.00  -0.00
   8   6     0.00  -0.00   0.00     0.00   0.00   0.00     0.00   0.00   0.00
   9   6     0.00   0.00  -0.00    -0.00  -0.00  -0.00     0.00  -0.00   0.00
  10   6     0.00   0.00  -0.00     0.00   0.00  -0.00     0.00   0.00  -0.00
  11   1     0.00  -0.03   0.16     0.11  -0.16   0.67     0.10  -0.13   0.63
  12   1     0.24  -0.32  -0.29    -0.32   0.40   0.33     0.29  -0.36  -0.33
  13   1     0.78   0.08   0.17     0.23   0.01   0.02    -0.47  -0.03  -0.10
  14   1     0.01  -0.01  -0.01    -0.01   0.01   0.01     0.01  -0.01  -0.01
  15   1     0.00  -0.00   0.01     0.00  -0.00   0.02     0.00  -0.00   0.01
  16   1     0.00  -0.00   0.00     0.00  -0.00   0.00     0.00   0.00  -0.00
  17   1     0.00   0.00   0.00    -0.00  -0.00   0.00    -0.00  -0.01   0.00
  18   1    -0.00  -0.00  -0.00    -0.00   0.00  -0.00     0.00  -0.00   0.00
  19   1     0.00  -0.00  -0.00     0.00  -0.00   0.00     0.00   0.00  -0.00
  20   1    -0.00   0.00  -0.00     0.00  -0.00   0.00     0.00  -0.00   0.00
  21   1    -0.00  -0.00  -0.00    -0.00  -0.00   0.00    -0.00  -0.00   0.00
  22   1    -0.00  -0.00  -0.00    -0.00  -0.00  -0.00    -0.00  -0.00  -0.00
  23   1     0.00  -0.00   0.00     0.00  -0.00   0.00    -0.00   0.00  -0.00
  24   1    -0.00  -0.00   0.00    -0.00  -0.00   0.00    -0.00  -0.00   0.00
