 Entering Gaussian System
 *********************************************
 Gaussian 98:
 frequency output generated by the xtb code
 *********************************************
                         Standard orientation:
 --------------------------------------------------------------------
  Center     Atomic     Atomic              Coordinates (Angstroms)
  Number     Number      Type              X           Y           Z
 --------------------------------------------------------------------
    1          7             0       -0.621490   -1.352928   -0.730486
    2          6             0        0.336425   -1.223241    0.406691
    3          6             0        0.659894    0.234618    0.734477
    4          6             0        1.542384    0.940201   -0.311757
    5          6             0        3.049055    0.850264   -0.036762
    6          6             0        3.609437   -0.563739   -0.066492
    7         17             0       -3.442577    0.568718    0.063821
    8          1             0       -1.488836   -0.824343   -0.533533
    9          1             0       -0.883585   -2.333117   -0.907513
   10          1             0       -0.225661   -0.973232   -1.600998
   11          1             0        1.251831   -1.777936    0.178109
   12          1             0       -0.089695   -1.719297    1.288243
   13          1             0        1.142318    0.309417    1.717256
   14          1             0       -0.289923    0.773433    0.846430
   15          1             0        1.257669    1.999823   -0.375338
   16          1             0        1.327978    0.534221   -1.306566
   17          1             0        3.265040    1.312565    0.935426
   18          1             0        3.588535    1.469320   -0.767215
   19          1             0        3.212867   -1.169536    0.749611
   20          1             0        4.697458   -0.573855    0.031485
   21          1             0        3.362271   -1.067989   -1.002490
 --------------------------------------------------------------------
     1 basis functions        1 primitive gaussians
     1 alpha electrons        1 beta electrons

 Harmonic frequencies (cm**-1), IR intensities (km*mol⁻¹),
 Raman scattering activities (A**4/amu), Raman depolarization ratios,
 reduced masses (AMU), force constants (mDyne/A) and normal coordinates:
                      1                      2                      3
                        a                      a                      a 
 Frequencies --  -135.9164                49.4451                80.9988
 Red. masses --    21.6516                17.4018                12.9661
 Frc consts  --     0.0000                 0.0000                 0.0000
 IR Inten    --   142.2001                 8.5919                13.1395
 Raman Activ --     0.0000                 0.0000                 0.0000
 Depolar     --     0.0000                 0.0000                 0.0000
 Atom AN      X      Y      Z        X      Y      Z        X      Y      Z
   1   7     0.48  -0.33  -0.16    -0.17   0.23  -0.01    -0.14  -0.19  -0.11
   2   6     0.19  -0.10   0.05     0.03   0.14  -0.16     0.05  -0.21  -0.25
   3   6     0.01  -0.05  -0.02     0.17   0.11  -0.16    -0.05  -0.19  -0.21
   4   6     0.01  -0.02   0.00     0.29  -0.02  -0.15    -0.10  -0.13  -0.21
   5   6     0.01   0.00   0.01     0.26  -0.07   0.01    -0.12   0.17  -0.01
   6   6     0.05   0.02  -0.02     0.17  -0.11   0.28     0.06   0.23   0.44
   7  17    -0.56   0.35   0.11    -0.51  -0.20   0.12     0.22   0.23   0.21
   8   1     0.12  -0.12  -0.10    -0.08  -0.03   0.09    -0.00  -0.01   0.02
   9   1     0.17  -0.10  -0.04     0.02   0.06  -0.07    -0.08  -0.05  -0.01
  10   1     0.17  -0.09  -0.03    -0.12   0.17   0.01    -0.07  -0.07  -0.05
  11   1     0.08  -0.02   0.08    -0.01   0.03  -0.10     0.02  -0.03  -0.12
  12   1     0.01  -0.02   0.00     0.05   0.03  -0.03     0.07  -0.09  -0.06
  13   1    -0.02   0.02   0.00     0.05   0.02  -0.04    -0.02  -0.05  -0.06
  14   1    -0.01  -0.04  -0.03     0.07   0.06  -0.05    -0.03  -0.08  -0.05
  15   1    -0.00  -0.01   0.01     0.10  -0.00  -0.08    -0.08  -0.06  -0.11
  16   1     0.01   0.00  -0.00     0.11  -0.04  -0.04     0.03  -0.09  -0.05
  17   1     0.00  -0.00   0.00     0.05   0.02  -0.01    -0.09   0.13  -0.03
  18   1    -0.00   0.01   0.01     0.11  -0.06  -0.01    -0.03   0.01  -0.03
  19   1     0.04   0.00   0.00    -0.00   0.01   0.09    -0.01   0.11   0.14
  20   1     0.02   0.02  -0.02     0.04  -0.05   0.13     0.01   0.11   0.19
  21   1     0.01   0.00  -0.00     0.08  -0.06   0.09     0.09  -0.01   0.15
                      4                      5                      6
                        a                      a                      a 
 Frequencies --   107.4858               145.1576               187.9510
 Red. masses --    13.1761                 7.3008                 7.7977
 Frc consts  --     0.0000                 0.0000                 0.0000
 IR Inten    --     8.6553                 4.9354                 7.7182
 Raman Activ --     0.0000                 0.0000                 0.0000
 Depolar     --     0.0000                 0.0000                 0.0000
 Atom AN      X      Y      Z        X      Y      Z        X      Y      Z
   1   7    -0.25   0.03   0.26    -0.16  -0.21   0.04     0.17   0.28  -0.21
   2   6     0.07  -0.21   0.02    -0.16   0.07   0.03    -0.35  -0.00   0.24
   3   6     0.25  -0.29   0.21    -0.20   0.13  -0.23     0.01  -0.07   0.13
   4   6     0.02  -0.13   0.11     0.14  -0.08  -0.09    -0.07  -0.34  -0.13
   5   6     0.06   0.13  -0.05     0.06  -0.01   0.37    -0.06   0.01  -0.11
   6   6     0.27   0.22  -0.18     0.30   0.09  -0.22     0.22   0.12   0.02
   7  17    -0.27   0.15  -0.26     0.02   0.02   0.08     0.03  -0.03   0.07
   8   1    -0.01   0.11   0.08    -0.02  -0.00  -0.04     0.00   0.01  -0.09
   9   1    -0.18   0.03   0.12    -0.08  -0.06   0.10     0.11   0.08  -0.20
  10   1    -0.08  -0.07   0.03    -0.03  -0.15  -0.02     0.14   0.19   0.04
  11   1    -0.01  -0.06  -0.09    -0.04   0.01   0.05    -0.12  -0.10   0.21
  12   1     0.08  -0.09   0.02    -0.05   0.07   0.03    -0.26   0.07   0.03
  13   1     0.14  -0.14   0.03    -0.14   0.09  -0.03     0.06  -0.03   0.01
  14   1     0.09  -0.07   0.16    -0.06   0.05  -0.17     0.04   0.03   0.08
  15   1    -0.05  -0.05   0.04     0.04  -0.03  -0.10    -0.07  -0.12  -0.15
  16   1    -0.00  -0.05   0.04     0.13  -0.07  -0.02     0.01  -0.21   0.00
  17   1     0.02   0.03  -0.01    -0.09  -0.13   0.19    -0.05   0.04  -0.04
  18   1    -0.03   0.07  -0.02     0.06   0.12   0.24    -0.05   0.01  -0.05
  19   1     0.08   0.02  -0.08     0.04  -0.12  -0.20     0.03   0.01  -0.03
  20   1     0.08   0.10  -0.03     0.08   0.06   0.04     0.06   0.09   0.09
  21   1     0.11   0.09  -0.07     0.19   0.17  -0.17     0.16   0.03  -0.02
                      7                      8                      9
                        a                      a                      a 
 Frequencies --   241.3584               298.1929               315.3996
 Red. masses --     3.8088                 7.0407                 7.4601
 Frc consts  --     0.0000                 0.0000                 0.0000
 IR Inten    --     1.7141                 3.2553                 5.7259
 Raman Activ --     0.0000                 0.0000                 0.0000
 Depolar     --     0.0000                 0.0000                 0.0000
 Atom AN      X      Y      Z        X      Y      Z        X      Y      Z
   1   7    -0.00   0.02   0.21    -0.16  -0.19  -0.11     0.14   0.29   0.04
   2   6     0.21  -0.05   0.01    -0.21   0.04  -0.04     0.28   0.09  -0.08
   3   6    -0.13   0.00   0.02    -0.26   0.05   0.06    -0.24   0.12   0.09
   4   6    -0.11  -0.11  -0.03     0.01   0.08   0.29    -0.23  -0.11  -0.01
   5   6    -0.13  -0.06   0.07     0.14  -0.07  -0.21    -0.21  -0.28  -0.07
   6   6     0.05   0.01  -0.11     0.43   0.03   0.04     0.25  -0.12   0.04
   7  17     0.06   0.11  -0.10     0.03   0.02   0.00    -0.05  -0.04   0.01
   8   1    -0.16  -0.35   0.28    -0.09  -0.13  -0.02     0.14   0.27  -0.03
   9   1     0.34  -0.03  -0.26     0.06  -0.07  -0.05    -0.18   0.11   0.13
  10   1    -0.21   0.46   0.16    -0.08   0.01  -0.02     0.10  -0.12  -0.05
  11   1     0.09   0.08  -0.10    -0.03   0.05   0.01     0.13   0.15  -0.13
  12   1     0.16  -0.10   0.00    -0.06  -0.00  -0.02     0.18  -0.11  -0.05
  13   1    -0.07   0.06   0.01    -0.15   0.00   0.06    -0.11   0.11   0.04
  14   1    -0.06  -0.04  -0.05    -0.08   0.03  -0.06    -0.11  -0.02  -0.04
  15   1    -0.04  -0.03  -0.06     0.07   0.05   0.18    -0.00  -0.02  -0.02
  16   1    -0.01  -0.08   0.00    -0.08   0.13   0.05    -0.11  -0.04   0.01
  17   1    -0.07  -0.05   0.04     0.15   0.07  -0.13    -0.07  -0.06  -0.03
  18   1    -0.03   0.03   0.06    -0.06  -0.07  -0.18    -0.08  -0.07  -0.02
  19   1     0.04  -0.04  -0.05     0.31   0.08   0.16     0.10  -0.08  -0.01
  20   1     0.01   0.04  -0.03     0.14   0.10  -0.19     0.07   0.10   0.09
  21   1     0.04   0.02  -0.05    -0.02  -0.14   0.12     0.20  -0.07  -0.01
                     10                     11                     12
                        a                      a                      a 
 Frequencies --   323.1275               434.1207               470.5254
 Red. masses --     2.5685                 6.9951                 6.3678
 Frc consts  --     0.0000                 0.0000                 0.0000
 IR Inten    --     1.0670                12.0201                 1.7001
 Raman Activ --     0.0000                 0.0000                 0.0000
 Depolar     --     0.0000                 0.0000                 0.0000
 Atom AN      X      Y      Z        X      Y      Z        X      Y      Z
   1   7     0.03   0.15   0.01     0.08   0.25   0.18    -0.00   0.01   0.07
   2   6     0.05  -0.02   0.00     0.03  -0.37   0.19    -0.06  -0.06   0.08
   3   6    -0.00  -0.02  -0.06    -0.19  -0.21  -0.33     0.23  -0.08  -0.21
   4   6     0.04  -0.18  -0.12     0.10   0.07   0.05    -0.18   0.33  -0.23
   5   6    -0.03   0.04   0.22     0.14   0.08  -0.07    -0.27  -0.21   0.07
   6   6    -0.03   0.05  -0.03    -0.03   0.03  -0.01     0.20  -0.07   0.08
   7  17    -0.02  -0.01   0.00    -0.03  -0.01  -0.00     0.00   0.00  -0.01
   8   1     0.05   0.11  -0.00     0.08   0.16   0.08    -0.01  -0.01   0.02
   9   1    -0.08   0.06   0.02    -0.12   0.13  -0.09     0.02   0.01  -0.04
  10   1     0.04  -0.01  -0.00     0.11   0.12   0.11     0.02   0.05   0.05
  11   1     0.02   0.00   0.00    -0.03  -0.18   0.09    -0.06  -0.13   0.10
  12   1     0.01  -0.02  -0.00    -0.05  -0.03   0.07    -0.09   0.11   0.06
  13   1    -0.01   0.02  -0.02    -0.25   0.13  -0.01     0.22  -0.06  -0.13
  14   1    -0.00  -0.01  -0.04    -0.13  -0.13  -0.33     0.08  -0.03   0.12
  15   1    -0.04  -0.07  -0.15     0.03   0.03   0.16     0.03   0.13   0.18
  16   1     0.10  -0.16  -0.01     0.04   0.17  -0.05    -0.13   0.32  -0.14
  17   1    -0.07  -0.03   0.10     0.08   0.04  -0.04    -0.19  -0.14   0.09
  18   1     0.01   0.07   0.12     0.02   0.00  -0.06     0.02   0.01   0.15
  19   1     0.36   0.11   0.25    -0.06   0.04  -0.01     0.20  -0.06   0.06
  20   1     0.04   0.01  -0.53    -0.01  -0.04   0.03     0.06   0.15  -0.04
  21   1    -0.46  -0.10   0.17    -0.01   0.01  -0.00     0.08  -0.09   0.06
                     13                     14                     15
                        a                      a                      a 
 Frequencies --   790.3361               809.4958               839.1437
 Red. masses --     4.3827                 3.0625                 5.7364
 Frc consts  --     0.0000                 0.0000                 0.0000
 IR Inten    --    25.8193                15.9338                11.7708
 Raman Activ --     0.0000                 0.0000                 0.0000
 Depolar     --     0.0000                 0.0000                 0.0000
 Atom AN      X      Y      Z        X      Y      Z        X      Y      Z
   1   7    -0.04  -0.06   0.05    -0.03   0.03  -0.07     0.01   0.09   0.15
   2   6    -0.20  -0.14   0.15     0.06   0.08  -0.01    -0.12   0.25   0.00
   3   6    -0.24   0.05   0.11     0.13  -0.03   0.15     0.09  -0.13  -0.21
   4   6    -0.02   0.11  -0.22     0.07  -0.20   0.02     0.14  -0.40   0.07
   5   6     0.23   0.10  -0.09     0.01   0.00  -0.26    -0.13  -0.09   0.04
   6   6     0.07  -0.05  -0.01    -0.02   0.09  -0.08    -0.10   0.18   0.04
   7  17     0.00  -0.00   0.00    -0.00   0.00   0.00     0.01   0.00   0.01
   8   1    -0.02   0.05  -0.21    -0.03  -0.04   0.02    -0.12  -0.06  -0.27
   9   1    -0.02   0.02  -0.17     0.05  -0.02   0.08     0.20  -0.04   0.09
  10   1     0.30   0.04   0.18    -0.11  -0.05  -0.09     0.21  -0.06   0.10
  11   1     0.05   0.24  -0.23    -0.02  -0.04   0.03    -0.02   0.16  -0.20
  12   1     0.24  -0.32   0.03    -0.06   0.04  -0.03     0.16  -0.03   0.04
  13   1     0.11  -0.07  -0.05    -0.16   0.12   0.13     0.02  -0.04  -0.06
  14   1    -0.00   0.08   0.22    -0.00  -0.02  -0.20     0.08   0.06  -0.09
  15   1     0.01   0.04  -0.03     0.06  -0.03   0.17     0.12  -0.07   0.34
  16   1    -0.01   0.07  -0.08    -0.18   0.07  -0.00    -0.04   0.21  -0.09
  17   1    -0.06  -0.11   0.07    -0.25  -0.33   0.15    -0.04   0.10  -0.05
  18   1     0.15   0.14   0.14     0.09   0.33   0.27    -0.11  -0.06  -0.08
  19   1    -0.07   0.11   0.05    -0.15   0.31   0.13     0.00  -0.03  -0.03
  20   1     0.02  -0.14   0.03    -0.02  -0.04   0.11    -0.03   0.06  -0.04
  21   1    -0.02  -0.08   0.04     0.03  -0.24   0.12    -0.05   0.14  -0.03
                     16                     17                     18
                        a                      a                      a 
 Frequencies --   867.9020               914.7115               922.3472
 Red. masses --     6.3141                 4.6777                 5.2521
 Frc consts  --     0.0000                 0.0000                 0.0000
 IR Inten    --    10.2943                13.8775                16.7042
 Raman Activ --     0.0000                 0.0000                 0.0000
 Depolar     --     0.0000                 0.0000                 0.0000
 Atom AN      X      Y      Z        X      Y      Z        X      Y      Z
   1   7     0.29   0.06   0.20     0.04   0.13   0.23     0.06  -0.17   0.05
   2   6    -0.07   0.17  -0.20    -0.07   0.11  -0.17    -0.08  -0.05  -0.06
   3   6    -0.35  -0.15  -0.19     0.03  -0.19  -0.17    -0.04   0.14  -0.13
   4   6    -0.11  -0.15  -0.01    -0.09   0.22   0.20     0.29  -0.03   0.21
   5   6     0.18   0.08   0.00    -0.03   0.07  -0.03    -0.19  -0.18  -0.06
   6   6     0.08  -0.02  -0.02     0.02  -0.14  -0.09    -0.23   0.17  -0.11
   7  17    -0.00   0.00  -0.01     0.00   0.00   0.01    -0.00  -0.00  -0.00
   8   1     0.12   0.01   0.27    -0.13  -0.07  -0.25     0.16   0.12   0.18
   9   1     0.02   0.01   0.17     0.24  -0.04   0.15    -0.23   0.06  -0.22
  10   1    -0.19   0.00  -0.08     0.20  -0.07   0.10     0.06   0.12   0.10
  11   1     0.05   0.09   0.15    -0.11  -0.09  -0.12     0.06   0.10   0.05
  12   1    -0.14   0.09  -0.08     0.04   0.14   0.04     0.04  -0.01   0.01
  13   1     0.15  -0.30  -0.15    -0.06  -0.12  -0.01     0.07  -0.16  -0.06
  14   1    -0.00   0.05   0.27    -0.03  -0.13  -0.04     0.10   0.19   0.08
  15   1    -0.02  -0.03   0.12    -0.21  -0.01  -0.23     0.13  -0.00  -0.04
  16   1     0.00   0.09  -0.06     0.18  -0.22   0.12     0.17  -0.06   0.05
  17   1     0.02  -0.02   0.02     0.15  -0.15   0.04     0.08  -0.17   0.01
  18   1     0.00   0.09   0.03    -0.06   0.09   0.02    -0.11   0.02  -0.01
  19   1    -0.10   0.10   0.01     0.01   0.09   0.08     0.03   0.13   0.08
  20   1     0.02  -0.19   0.03    -0.00   0.08   0.08    -0.07   0.34   0.08
  21   1    -0.05  -0.01   0.02     0.13  -0.26   0.07     0.14  -0.19   0.05
                     19                     20                     21
                        a                      a                      a 
 Frequencies --   984.3710              1012.1035              1053.3871
 Red. masses --     5.9964                 6.2709                 6.2665
 Frc consts  --     0.0000                 0.0000                 0.0000
 IR Inten    --    15.0351                13.2148                 2.8898
 Raman Activ --     0.0000                 0.0000                 0.0000
 Depolar     --     0.0000                 0.0000                 0.0000
 Atom AN      X      Y      Z        X      Y      Z        X      Y      Z
   1   7     0.20   0.16   0.11    -0.15   0.14  -0.31     0.13  -0.08  -0.04
   2   6    -0.26  -0.14  -0.06     0.20   0.02   0.46    -0.26   0.13   0.10
   3   6    -0.09  -0.14   0.22    -0.12  -0.10  -0.12     0.27  -0.12  -0.09
   4   6     0.24   0.18  -0.21     0.00  -0.03  -0.02    -0.06   0.01   0.06
   5   6     0.02  -0.08  -0.08     0.02   0.01   0.10    -0.13   0.34   0.01
   6   6    -0.20   0.09   0.04    -0.08  -0.01  -0.11     0.06  -0.34  -0.01
   7  17     0.00   0.00  -0.00     0.00   0.00   0.00    -0.00  -0.00  -0.00
   8   1    -0.02  -0.08   0.06    -0.11  -0.08  -0.06     0.12   0.04   0.20
   9   1     0.19  -0.04   0.30     0.08  -0.04   0.15    -0.12   0.03  -0.03
  10   1    -0.16  -0.10  -0.13    -0.22  -0.09  -0.21    -0.09   0.04  -0.04
  11   1    -0.00   0.08  -0.04     0.10   0.12   0.05     0.08   0.31  -0.04
  12   1    -0.10  -0.27  -0.16     0.04  -0.15   0.03     0.05  -0.19  -0.04
  13   1    -0.12  -0.05   0.10     0.18   0.11  -0.14    -0.11   0.03   0.06
  14   1    -0.01   0.01  -0.05    -0.03  -0.07   0.13     0.15   0.16  -0.27
  15   1     0.07   0.05  -0.07    -0.09  -0.03   0.08    -0.28  -0.06   0.09
  16   1     0.04   0.02  -0.04     0.26   0.08  -0.09     0.05   0.02  -0.00
  17   1    -0.05  -0.02  -0.01     0.24  -0.07   0.01    -0.04   0.10   0.00
  18   1     0.20  -0.13   0.03    -0.11   0.01  -0.05    -0.05   0.09  -0.00
  19   1     0.15  -0.13  -0.01     0.01   0.09   0.06     0.08  -0.13  -0.00
  20   1    -0.04   0.31  -0.04    -0.03   0.13   0.08     0.02  -0.03   0.01
  21   1     0.08   0.03  -0.03     0.11  -0.18   0.04     0.08  -0.12  -0.00
                     22                     23                     24
                        a                      a                      a 
 Frequencies --  1066.0219              1116.3810              1135.3973
 Red. masses --     5.7393                 6.0911                 8.0992
 Frc consts  --     0.0000                 0.0000                 0.0000
 IR Inten    --    14.3320                 2.7213                 0.6615
 Raman Activ --     0.0000                 0.0000                 0.0000
 Depolar     --     0.0000                 0.0000                 0.0000
 Atom AN      X      Y      Z        X      Y      Z        X      Y      Z
   1   7    -0.15  -0.08  -0.07    -0.04   0.07  -0.12    -0.09   0.06   0.04
   2   6     0.23   0.32   0.11     0.08   0.07   0.28     0.18  -0.14  -0.09
   3   6    -0.13  -0.26  -0.00    -0.05  -0.22  -0.15    -0.21   0.14   0.10
   4   6    -0.02  -0.04  -0.02     0.22   0.25   0.11     0.35  -0.10  -0.00
   5   6     0.22   0.10  -0.15    -0.26  -0.14  -0.15    -0.26   0.40  -0.08
   6   6    -0.20  -0.05   0.09     0.17   0.07   0.07     0.01  -0.35  -0.01
   7  17    -0.00  -0.00  -0.00     0.00   0.00   0.00     0.00   0.00   0.00
   8   1     0.00   0.05  -0.04    -0.03  -0.02  -0.02    -0.08  -0.02  -0.12
   9   1    -0.10   0.02  -0.16     0.01  -0.00   0.04     0.08  -0.02   0.02
  10   1     0.07   0.06   0.07    -0.08  -0.02  -0.08     0.06  -0.03   0.03
  11   1     0.07   0.08   0.12     0.09   0.14   0.04     0.00  -0.15   0.09
  12   1     0.05   0.24   0.10     0.09  -0.04   0.07    -0.08   0.06  -0.03
  13   1    -0.11  -0.23   0.05    -0.13  -0.36   0.04     0.05  -0.08  -0.01
  14   1    -0.05  -0.09   0.02     0.06   0.05  -0.03    -0.04   0.04   0.14
  15   1    -0.13  -0.04   0.05     0.15   0.08  -0.21     0.16   0.00   0.07
  16   1    -0.09  -0.02   0.01    -0.01  -0.16   0.13     0.12   0.09  -0.05
  17   1    -0.09  -0.04   0.03    -0.25   0.02  -0.03    -0.24   0.19  -0.02
  18   1     0.34  -0.05   0.10    -0.07   0.02   0.01    -0.11   0.17   0.00
  19   1     0.19  -0.23  -0.02    -0.11   0.04  -0.04     0.09  -0.16  -0.01
  20   1    -0.04   0.29  -0.05     0.04  -0.27  -0.03     0.01   0.02  -0.01
  21   1     0.10   0.04  -0.04    -0.15   0.16  -0.01     0.09  -0.13  -0.01
                     25                     26                     27
                        a                      a                      a 
 Frequencies --  1144.6293              1211.8894              1226.5417
 Red. masses --     7.3506                 4.0485                 3.0693
 Frc consts  --     0.0000                 0.0000                 0.0000
 IR Inten    --     4.5394                 6.4218                10.6046
 Raman Activ --     0.0000                 0.0000                 0.0000
 Depolar     --     0.0000                 0.0000                 0.0000
 Atom AN      X      Y      Z        X      Y      Z        X      Y      Z
   1   7     0.02   0.13  -0.04     0.12  -0.08  -0.03    -0.19   0.01   0.13
   2   6    -0.01  -0.30   0.08    -0.14   0.14   0.00     0.17  -0.05  -0.14
   3   6     0.03   0.30  -0.35    -0.05  -0.06   0.04     0.03   0.02   0.03
   4   6    -0.14  -0.10   0.36     0.13   0.03   0.15    -0.03   0.04   0.04
   5   6     0.15   0.06  -0.19    -0.11  -0.05  -0.32    -0.06  -0.11  -0.16
   6   6    -0.08  -0.03   0.13     0.04   0.02   0.21     0.04   0.08   0.13
   7  17     0.00   0.00   0.00    -0.00  -0.00  -0.00    -0.00   0.00   0.00
   8   1    -0.06  -0.06  -0.03     0.09   0.02   0.10    -0.09   0.02  -0.16
   9   1     0.10  -0.02   0.12    -0.08   0.01  -0.00     0.07  -0.01  -0.05
  10   1    -0.07  -0.07  -0.09    -0.07   0.06  -0.02     0.15  -0.02   0.11
  11   1     0.00  -0.05  -0.03    -0.16  -0.08  -0.21     0.25   0.17   0.37
  12   1     0.03  -0.11   0.02     0.09   0.05   0.07    -0.31  -0.16  -0.29
  13   1     0.17   0.01  -0.16     0.17   0.34  -0.10     0.01   0.04   0.00
  14   1     0.09   0.19   0.04    -0.16  -0.28   0.13     0.09   0.16  -0.08
  15   1    -0.05  -0.04  -0.02    -0.12  -0.04   0.05    -0.28  -0.06   0.07
  16   1    -0.25  -0.15   0.19     0.39   0.01  -0.04     0.28   0.04  -0.07
  17   1    -0.11  -0.08   0.04    -0.09  -0.18   0.02     0.07  -0.19   0.02
  18   1     0.17   0.07   0.10     0.01   0.13   0.07     0.01   0.02   0.03
  19   1     0.10  -0.17  -0.03     0.01  -0.16  -0.07    -0.01  -0.05  -0.03
  20   1    -0.01   0.10  -0.06     0.02  -0.05  -0.10     0.01  -0.10  -0.03
  21   1     0.01   0.11  -0.04    -0.09   0.21  -0.04    -0.08   0.17  -0.03
                     28                     29                     30
                        a                      a                      a 
 Frequencies --  1266.3067              1271.3743              1318.4526
 Red. masses --     2.3845                 2.3035                 3.5696
 Frc consts  --     0.0000                 0.0000                 0.0000
 IR Inten    --     6.8580                 1.3401                15.1974
 Raman Activ --     0.0000                 0.0000                 0.0000
 Depolar     --     0.0000                 0.0000                 0.0000
 Atom AN      X      Y      Z        X      Y      Z        X      Y      Z
   1   7    -0.06  -0.05   0.08     0.01  -0.01   0.01    -0.09   0.11  -0.13
   2   6    -0.07   0.13  -0.04    -0.00   0.03   0.03    -0.14  -0.25  -0.21
   3   6     0.08  -0.17  -0.13     0.04  -0.06   0.02    -0.04  -0.19   0.14
   4   6     0.04   0.03   0.13    -0.07  -0.01  -0.15    -0.08   0.01   0.03
   5   6     0.04   0.04   0.05     0.09   0.09  -0.05    -0.01   0.02  -0.03
   6   6    -0.04  -0.04  -0.07    -0.08  -0.07   0.23    -0.01   0.01   0.00
   7  17    -0.00   0.00   0.00     0.00   0.00  -0.00    -0.00   0.00  -0.00
   8   1     0.00   0.05  -0.04     0.00   0.01  -0.02    -0.00  -0.02   0.17
   9   1    -0.01   0.00  -0.06    -0.01   0.00  -0.02     0.13  -0.04   0.12
  10   1     0.06   0.02   0.07    -0.02   0.00  -0.01     0.14  -0.07   0.00
  11   1     0.16   0.27   0.17     0.01   0.02   0.01     0.23   0.27   0.24
  12   1    -0.21  -0.17  -0.22    -0.02  -0.02  -0.02     0.28   0.38   0.35
  13   1     0.19   0.33  -0.15    -0.07  -0.09   0.05     0.10   0.25  -0.04
  14   1    -0.16  -0.38   0.06    -0.00  -0.02  -0.04     0.09   0.14  -0.07
  15   1     0.31   0.08  -0.14     0.31   0.08  -0.12     0.17   0.05  -0.07
  16   1    -0.24  -0.12   0.14    -0.18   0.01  -0.01     0.09   0.03  -0.03
  17   1    -0.15   0.15  -0.02     0.39  -0.30   0.06     0.00  -0.01   0.00
  18   1    -0.00   0.01   0.00    -0.45   0.41  -0.03     0.03   0.01   0.02
  19   1     0.03   0.03   0.03     0.10  -0.22  -0.04     0.03  -0.02   0.01
  20   1    -0.01   0.02   0.04    -0.01   0.05  -0.07    -0.00  -0.04   0.02
  21   1     0.05  -0.07   0.00    -0.01   0.17  -0.05     0.01   0.02  -0.01
                     31                     32                     33
                        a                      a                      a 
 Frequencies --  1349.0068              1362.3499              1369.5187
 Red. masses --     3.8494                 4.4241                 4.0987
 Frc consts  --     0.0000                 0.0000                 0.0000
 IR Inten    --     5.1553                19.2058                45.6020
 Raman Activ --     0.0000                 0.0000                 0.0000
 Depolar     --     0.0000                 0.0000                 0.0000
 Atom AN      X      Y      Z        X      Y      Z        X      Y      Z
   1   7     0.04  -0.06   0.04    -0.09  -0.03  -0.05     0.13   0.04   0.06
   2   6     0.13   0.14   0.06     0.03   0.03   0.03    -0.11  -0.14  -0.02
   3   6    -0.07  -0.22   0.04     0.02  -0.02   0.01     0.23   0.27  -0.04
   4   6    -0.34  -0.05   0.13    -0.18   0.08   0.04    -0.27  -0.11   0.05
   5   6    -0.05   0.13  -0.06     0.40  -0.27   0.01     0.07   0.01  -0.05
   6   6     0.01   0.01  -0.01    -0.10  -0.08  -0.02    -0.04   0.03  -0.01
   7  17     0.00  -0.00   0.00    -0.00  -0.00  -0.00     0.00   0.00   0.00
   8   1    -0.01  -0.01  -0.09     0.10   0.13   0.11    -0.14  -0.17  -0.22
   9   1    -0.08   0.02  -0.03     0.17  -0.06   0.04    -0.24   0.07   0.02
  10   1    -0.05   0.05   0.01     0.07   0.00   0.04    -0.16   0.05  -0.05
  11   1    -0.13  -0.18  -0.13    -0.04  -0.07  -0.03     0.13   0.19   0.11
  12   1    -0.10  -0.09  -0.12    -0.02  -0.05  -0.04     0.05   0.04   0.07
  13   1     0.08   0.11  -0.05    -0.05  -0.02   0.03    -0.17  -0.27   0.13
  14   1     0.19   0.34  -0.15     0.06   0.10  -0.02    -0.16  -0.32   0.03
  15   1     0.48   0.13  -0.15    -0.02   0.02  -0.04     0.22   0.05   0.02
  16   1     0.28   0.05  -0.07     0.24   0.04  -0.06     0.35   0.07  -0.11
  17   1     0.02  -0.01   0.00    -0.43   0.29  -0.05    -0.11   0.04  -0.00
  18   1     0.23  -0.10   0.05    -0.34   0.27  -0.04     0.05  -0.01   0.00
  19   1     0.01  -0.02  -0.02     0.00   0.06   0.06     0.04  -0.02   0.00
  20   1     0.01  -0.03  -0.02    -0.03   0.19  -0.00    -0.01  -0.03   0.00
  21   1     0.02  -0.05   0.02     0.02   0.06  -0.05     0.04  -0.03   0.00
                     34                     35                     36
                        a                      a                      a 
 Frequencies --  1375.5052              1402.9122              1434.9803
 Red. masses --     3.1718                 1.5941                 3.2941
 Frc consts  --     0.0000                 0.0000                 0.0000
 IR Inten    --    78.6104                66.2806                 2.7342
 Raman Activ --     0.0000                 0.0000                 0.0000
 Depolar     --     0.0000                 0.0000                 0.0000
 Atom AN      X      Y      Z        X      Y      Z        X      Y      Z
   1   7     0.22   0.00   0.14    -0.03  -0.14   0.12     0.00   0.00  -0.03
   2   6     0.02  -0.04  -0.07    -0.05  -0.08  -0.02    -0.01   0.00  -0.01
   3   6    -0.13  -0.17   0.08     0.02   0.01  -0.01     0.02   0.01  -0.02
   4   6     0.12   0.11  -0.04    -0.01  -0.01  -0.01    -0.02  -0.04   0.02
   5   6     0.11  -0.12   0.04    -0.04   0.03   0.00    -0.09   0.08  -0.01
   6   6    -0.02  -0.03  -0.01     0.02  -0.03  -0.00     0.18  -0.40  -0.01
   7  17     0.01   0.00   0.01    -0.00  -0.01   0.01     0.00   0.00  -0.00
   8   1    -0.21  -0.22  -0.42     0.24   0.56  -0.40    -0.03  -0.05   0.01
   9   1    -0.39   0.13  -0.06     0.36  -0.10  -0.08    -0.05   0.00   0.06
  10   1    -0.28   0.11  -0.07    -0.43   0.22  -0.08     0.04   0.04   0.03
  11   1     0.04   0.04   0.01     0.04   0.05   0.03     0.02   0.02   0.04
  12   1     0.02   0.14   0.07     0.06   0.07   0.08     0.01  -0.02  -0.00
  13   1     0.12   0.20  -0.07    -0.04   0.03   0.02    -0.03  -0.01   0.02
  14   1     0.11   0.22  -0.06     0.01   0.01   0.04    -0.01  -0.03   0.03
  15   1    -0.17  -0.03   0.01     0.02   0.01   0.03     0.06   0.01  -0.03
  16   1    -0.12  -0.05   0.05     0.00  -0.03   0.01     0.00   0.03  -0.02
  17   1    -0.11   0.09  -0.02     0.04  -0.02   0.00     0.10  -0.03  -0.00
  18   1    -0.17   0.11  -0.02     0.05  -0.03   0.01     0.11  -0.04   0.04
  19   1    -0.01   0.04   0.03    -0.02   0.03   0.01    -0.27   0.38   0.16
  20   1    -0.01   0.08   0.01     0.00   0.01   0.00     0.02   0.49   0.04
  21   1    -0.00   0.03  -0.02    -0.01   0.02  -0.01    -0.27   0.40  -0.16
                     37                     38                     39
                        a                      a                      a 
 Frequencies --  1438.8878              1480.3614              1487.8509
 Red. masses --     1.9076                 1.8494                 1.8736
 Frc consts  --     0.0000                 0.0000                 0.0000
 IR Inten    --    84.0949                12.0108                 6.4191
 Raman Activ --     0.0000                 0.0000                 0.0000
 Depolar     --     0.0000                 0.0000                 0.0000
 Atom AN      X      Y      Z        X      Y      Z        X      Y      Z
   1   7     0.01   0.13   0.22    -0.00   0.02   0.01    -0.01  -0.02  -0.02
   2   6    -0.02  -0.00   0.02    -0.10   0.20  -0.12     0.03  -0.06   0.06
   3   6     0.00  -0.01   0.02    -0.03   0.03   0.07    -0.08   0.12   0.22
   4   6    -0.03   0.00   0.00    -0.02   0.02  -0.02     0.01   0.00   0.02
   5   6     0.00  -0.00  -0.01     0.01  -0.02  -0.01    -0.01  -0.04  -0.00
   6   6     0.01  -0.04  -0.00     0.03   0.01  -0.01     0.01  -0.01  -0.01
   7  17     0.00   0.00   0.00    -0.00   0.00   0.00    -0.00  -0.00   0.00
   8   1    -0.02  -0.03   0.07    -0.02   0.00  -0.04     0.04   0.05   0.01
   9   1     0.15   0.09  -0.65     0.00   0.01  -0.05     0.03  -0.02   0.03
  10   1    -0.10  -0.59  -0.29    -0.04  -0.03  -0.04    -0.00   0.04   0.02
  11   1    -0.00   0.04  -0.07    -0.08  -0.33   0.52     0.02   0.12  -0.19
  12   1    -0.02   0.06   0.03     0.49  -0.38   0.03    -0.16   0.13   0.00
  13   1     0.02   0.00  -0.01     0.18  -0.09  -0.08     0.48  -0.32  -0.20
  14   1    -0.00  -0.01  -0.02    -0.06  -0.05  -0.21    -0.16  -0.14  -0.61
  15   1     0.02   0.01   0.01     0.02   0.01   0.08    -0.04  -0.01  -0.05
  16   1     0.06  -0.01  -0.00     0.02  -0.08   0.03    -0.01   0.05  -0.02
  17   1    -0.01   0.01  -0.00     0.01   0.03  -0.02     0.03   0.05  -0.03
  18   1     0.01   0.00   0.01     0.00   0.04   0.03     0.02   0.04   0.05
  19   1    -0.03   0.04   0.02    -0.02  -0.07  -0.06     0.01   0.02   0.02
  20   1     0.00   0.05  -0.00    -0.00   0.06   0.07    -0.00   0.01   0.04
  21   1    -0.02   0.04  -0.02    -0.11  -0.05   0.06    -0.03   0.02  -0.00
                     40                     41                     42
                        a                      a                      a 
 Frequencies --  1508.1465              1517.9090              1520.6675
 Red. masses --     1.8748                 1.6150                 1.8672
 Frc consts  --     0.0000                 0.0000                 0.0000
 IR Inten    --     3.4683                 7.2793                 1.4023
 Raman Activ --     0.0000                 0.0000                 0.0000
 Depolar     --     0.0000                 0.0000                 0.0000
 Atom AN      X      Y      Z        X      Y      Z        X      Y      Z
   1   7    -0.01   0.00  -0.02     0.00  -0.00  -0.00     0.00   0.00   0.00
   2   6     0.01  -0.02   0.01     0.02  -0.04   0.02    -0.01   0.01  -0.01
   3   6    -0.02   0.01   0.00     0.01  -0.00  -0.03     0.02   0.00  -0.02
   4   6    -0.08   0.13  -0.22    -0.03   0.02  -0.06     0.02  -0.05   0.06
   5   6    -0.03  -0.01   0.00    -0.04  -0.11  -0.05    -0.13  -0.20  -0.02
   6   6    -0.04  -0.04   0.06     0.10   0.06  -0.13    -0.04   0.00   0.10
   7  17     0.00   0.00  -0.00     0.00   0.00   0.00     0.00   0.00  -0.00
   8   1    -0.00  -0.01   0.03    -0.00  -0.01   0.01    -0.00  -0.00  -0.00
   9   1    -0.00  -0.00   0.03     0.00  -0.00   0.01    -0.00   0.00  -0.00
  10   1     0.04   0.01   0.02     0.02   0.00   0.01    -0.01  -0.00  -0.01
  11   1     0.01   0.03  -0.05     0.01   0.06  -0.10     0.00  -0.01   0.05
  12   1    -0.05   0.04  -0.00    -0.09   0.07  -0.01     0.03  -0.03   0.00
  13   1     0.04  -0.01  -0.02    -0.07   0.03   0.03    -0.05   0.00   0.02
  14   1     0.00   0.02  -0.04     0.02   0.02   0.08     0.00  -0.01   0.04
  15   1     0.16   0.08   0.60     0.04   0.02   0.16    -0.05  -0.03  -0.16
  16   1     0.13  -0.57   0.20     0.04  -0.15   0.05    -0.04   0.16  -0.06
  17   1     0.06   0.05  -0.03     0.18   0.23  -0.16     0.31   0.40  -0.26
  18   1     0.02   0.04   0.05     0.09   0.23   0.25     0.19   0.31   0.42
  19   1    -0.07   0.11   0.05     0.11  -0.24  -0.13    -0.17   0.06  -0.03
  20   1     0.02  -0.03  -0.22    -0.04   0.12   0.47     0.02  -0.03  -0.34
  21   1     0.21   0.05  -0.08    -0.50  -0.11   0.18     0.26  -0.04  -0.04
                     43                     44                     45
                        a                      a                      a 
 Frequencies --  1532.5399              2898.5340              2907.0514
 Red. masses --     1.6008                 1.9838                 1.9202
 Frc consts  --     0.0000                 0.0000                 0.0000
 IR Inten    --     2.6154              1504.4482                30.1097
 Raman Activ --     0.0000                 0.0000                 0.0000
 Depolar     --     0.0000                 0.0000                 0.0000
 Atom AN      X      Y      Z        X      Y      Z        X      Y      Z
   1   7    -0.01   0.00  -0.00    -0.22   0.14   0.07     0.03  -0.02  -0.01
   2   6     0.01  -0.04   0.00     0.02  -0.01  -0.02    -0.00  -0.00   0.00
   3   6     0.00  -0.00   0.00     0.02  -0.00   0.01     0.01  -0.00   0.00
   4   6    -0.01   0.01  -0.01    -0.00   0.04   0.03     0.01   0.04   0.04
   5   6     0.07   0.04   0.03     0.01   0.01  -0.02     0.07   0.05  -0.27
   6   6     0.15   0.05   0.13     0.00   0.00  -0.00    -0.01  -0.00   0.02
   7  17    -0.00   0.00  -0.00     0.01  -0.01  -0.00    -0.00   0.00   0.00
   8   1    -0.00   0.00   0.00     0.78  -0.48  -0.19    -0.10   0.06   0.02
   9   1     0.01  -0.00   0.01    -0.02  -0.02   0.00     0.00   0.00   0.00
  10   1     0.01   0.00   0.01    -0.00   0.02  -0.03     0.00  -0.00   0.00
  11   1     0.05   0.09  -0.02    -0.08   0.05   0.03     0.00  -0.00  -0.00
  12   1    -0.05   0.05   0.00    -0.00  -0.01   0.01     0.00   0.00  -0.01
  13   1     0.01  -0.00  -0.00    -0.02  -0.00  -0.04    -0.01  -0.00  -0.01
  14   1    -0.00  -0.00  -0.01    -0.04   0.02   0.00    -0.01   0.01   0.00
  15   1     0.01   0.01   0.01     0.03  -0.11   0.01     0.02  -0.07   0.01
  16   1    -0.00  -0.02   0.01    -0.02  -0.04  -0.11    -0.04  -0.07  -0.18
  17   1    -0.09  -0.06   0.06     0.01   0.02   0.03     0.12   0.25   0.49
  18   1    -0.06  -0.06  -0.10    -0.04  -0.04   0.05    -0.36  -0.42   0.48
  19   1    -0.54  -0.20  -0.41    -0.00   0.00   0.00     0.03   0.04  -0.05
  20   1     0.04   0.31  -0.33    -0.01  -0.00  -0.00     0.02  -0.00   0.01
  21   1    -0.15  -0.34   0.23    -0.00  -0.00  -0.00    -0.01  -0.02  -0.04
                     46                     47                     48
                        a                      a                      a 
 Frequencies --  2913.4316              2932.8214              2941.8527
 Red. masses --     1.9214                 1.9034                 1.5323
 Frc consts  --     0.0000                 0.0000                 0.0000
 IR Inten    --    89.8312                 5.3822                36.0949
 Raman Activ --     0.0000                 0.0000                 0.0000
 Depolar     --     0.0000                 0.0000                 0.0000
 Atom AN      X      Y      Z        X      Y      Z        X      Y      Z
   1   7     0.03  -0.02  -0.01    -0.01   0.00   0.00    -0.01   0.01   0.00
   2   6     0.00   0.00  -0.00     0.02  -0.01  -0.01     0.01   0.00  -0.01
   3   6     0.02  -0.01  -0.01    -0.23   0.07  -0.14    -0.00   0.00   0.00
   4   6    -0.02   0.25   0.12     0.02  -0.01   0.06     0.01  -0.05   0.00
   5   6    -0.03  -0.03   0.04     0.00   0.01   0.01    -0.11  -0.16  -0.08
   6   6    -0.00  -0.00  -0.01    -0.00  -0.00  -0.00     0.03   0.01   0.01
   7  17    -0.00   0.00   0.00     0.00  -0.00  -0.00     0.00  -0.00  -0.00
   8   1    -0.12   0.07   0.03     0.03  -0.02  -0.01     0.03  -0.02  -0.01
   9   1     0.00   0.00  -0.00    -0.00  -0.00   0.00    -0.00  -0.00   0.00
  10   1     0.00  -0.00  -0.01     0.00   0.00  -0.01     0.00   0.00  -0.00
  11   1     0.01  -0.01  -0.00    -0.08   0.05   0.02    -0.01   0.00   0.00
  12   1    -0.00  -0.00   0.01     0.00  -0.00  -0.00    -0.01  -0.01   0.03
  13   1     0.02   0.00   0.04     0.29   0.05   0.60    -0.01  -0.00  -0.01
  14   1    -0.08   0.05   0.01     0.52  -0.31  -0.07     0.02  -0.01  -0.00
  15   1     0.19  -0.71   0.04    -0.03   0.14   0.00    -0.05   0.19  -0.01
  16   1    -0.11  -0.18  -0.49    -0.05  -0.11  -0.23    -0.00  -0.01  -0.02
  17   1     0.00  -0.00   0.02    -0.01  -0.02  -0.04     0.13   0.29   0.69
  18   1     0.12   0.13  -0.17    -0.00  -0.00   0.01     0.26   0.29  -0.41
  19   1    -0.00  -0.01   0.01     0.00   0.00  -0.01    -0.01  -0.02   0.04
  20   1     0.00   0.00  -0.00     0.00  -0.00   0.00    -0.07   0.00  -0.00
  21   1     0.01   0.01   0.03     0.00   0.01   0.01    -0.02  -0.04  -0.08
                     49                     50                     51
                        a                      a                      a 
 Frequencies --  2948.1156              2949.5274              2963.3774
 Red. masses --     1.5824                 1.8565                 1.5994
 Frc consts  --     0.0000                 0.0000                 0.0000
 IR Inten    --    40.4007                 3.4510                17.0728
 Raman Activ --     0.0000                 0.0000                 0.0000
 Depolar     --     0.0000                 0.0000                 0.0000
 Atom AN      X      Y      Z        X      Y      Z        X      Y      Z
   1   7    -0.01   0.00  -0.00     0.01  -0.01  -0.01     0.00  -0.00  -0.00
   2   6    -0.00  -0.01   0.01     0.17   0.05  -0.20    -0.05  -0.03   0.09
   3   6    -0.08   0.04  -0.03    -0.02   0.04   0.07    -0.07   0.09   0.16
   4   6    -0.07   0.07  -0.17    -0.00   0.01   0.00     0.01   0.02   0.04
   5   6    -0.01  -0.01  -0.04     0.00   0.01   0.00     0.00   0.00   0.01
   6   6     0.01   0.00   0.02     0.00   0.00  -0.01     0.00  -0.00  -0.01
   7  17     0.00  -0.00   0.00    -0.00   0.00   0.00     0.00   0.00  -0.00
   8   1     0.03  -0.01  -0.01    -0.05   0.03   0.01    -0.01   0.00   0.00
   9   1     0.00   0.00   0.00     0.00   0.00   0.00     0.00   0.00   0.00
  10   1    -0.00  -0.00   0.02     0.01   0.01  -0.01    -0.00  -0.00   0.01
  11   1    -0.03   0.02   0.01    -0.30   0.19   0.06     0.03  -0.03  -0.00
  12   1     0.03   0.03  -0.07    -0.32  -0.36   0.65     0.15   0.16  -0.30
  13   1     0.05   0.01   0.12    -0.13  -0.01  -0.24    -0.30  -0.03  -0.55
  14   1     0.23  -0.14  -0.03     0.22  -0.12  -0.01     0.54  -0.31  -0.03
  15   1     0.13  -0.54  -0.01     0.01  -0.04   0.00     0.00   0.00   0.01
  16   1     0.13   0.30   0.63     0.00   0.00   0.01    -0.03  -0.06  -0.14
  17   1     0.03   0.07   0.14    -0.00  -0.01  -0.02    -0.01  -0.01  -0.03
  18   1    -0.01  -0.01   0.00    -0.01  -0.01   0.02     0.01   0.01  -0.01
  19   1     0.01   0.01  -0.02    -0.01  -0.01   0.02    -0.00  -0.00   0.00
  20   1    -0.02  -0.00   0.00    -0.01   0.00  -0.00    -0.01  -0.00  -0.00
  21   1    -0.01  -0.02  -0.04     0.01   0.01   0.01     0.01   0.02   0.03
                     52                     53                     54
                        a                      a                      a 
 Frequencies --  2989.4015              2989.8207              2993.2921
 Red. masses --     1.9017                 1.7061                 1.8055
 Frc consts  --     0.0000                 0.0000                 0.0000
 IR Inten    --    39.2875                19.9870                52.4802
 Raman Activ --     0.0000                 0.0000                 0.0000
 Depolar     --     0.0000                 0.0000                 0.0000
 Atom AN      X      Y      Z        X      Y      Z        X      Y      Z
   1   7    -0.01   0.01   0.00     0.02  -0.01  -0.00    -0.01   0.01   0.00
   2   6    -0.04   0.04  -0.01     0.12  -0.12   0.02    -0.09   0.09  -0.01
   3   6    -0.01   0.01   0.00     0.03  -0.02  -0.01    -0.02   0.01  -0.00
   4   6    -0.00  -0.00  -0.01     0.00  -0.01  -0.01    -0.00   0.00  -0.01
   5   6    -0.02  -0.02  -0.01    -0.00  -0.01  -0.02     0.01   0.00  -0.03
   6   6    -0.25  -0.09  -0.07    -0.01  -0.03  -0.17     0.11   0.01  -0.21
   7  17     0.00  -0.00  -0.00    -0.00   0.00   0.00     0.00  -0.00  -0.00
   8   1     0.03  -0.02  -0.01    -0.05   0.03   0.01     0.03  -0.02  -0.01
   9   1    -0.00  -0.00  -0.00     0.00  -0.00   0.00    -0.00   0.00  -0.00
  10   1     0.00   0.00  -0.01    -0.00  -0.01   0.01     0.00   0.00  -0.01
  11   1     0.21  -0.11  -0.06    -0.58   0.33   0.16     0.42  -0.24  -0.12
  12   1    -0.05  -0.04   0.09     0.14   0.11  -0.24    -0.09  -0.07   0.16
  13   1    -0.00   0.00  -0.01     0.01  -0.00   0.02     0.01   0.00   0.02
  14   1     0.04  -0.02  -0.00    -0.11   0.06   0.01     0.06  -0.03  -0.01
  15   1    -0.00   0.00  -0.00    -0.01   0.02  -0.00     0.01  -0.02  -0.00
  16   1     0.01   0.02   0.04     0.01   0.01   0.03     0.01   0.01   0.03
  17   1     0.02   0.03   0.08     0.01   0.02   0.06     0.01   0.02   0.04
  18   1     0.03   0.03  -0.05    -0.00  -0.00   0.00    -0.03  -0.03   0.04
  19   1     0.06   0.12  -0.21    -0.10  -0.13   0.16    -0.19  -0.28   0.37
  20   1     0.75   0.00   0.06     0.01  -0.00  -0.03    -0.33  -0.00  -0.06
  21   1     0.07   0.19   0.40     0.13   0.25   0.47     0.14   0.24   0.43
                     55                     56                     57
                        a                      a                      a 
 Frequencies --  3009.6664              3228.3508              3237.8024
 Red. masses --     1.3133                 2.0275                 1.5030
 Frc consts  --     0.0000                 0.0000                 0.0000
 IR Inten    --    27.3743                59.8324                19.4805
 Raman Activ --     0.0000                 0.0000                 0.0000
 Depolar     --     0.0000                 0.0000                 0.0000
 Atom AN      X      Y      Z        X      Y      Z        X      Y      Z
   1   7     0.00  -0.00  -0.00     0.11   0.25  -0.08     0.04  -0.04  -0.19
   2   6     0.01  -0.01   0.00     0.00   0.01  -0.00    -0.00   0.00  -0.01
   3   6    -0.00   0.00  -0.00    -0.00  -0.00   0.00    -0.00   0.00  -0.00
   4   6     0.00   0.00   0.00     0.00   0.00   0.00     0.00   0.00   0.00
   5   6     0.00   0.01  -0.01     0.00   0.00   0.00    -0.00  -0.00   0.00
   6   6    -0.03   0.15  -0.07     0.00  -0.00   0.00    -0.00  -0.00   0.00
   7  17    -0.00  -0.00   0.00     0.00  -0.00   0.00    -0.00   0.00   0.00
   8   1    -0.00   0.00   0.00     0.01   0.02  -0.01     0.05  -0.03  -0.03
   9   1    -0.00  -0.00  -0.00    -0.19  -0.77  -0.13     0.14   0.52   0.06
  10   1    -0.00  -0.00   0.00    -0.21  -0.18   0.45    -0.32  -0.32   0.68
  11   1    -0.03   0.01   0.01     0.00  -0.00  -0.00     0.01  -0.00   0.00
  12   1     0.01   0.01  -0.02    -0.01  -0.01   0.01    -0.01  -0.01   0.01
  13   1     0.00   0.00   0.00     0.00   0.00  -0.00     0.00   0.00   0.00
  14   1     0.01  -0.00  -0.00     0.00  -0.00  -0.00    -0.00   0.00  -0.00
  15   1     0.00  -0.01   0.00    -0.00  -0.00   0.00    -0.00   0.00  -0.00
  16   1    -0.00  -0.00  -0.00    -0.00  -0.01  -0.01    -0.00  -0.01  -0.01
  17   1    -0.00  -0.00  -0.01    -0.00  -0.00  -0.00    -0.00   0.00   0.00
  18   1    -0.02  -0.02   0.03     0.00  -0.00   0.00     0.00   0.00  -0.00
  19   1    -0.29  -0.39   0.57     0.00   0.00  -0.00     0.00   0.00  -0.00
  20   1     0.50   0.03   0.03    -0.00   0.00  -0.00     0.00   0.00   0.00
  21   1    -0.09  -0.16  -0.35     0.00  -0.00  -0.00    -0.00  -0.00   0.00
