      -----------------------------------------------------------      
     |                   =====================                   |     
     |                           x T B                           |     
     |                   =====================                   |     
     |                         S. Grimme                         |     
     |          Mulliken Center for Theoretical Chemistry        |     
     |                    University of Bonn                     |     
      -----------------------------------------------------------      

   * xtb version 6.5.1 (fef0646) compiled by 'conda@b96dff2e9fd6' on 2023-01-04

   xtb is free software: you can redistribute it and/or modify it under
   the terms of the GNU Lesser General Public License as published by
   the Free Software Foundation, either version 3 of the License, or
   (at your option) any later version.
   
   xtb is distributed in the hope that it will be useful,
   but WITHOUT ANY WARRANTY; without even the implied warranty of
   MERCHANTABILITY or FITNESS FOR A PARTICULAR PURPOSE.  See the
   GNU Lesser General Public License for more details.
   
   Cite this work as:
   * C. Bannwarth, E. Caldeweyher, S. Ehlert, A. Hansen, P. Pracht,
     J. Seibert, S. Spicher, S. Grimme, WIREs Comput. Mol. Sci., 2020, 11,
     e01493. DOI: 10.1002/wcms.1493
   
   for GFN2-xTB:
   * C. Bannwarth, S. Ehlert and S. Grimme., J. Chem. Theory Comput., 2019,
     15, 1652-1671. DOI: 10.1021/acs.jctc.8b01176
   for GFN1-xTB:
   * S. Grimme, C. Bannwarth, P. Shushkov, J. Chem. Theory Comput., 2017,
     13, 1989-2009. DOI: 10.1021/acs.jctc.7b00118
   for GFN0-xTB:
   * P. Pracht, E. Caldeweyher, S. Ehlert, S. Grimme, ChemRxiv, 2019, preprint.
     DOI: 10.26434/chemrxiv.8326202.v1
   for GFN-FF:
   * S. Spicher and S. Grimme, Angew. Chem. Int. Ed., 2020, 59, 15665-15673.
     DOI: 10.1002/anie.202004239
   
   for ALPB and GBSA implicit solvation:
   * S. Ehlert, M. Stahn, S. Spicher, S. Grimme, J. Chem. Theory Comput.,
     2021, 17, 4250-4261. DOI: 10.1021/acs.jctc.1c00471
   
   for DFT-D4:
   * E. Caldeweyher, C. Bannwarth and S. Grimme, J. Chem. Phys., 2017,
     147, 034112. DOI: 10.1063/1.4993215
   * E. Caldeweyher, S. Ehlert, A. Hansen, H. Neugebauer, S. Spicher,
     C. Bannwarth and S. Grimme, J. Chem. Phys., 2019, 150, 154122.
     DOI: 10.1063/1.5090222
   * E. Caldeweyher, J.-M. Mewes, S. Ehlert and S. Grimme, Phys. Chem. Chem. Phys.
     2020, 22, 8499-8512. DOI: 10.1039/D0CP00502A
   
   for sTDA-xTB:
   * S. Grimme and C. Bannwarth, J. Chem. Phys., 2016, 145, 054103.
     DOI: 10.1063/1.4959605
   
   in the mass-spec context:
   * V. Asgeirsson, C. Bauer and S. Grimme, Chem. Sci., 2017, 8, 4879.
     DOI: 10.1039/c7sc00601b
   * J. Koopman and S. Grimme, ACS Omega 2019, 4, 12, 15120-15133.
     DOI: 10.1021/acsomega.9b02011
   
   for metadynamics refer to:
   * S. Grimme, J. Chem. Theory Comput., 2019, 155, 2847-2862
     DOI: 10.1021/acs.jctc.9b00143
   
   for SPH calculations refer to:
   * S. Spicher and S. Grimme, J. Chem. Theory Comput., 2021, 17, 1701-1714
     DOI: 10.1021/acs.jctc.0c01306
   
   with help from (in alphabetical order)
   P. Atkinson, C. Bannwarth, F. Bohle, G. Brandenburg, E. Caldeweyher
   M. Checinski, S. Dohm, S. Ehlert, S. Ehrlich, I. Gerasimov, C. Hölzer
   A. Katbashev, J. Koopman, C. Lavigne, S. Lehtola, F. März, M. Müller,
   F. Musil, H. Neugebauer, J. Pisarek, C. Plett, P. Pracht, F. Pultar,
   J. Seibert, P. Shushkov, S. Spicher, M. Stahn, M. Steiner, T. Strunk,
   J. Stückrath, T. Rose, and J. Unsleber
   
 * started run on 2023/01/24 at 14:57:53.321     

           -------------------------------------------------
          |                Calculation Setup                |
           -------------------------------------------------

          program call               : xtb init.xyz --opt -c 1 -u 0 -P 16 --alpb water
          hostname                   : gpg-woodward
          coordinate file            : init.xyz
          omp threads                :                    16

   ID    Z sym.   atoms
    1    7 N      1
    2    6 C      2-13
    3    1 H      14-41

           -------------------------------------------------
          |                 G F N 2 - x T B                 |
           -------------------------------------------------

        Reference                      10.1021/acs.jctc.8b01176
      * Hamiltonian:
        H0-scaling (s, p, d)           1.850000    2.230000    2.230000
        zeta-weighting                 0.500000
      * Dispersion:
        s8                             2.700000
        a1                             0.520000
        a2                             5.000000
        s9                             5.000000
      * Repulsion:
        kExp                           1.500000    1.000000
        rExp                           1.000000
      * Coulomb:
        alpha                          2.000000
        third order                    shell-resolved
        anisotropic                    true
        a3                             3.000000
        a5                             4.000000
        cn-shift                       1.200000
        cn-exp                         4.000000
        max-rad                        5.000000

      * Solvation model:               ALPB
        Solvent                        water
        Parameter file                 internal GFN2-xTB/ALPB
        Dielectric constant                8.0200E+01
        Reference state                gsolv [1 M gas/solution]
        Free energy shift                  1.0808E-03 Eh       6.7819E-01 kcal/mol
        Temperature                        2.9815E+02 K
        Density                            1.0000E+00 kg/L
        Solvent mass                       1.8000E+01 g/mol
        Interaction kernel             P16
        Born radius scaling (c1)           1.4744E+00
        Born radii integrator          GBOBC
        Born offset                        0.0000E+00 a0       0.0000E+00 AA
        H-bond correction              true
        Ion screening                  false
        Surface tension                    1.0000E-05 Eh       1.5569E+01 dyn/cm
        Grid points                               230 per atom

          ...................................................
          :                      SETUP                      :
          :.................................................:
          :  # basis functions                  80          :
          :  # atomic orbitals                  80          :
          :  # shells                           54          :
          :  # electrons                        80          :
          :  max. iterations                   250          :
          :  Hamiltonian                  GFN2-xTB          :
          :  restarted?                      false          :
          :  GBSA solvation                   true          :
          :  PC potential                    false          :
          :  electronic temp.          300.0000000     K    :
          :  accuracy                    1.0000000          :
          :  -> integral cutoff          0.2500000E+02      :
          :  -> integral neglect         0.1000000E-07      :
          :  -> SCF convergence          0.1000000E-05 Eh   :
          :  -> wf. convergence          0.1000000E-03 e    :
          :  Broyden damping             0.4000000          :
          ...................................................

 iter      E             dE          RMSdq      gap      omega  full diag
   1    -43.1023663 -0.431024E+02  0.281E+00   11.26       0.0  T
   2    -43.1998834 -0.975171E-01  0.154E+00   10.13       1.0  T
   3    -43.2046862 -0.480278E-02  0.795E-01    9.69       1.0  T
   4    -43.2051776 -0.491423E-03  0.110E-01    9.59       1.0  T
   5    -43.2051932 -0.155760E-04  0.564E-02    9.61       1.0  T
   6    -43.2051969 -0.363820E-05  0.102E-02    9.64       1.5  T
   7    -43.2051972 -0.359222E-06  0.484E-03    9.64       3.2  T
   8    -43.2051972 -0.331083E-07  0.178E-03    9.64       8.8  T
   9    -43.2051973 -0.714169E-08  0.224E-04    9.64      69.7  T
  10    -43.2051973 -0.308134E-09  0.992E-05    9.64     157.5  T

   *** convergence criteria satisfied after 10 iterations ***

         #    Occupation            Energy/Eh            Energy/eV
      -------------------------------------------------------------
         1        2.0000           -0.6933244             -18.8663
       ...           ...                  ...                  ...
        34        2.0000           -0.4314378             -11.7400
        35        2.0000           -0.4287299             -11.6663
        36        2.0000           -0.4253232             -11.5736
        37        2.0000           -0.4191561             -11.4058
        38        2.0000           -0.4166938             -11.3388
        39        2.0000           -0.4163484             -11.3294
        40        2.0000           -0.4079474             -11.1008 (HOMO)
        41                         -0.0537738              -1.4633 (LUMO)
        42                          0.0424080               1.1540
        43                          0.0635679               1.7298
        44                          0.0793744               2.1599
        45                          0.0869515               2.3661
       ...                                ...                  ...
        80                          0.3195673               8.6959
      -------------------------------------------------------------
                  HL-Gap            0.3541736 Eh            9.6376 eV
             Fermi-level           -0.2308606 Eh           -6.2820 eV

 SCC (total)                   0 d,  0 h,  0 min,  0.062 sec
 SCC setup                      ...        0 min,  0.001 sec (  1.333%)
 Dispersion                     ...        0 min,  0.001 sec (  1.525%)
 classical contributions        ...        0 min,  0.000 sec (  0.181%)
 integral evaluation            ...        0 min,  0.002 sec (  2.940%)
 iterations                     ...        0 min,  0.051 sec ( 82.954%)
 molecular gradient             ...        0 min,  0.006 sec (  9.276%)
 printout                       ...        0 min,  0.001 sec (  1.200%)

         :::::::::::::::::::::::::::::::::::::::::::::::::::::
         ::                     SUMMARY                     ::
         :::::::::::::::::::::::::::::::::::::::::::::::::::::
         :: total energy             -42.593995894776 Eh    ::
         :: total w/o Gsasa/hb       -42.582210742859 Eh    ::
         :: gradient norm              0.025668135241 Eh/a0 ::
         :: HOMO-LUMO gap              9.637553172584 eV    ::
         ::.................................................::
         :: SCC energy               -43.205197252407 Eh    ::
         :: -> isotropic ES            0.128376365262 Eh    ::
         :: -> anisotropic ES         -0.004274810361 Eh    ::
         :: -> anisotropic XC          0.029057484332 Eh    ::
         :: -> dispersion             -0.024914067292 Eh    ::
         :: -> Gsolv                  -0.118409403758 Eh    ::
         ::    -> Gelec               -0.106624251841 Eh    ::
         ::    -> Gsasa               -0.001489915561 Eh    ::
         ::    -> Ghb                 -0.011375996053 Eh    ::
         ::    -> Gshift               0.001080759698 Eh    ::
         :: repulsion energy           0.611516507731 Eh    ::
         :: add. restraining           0.000000000000 Eh    ::
         :: total charge               1.000000000000 e     ::
         :::::::::::::::::::::::::::::::::::::::::::::::::::::

      ----------------------------------------------------------- 
     |                   =====================                   |
     |                        A N C O P T                        |
     |                   =====================                   |
     |               Approximate Normal Coordinate               |
     |                Rational Function Optimizer                |
      ----------------------------------------------------------- 

          ...................................................
          :                      SETUP                      :
          :.................................................:
          :   optimization level            normal          :
          :   max. optcycles                   200          :
          :   ANC micro-cycles                  20          :
          :   degrees of freedom               117          :
          :.................................................:
          :   RF solver                   davidson          :
          :   write xtbopt.log                true          :
          :   linear?                        false          :
          :   energy convergence         0.5000000E-05 Eh   :
          :   grad. convergence          0.1000000E-02 Eh/α :
          :   maximium RF displ.         1.0000000          :
          :   Hlow (freq-cutoff)         0.1000000E-01      :
          :   Hmax (freq-cutoff)         5.0000000          :
          :   S6 in model hess.         20.0000000          :
          ...................................................

generating ANC from model Hessian ...
Using Lindh-Hessian (1995)
 Shifting diagonal of input Hessian by    9.8062434389748869E-003
 Lowest  eigenvalues of input Hessian
    0.000000    0.000000    0.000000    0.000000    0.000000    0.000000
    0.010000    0.010056    0.010712    0.011141    0.011168    0.012186
    0.012618    0.013280    0.013955    0.014048    0.015130    0.016095
 Highest eigenvalues
    1.262859    1.290191    1.309062    1.404109    1.407078    1.454324


........................................................................
.............................. CYCLE    1 ..............................
........................................................................
   1    -43.2051973 -0.432052E+02  0.289E-05    9.64       0.0  T
   2    -43.2051973 -0.287770E-11  0.184E-05    9.64     851.1  T
   3    -43.2051973 -0.390799E-12  0.771E-06    9.64    2025.7  T
     SCC iter.                  ...        0 min,  0.017 sec
     gradient                   ...        0 min,  0.005 sec
 * total energy  :   -42.5939959 Eh     change       -0.1602984E-10 Eh
   gradient norm :     0.0256684 Eh/α   predicted     0.0000000E+00 (-100.00%)
   displ. norm   :     0.1920086 α      lambda       -0.2915402E-02
   maximum displ.:     0.1238261 α      in ANC's #8, #52, #46, ...

........................................................................
.............................. CYCLE    2 ..............................
........................................................................
   1    -43.2207446 -0.432207E+02  0.134E-01    9.71       0.0  T
   2    -43.2207528 -0.818053E-05  0.781E-02    9.72       1.0  T
   3    -43.2207540 -0.120537E-05  0.553E-03    9.73       2.8  T
   4    -43.2207541 -0.100268E-06  0.239E-03    9.73       6.5  T
   5    -43.2207541 -0.417791E-08  0.102E-03    9.73      15.3  T
   6    -43.2207541 -0.146291E-08  0.157E-04    9.73      99.2  T
   7    -43.2207541 -0.828919E-10  0.921E-05    9.73     169.6  T
     SCC iter.                  ...        0 min,  0.035 sec
     gradient                   ...        0 min,  0.005 sec
 * total energy  :   -42.5956684 Eh     change       -0.1672497E-02 Eh
   gradient norm :     0.0092599 Eh/α   predicted    -0.1511452E-02 (  -9.63%)
   displ. norm   :     0.0847284 α      lambda       -0.2385542E-03
   maximum displ.:     0.0731511 α      in ANC's #8, #15, #20, ...

........................................................................
.............................. CYCLE    3 ..............................
........................................................................
   1    -43.2227157 -0.432227E+02  0.289E-02    9.78       0.0  T
   2    -43.2227172 -0.152758E-05  0.168E-02    9.78       1.0  T
   3    -43.2227173 -0.721259E-07  0.313E-03    9.78       5.0  T
   4    -43.2227173 -0.242354E-07  0.735E-04    9.78      21.3  T
   5    -43.2227173 -0.104437E-08  0.374E-04    9.78      41.8  T
     SCC iter.                  ...        0 min,  0.026 sec
     gradient                   ...        0 min,  0.005 sec
 * total energy  :   -42.5958255 Eh     change       -0.1570705E-03 Eh
   gradient norm :     0.0035578 Eh/α   predicted    -0.1214716E-03 ( -22.66%)
   displ. norm   :     0.0659889 α      lambda       -0.6280208E-04
   maximum displ.:     0.0610528 α      in ANC's #8, #15, #17, ...

........................................................................
.............................. CYCLE    4 ..............................
........................................................................
   1    -43.2222327 -0.432222E+02  0.126E-02    9.80       0.0  T
   2    -43.2222330 -0.303123E-06  0.744E-03    9.80       2.1  T
   3    -43.2222330 -0.167078E-07  0.136E-03    9.80      11.5  T
   4    -43.2222330 -0.558606E-08  0.362E-04    9.80      43.2  T
   5    -43.2222330 -0.211813E-09  0.168E-04    9.80      92.7  T
     SCC iter.                  ...        0 min,  0.025 sec
     gradient                   ...        0 min,  0.004 sec
 * total energy  :   -42.5958634 Eh     change       -0.3795542E-04 Eh
   gradient norm :     0.0009474 Eh/α   predicted    -0.3157305E-04 ( -16.82%)
   displ. norm   :     0.0419305 α      lambda       -0.8965940E-05
   maximum displ.:     0.0398778 α      in ANC's #8, #15, #17, ...

........................................................................
.............................. CYCLE    5 ..............................
........................................................................
   1    -43.2213202 -0.432213E+02  0.715E-03    9.81       0.0  T
   2    -43.2213202 -0.133482E-07  0.419E-03    9.80       3.7  T
   3    -43.2213202 -0.505699E-08  0.290E-04    9.80      53.9  T
   4    -43.2213202 -0.216481E-09  0.169E-04    9.80      92.4  T
     SCC iter.                  ...        0 min,  0.017 sec
     gradient                   ...        0 min,  0.004 sec
 * total energy  :   -42.5958708 Eh     change       -0.7333782E-05 Eh
   gradient norm :     0.0007691 Eh/α   predicted    -0.4487559E-05 ( -38.81%)
   displ. norm   :     0.0415503 α      lambda        0.8253938E-05
   maximum displ.:     0.0395109 α      in ANC's #8, #15, #17, ...

........................................................................
.............................. CYCLE    6 ..............................
........................................................................
   1    -43.2203926 -0.432204E+02  0.710E-03    9.81       0.0  T
   2    -43.2203926 -0.134971E-07  0.417E-03    9.81       3.7  T
   3    -43.2203927 -0.499632E-08  0.293E-04    9.80      53.4  T
   4    -43.2203927 -0.254566E-09  0.171E-04    9.80      91.2  T
     SCC iter.                  ...        0 min,  0.017 sec
     gradient                   ...        0 min,  0.004 sec
 * total energy  :   -42.5958658 Eh     change        0.4919160E-05 Eh
   gradient norm :     0.0017009 Eh/α   predicted     0.4129578E-05 ( -16.05%)
   displ. norm   :     0.0255305 α      lambda       -0.7870703E-05
   maximum displ.:     0.0219292 α      in ANC's #8, #15, #17, ...

........................................................................
.............................. CYCLE    7 ..............................
........................................................................
   1    -43.2211366 -0.432211E+02  0.586E-03    9.80       0.0  T
   2    -43.2211366 -0.250885E-07  0.345E-03    9.80       4.5  T
   3    -43.2211366 -0.416590E-08  0.331E-04    9.80      47.2  T
   4    -43.2211366 -0.487809E-09  0.160E-04    9.80      97.4  T
     SCC iter.                  ...        0 min,  0.017 sec
     gradient                   ...        0 min,  0.004 sec
 * total energy  :   -42.5958726 Eh     change       -0.6721068E-05 Eh
   gradient norm :     0.0002333 Eh/α   predicted    -0.3956368E-05 ( -41.13%)
   displ. norm   :     0.0072842 α      lambda       -0.4146341E-06
   maximum displ.:     0.0047953 α      in ANC's #9, #8, #6, ...

........................................................................
.............................. CYCLE    8 ..............................
........................................................................
   1    -43.2212247 -0.432212E+02  0.164E-03    9.79       0.0  T
   2    -43.2212247 -0.133249E-08  0.952E-04    9.79      16.4  T
   3    -43.2212247 -0.326537E-09  0.729E-05    9.79     214.2  T
     SCC iter.                  ...        0 min,  0.014 sec
     gradient                   ...        0 min,  0.004 sec
 * total energy  :   -42.5958730 Eh     change       -0.4135608E-06 Eh
   gradient norm :     0.0000780 Eh/α   predicted    -0.2089796E-06 ( -49.47%)
   displ. norm   :     0.0092031 α      lambda       -0.2289133E-06
   maximum displ.:     0.0054900 α      in ANC's #9, #3, #6, ...

   *** GEOMETRY OPTIMIZATION CONVERGED AFTER 8 ITERATIONS ***

------------------------------------------------------------------------
 total energy gain   :        -0.0018771 Eh       -1.1779 kcal/mol
 total RMSD          :         0.0565495 a0        0.0299 Å
 total power (kW/mol):        -0.6160317 (step)  -18.6871 (real)
------------------------------------------------------------------------

 ANCopt (total)                0 d,  0 h,  0 min,  0.264 sec
 optimizer setup                ...        0 min,  0.000 sec (  0.077%)
 model hessian                  ...        0 min,  0.022 sec (  8.261%)
 ANC generation                 ...        0 min,  0.009 sec (  3.236%)
 coordinate transformation      ...        0 min,  0.000 sec (  0.177%)
 single point calculation       ...        0 min,  0.228 sec ( 86.459%)
 optimization log               ...        0 min,  0.001 sec (  0.519%)
 hessian update                 ...        0 min,  0.000 sec (  0.157%)
 rational function              ...        0 min,  0.001 sec (  0.319%)

================
 final structure:
================
41
 xtb: 6.5.1 (fef0646)
N            0.80726734370563        0.00806194584697        0.08807864954897
C            2.29106042512747        0.00161496298290        0.08368982236513
C            2.82030023563712       -1.08597360912505       -0.84398999662265
C            4.34833958578436       -1.10230843788148       -0.85457085154855
C            4.89129374028896       -2.18853103809896       -1.78093314767976
C            6.41773092081644       -2.21251618515012       -1.80021856786273
C            6.95918556147775       -3.29849298426574       -2.72702698172983
C            8.48551888723482       -3.32574981723596       -2.75028173210223
C            9.02534093137894       -4.41230902807008       -3.67725513409997
C           10.55174744982282       -4.44124674426333       -3.70169406343055
C           11.09044763941766       -5.52786628783566       -4.62918556982795
C           12.61690944713091       -5.55901939981109       -4.65532116575070
C           13.14675053169712       -6.64549833056078       -5.58370825598610
H            0.44744451118662        0.74103020013012        0.70963551781222
H            0.45114969607500       -0.90075269872693        0.40753428939788
H            0.45294767891264        0.17684135872208       -0.86088878359587
H            2.65159522481233       -0.17260643394381        1.09730562337266
H            2.65222521522909        0.97501466771332       -0.24767890886322
H            2.46976664693421       -0.91714351610071       -1.86312642684594
H            2.46685633811559       -2.06539863551031       -0.51875835987119
H            4.72503308811723       -1.27788150565359        0.15482780464439
H            4.72794483051249       -0.13370176915605       -1.18516392248267
H            4.52800850155744       -2.02125093714913       -2.79739760946763
H            4.52695253267812       -3.16572246331898       -1.45614711969423
H            6.79443638738023       -2.38610074857096       -0.78943019090387
H            6.79540906931894       -1.24173124471665       -2.12985479421461
H            6.58988758093732       -3.12929429138224       -3.74139651829164
H            6.58985900865467       -4.27366346887073       -2.40055884889511
H            8.86168583795533       -3.49815489554843       -1.73895506276662
H            8.86164417709131       -2.35421710435958       -3.07990715292510
H            8.65371138091039       -4.24201900410677       -4.69060755689621
H            8.65349555746608       -5.38615279047153       -3.34962832411147
H           10.92718085400916       -4.61359090641850       -2.69002715938472
H           10.92739586591015       -3.46924094803506       -4.03064284410942
H           10.71787408345095       -5.35651524322237       -5.64203283694562
H           10.71749161405896       -6.50118819345628       -4.30120993163842
H           12.99164054189915       -5.73245260335157       -3.64389955341570
H           12.99209528235590       -4.58710630490727       -4.98411432309159
H           12.80041550001085       -7.62494238290518       -5.26113963130176
H           14.23406582862725       -6.65005397222090       -5.58707019337831
H           12.80103446631259       -6.47914921099362       -6.60161018740934

 Bond Distances (Angstroems)
 ---------------------------
N1-C2=1.4838         N1-H14=1.0262        N1-H15=1.0270        N1-H16=1.0269        C2-N1=1.4838         C2-C3=1.5243         
C2-H17=1.0898        C2-H18=1.0898        C3-C2=1.5243         C3-C4=1.5282         C3-H19=1.0909        C3-H20=1.0909        
C4-C3=1.5282         C4-C5=1.5274         C4-H21=1.0916        C4-H22=1.0916        C5-C4=1.5274         C5-C6=1.5267         
C5-H23=1.0923        C5-H24=1.0923        C6-C5=1.5267         C6-C7=1.5269         C6-H25=1.0926        C6-H26=1.0926        
C7-C6=1.5269         C7-C8=1.5268         C7-H27=1.0927        C7-H28=1.0927        C8-C7=1.5268         C8-C9=1.5269         
C8-H29=1.0927        C8-H30=1.0927        C9-C8=1.5269         C9-C10=1.5269        C9-H31=1.0927        C9-H32=1.0927        
C10-C9=1.5269        C10-C11=1.5268       C10-H33=1.0928       C10-H34=1.0928       C11-C10=1.5268       C11-C12=1.5270       
C11-H35=1.0927       C11-H36=1.0927       C12-C11=1.5270       C12-C13=1.5242       C12-H37=1.0925       C12-H38=1.0925       
C13-C12=1.5242       C13-H39=1.0878       C13-H40=1.0873       C13-H41=1.0878       H14-N1=1.0262        H15-N1=1.0270        
H16-N1=1.0269        H17-C2=1.0898        H18-C2=1.0898        H19-C3=1.0909        H20-C3=1.0909        H21-C4=1.0916        
H22-C4=1.0916        H23-C5=1.0923        H24-C5=1.0923        H25-C6=1.0926        H26-C6=1.0926        H27-C7=1.0927        
H28-C7=1.0927        H29-C8=1.0927        H30-C8=1.0927        H31-C9=1.0927        H32-C9=1.0927        H33-C10=1.0928       
H34-C10=1.0928       H35-C11=1.0927       H36-C11=1.0927       H37-C12=1.0925       H38-C12=1.0925       H39-C13=1.0878       
H40-C13=1.0873       H41-C13=1.0878       
 C  H  Rav=1.0916 sigma=0.0017  Rmin=1.0873  Rmax=1.0928    25
 C  C  Rav=1.5265 sigma=0.0012  Rmin=1.5242  Rmax=1.5282    11
 N  H  Rav=1.0267 sigma=0.0004  Rmin=1.0262  Rmax=1.0270     3
 N  C  Rav=1.4838 sigma=0.0000  Rmin=1.4838  Rmax=1.4838     1

 selected bond angles (degree)
 --------------------
H14-N1-C2=110.83               H15-N1-C2=110.11               H15-N1-H14=108.79              H16-N1-C2=110.06               
H16-N1-H14=108.74              H16-N1-H15=108.25              C3-C2-N1=110.62                H17-C2-N1=109.19               
H17-C2-C3=109.70               H18-C2-N1=109.17               H18-C2-C3=109.70               H18-C2-H17=108.42              
C4-C3-C2=111.04                H19-C3-C2=110.28               H19-C3-C4=108.45               H20-C3-C2=110.28               
H20-C3-C4=108.45               H20-C3-H19=108.26              C5-C4-C3=111.55                H21-C4-C3=109.90               
H21-C4-C5=108.89               H22-C4-C3=109.90               H22-C4-C5=108.89               H22-C4-H21=107.62              
C6-C5-C4=111.98                H23-C5-C4=109.71               H23-C5-C6=108.85               H24-C5-C4=109.71               
H24-C5-C6=108.86               H24-C5-H23=107.62              C7-C6-C5=111.92                H25-C6-C5=109.60               
H25-C6-C7=109.04               H26-C6-C5=109.60               H26-C6-C7=109.04               H26-C6-H25=107.52              
C8-C7-C6=112.11                H27-C7-C6=109.48               H27-C7-C8=109.06               H28-C7-C6=109.48               
H28-C7-C8=109.06               H28-C7-H27=107.54              C9-C8-C7=112.05                H29-C8-C7=109.44               
H29-C8-C9=109.14               H30-C8-C7=109.44               H30-C8-C9=109.14               H30-C8-H29=107.52              
C10-C9-C8=112.13               H31-C9-C8=109.38               H31-C9-C10=109.15              H32-C9-C8=109.38               
H32-C9-C10=109.15              H32-C9-H31=107.53              C11-C10-C9=112.08              H33-C10-C9=109.37              
H33-C10-C11=109.20             H34-C10-C9=109.37              H34-C10-C11=109.20             H34-C10-H33=107.51             

 selected dihedral angles (degree)
 ---------------------------------
C3-C2-N1-H14=180.17           C3-C2-N1-H15= 59.75           C3-C2-N1-H16=300.49           H17-C2-N1-H14= 59.35          
H17-C2-N1-H15=298.93          H17-C2-N1-H16=179.67          H18-C2-N1-H14=300.97          H18-C2-N1-H15=180.56          
H18-C2-N1-H16= 61.30          C4-C3-C2-N1=180.07            C4-C3-C2-H17=300.58           C4-C3-C2-H18= 59.58           
H19-C3-C2-N1= 59.83           H19-C3-C2-H17=180.34          H19-C3-C2-H18=299.34          H20-C3-C2-N1=300.31           
H20-C3-C2-H17= 60.82          H20-C3-C2-H18=179.82          C5-C4-C3-C2=180.00            C5-C4-C3-H19=301.31           
C5-C4-C3-H20= 58.67           H21-C4-C3-C2= 59.12           H21-C4-C3-H19=180.44          H21-C4-C3-H20=297.80          
H22-C4-C3-C2=300.87           H22-C4-C3-H19= 62.18          H22-C4-C3-H20=179.54          C6-C5-C4-C3=179.93            
C6-C5-C4-H21=301.39           C6-C5-C4-H22= 58.48           H23-C5-C4-C3= 58.95           H23-C5-C4-H21=180.41          
H23-C5-C4-H22=297.50          H24-C5-C4-C3=300.92           H24-C5-C4-H21= 62.38          H24-C5-C4-H22=179.46          
C7-C6-C5-C4=180.02            C7-C6-C5-H23=301.49           C7-C6-C5-H24= 58.54           H25-C6-C5-C4= 58.91           
H25-C6-C5-H23=180.38          H25-C6-C5-H24=297.43          H26-C6-C5-C4=301.13           H26-C6-C5-H23= 62.60          
H26-C6-C5-H24=179.65          C8-C7-C6-C5=179.96            C8-C7-C6-H25=301.40           C8-C7-C6-H26= 58.53           
H27-C7-C6-C5= 58.79           H27-C7-C6-H25=180.23          H27-C7-C6-H26=297.37          H28-C7-C6-C5=301.14           
H28-C7-C6-H25= 62.57          H28-C7-C6-H26=179.71          C9-C8-C7-C6=179.99            C9-C8-C7-H27=301.40           
C9-C8-C7-H28= 58.57           H29-C8-C7-C6= 58.78           H29-C8-C7-H27=180.20          H29-C8-C7-H28=297.36          
H30-C8-C7-C6=301.19           H30-C8-C7-H27= 62.61          H30-C8-C7-H28=179.78          C10-C9-C8-C7=180.01           
C10-C9-C8-H29=301.39          C10-C9-C8-H30= 58.63          H31-C9-C8-C7= 58.77           H31-C9-C8-H29=180.16          
H31-C9-C8-H30=297.40          H32-C9-C8-C7=301.24           H32-C9-C8-H29= 62.62          H32-C9-C8-H30=179.86          
C11-C10-C9-C8=180.01          C11-C10-C9-H31=301.38         C11-C10-C9-H32= 58.65         H33-C10-C9-C8= 58.76          
H33-C10-C9-H31=180.12         H33-C10-C9-H32=297.39         H34-C10-C9-C8=301.27          H34-C10-C9-H31= 62.63         
H34-C10-C9-H32=179.90         
           -------------------------------------------------
          |                Final Singlepoint                |
           -------------------------------------------------

          ...................................................
          :                      SETUP                      :
          :.................................................:
          :  # basis functions                  80          :
          :  # atomic orbitals                  80          :
          :  # shells                           54          :
          :  # electrons                        80          :
          :  max. iterations                   250          :
          :  Hamiltonian                  GFN2-xTB          :
          :  restarted?                      false          :
          :  GBSA solvation                   true          :
          :  PC potential                    false          :
          :  electronic temp.          300.0000000     K    :
          :  accuracy                    1.0000000          :
          :  -> integral cutoff          0.2500000E+02      :
          :  -> integral neglect         0.1000000E-07      :
          :  -> SCF convergence          0.1000000E-05 Eh   :
          :  -> wf. convergence          0.1000000E-03 e    :
          :  Broyden damping             0.4000000          :
          ...................................................

 iter      E             dE          RMSdq      gap      omega  full diag
   1    -43.2212247 -0.432212E+02  0.401E-05    9.79       0.0  T
   2    -43.2212247 -0.127898E-11  0.249E-05    9.79     627.1  T
   3    -43.2212247 -0.625278E-12  0.400E-06    9.79    3900.4  T

   *** convergence criteria satisfied after 3 iterations ***

         #    Occupation            Energy/Eh            Energy/eV
      -------------------------------------------------------------
         1        2.0000           -0.6923814             -18.8407
       ...           ...                  ...                  ...
        34        2.0000           -0.4300473             -11.7022
        35        2.0000           -0.4264275             -11.6037
        36        2.0000           -0.4262123             -11.5978
        37        2.0000           -0.4198242             -11.4240
        38        2.0000           -0.4166760             -11.3383
        39        2.0000           -0.4161755             -11.3247
        40        2.0000           -0.4118922             -11.2082 (HOMO)
        41                         -0.0519357              -1.4132 (LUMO)
        42                          0.0317058               0.8628
        43                          0.0545954               1.4856
        44                          0.0764605               2.0806
        45                          0.0954911               2.5984
       ...                                ...                  ...
        80                          0.3261884               8.8760
      -------------------------------------------------------------
                  HL-Gap            0.3599565 Eh            9.7949 eV
             Fermi-level           -0.2319140 Eh           -6.3107 eV

 SCC (total)                   0 d,  0 h,  0 min,  0.020 sec
 SCC setup                      ...        0 min,  0.000 sec (  1.397%)
 Dispersion                     ...        0 min,  0.000 sec (  1.964%)
 classical contributions        ...        0 min,  0.000 sec (  0.212%)
 integral evaluation            ...        0 min,  0.001 sec (  5.224%)
 iterations                     ...        0 min,  0.013 sec ( 66.567%)
 molecular gradient             ...        0 min,  0.004 sec ( 21.067%)
 printout                       ...        0 min,  0.001 sec (  2.669%)

         :::::::::::::::::::::::::::::::::::::::::::::::::::::
         ::                     SUMMARY                     ::
         :::::::::::::::::::::::::::::::::::::::::::::::::::::
         :: total energy             -42.595872967308 Eh    ::
         :: total w/o Gsasa/hb       -42.583842721801 Eh    ::
         :: gradient norm              0.000079800173 Eh/a0 ::
         :: HOMO-LUMO gap              9.794914092652 eV    ::
         ::.................................................::
         :: SCC energy               -43.221224727318 Eh    ::
         :: -> isotropic ES            0.128761950915 Eh    ::
         :: -> anisotropic ES         -0.005688846748 Eh    ::
         :: -> anisotropic XC          0.028109806404 Eh    ::
         :: -> dispersion             -0.024822764834 Eh    ::
         :: -> Gsolv                  -0.118785212179 Eh    ::
         ::    -> Gelec               -0.106754966672 Eh    ::
         ::    -> Gsasa               -0.001508374015 Eh    ::
         ::    -> Ghb                 -0.011602631190 Eh    ::
         ::    -> Gshift               0.001080759698 Eh    ::
         :: repulsion energy           0.625670098237 Eh    ::
         :: add. restraining           0.000000000000 Eh    ::
         :: total charge               1.000000000000 e     ::
         :::::::::::::::::::::::::::::::::::::::::::::::::::::

           -------------------------------------------------
          |                Property Printout                |
           -------------------------------------------------

    * Orbital Energies and Occupations

         #    Occupation            Energy/Eh            Energy/eV
      -------------------------------------------------------------
         1        2.0000           -0.6923814             -18.8407
       ...           ...                  ...                  ...
        28        2.0000           -0.4624008             -12.5826
        29        2.0000           -0.4493806             -12.2283
        30        2.0000           -0.4488583             -12.2141
        31        2.0000           -0.4397553             -11.9663
        32        2.0000           -0.4364033             -11.8751
        33        2.0000           -0.4357962             -11.8586
        34        2.0000           -0.4300473             -11.7022
        35        2.0000           -0.4264275             -11.6037
        36        2.0000           -0.4262123             -11.5978
        37        2.0000           -0.4198242             -11.4240
        38        2.0000           -0.4166760             -11.3383
        39        2.0000           -0.4161755             -11.3247
        40        2.0000           -0.4118922             -11.2082 (HOMO)
        41                         -0.0519357              -1.4132 (LUMO)
        42                          0.0317058               0.8628
        43                          0.0545954               1.4856
        44                          0.0764605               2.0806
        45                          0.0954911               2.5984
        46                          0.1022755               2.7831
        47                          0.1065261               2.8987
        48                          0.1120772               3.0498
        49                          0.1138171               3.0971
        50                          0.1211572               3.2969
        51                          0.1255160               3.4155
       ...                                ...                  ...
        80                          0.3261884               8.8760
      -------------------------------------------------------------
                  HL-Gap            0.3599565 Eh            9.7949 eV
             Fermi-level           -0.2319140 Eh           -6.3107 eV

     #   Z          covCN         q      C6AA      α(0)
     1   7 N        3.485    -0.162    24.493     7.350
     2   6 C        3.732    -0.038    21.345     6.594
     3   6 C        3.803    -0.086    22.137     6.698
     4   6 C        3.804    -0.071    21.852     6.655
     5   6 C        3.803    -0.067    21.786     6.645
     6   6 C        3.803    -0.065    21.738     6.638
     7   6 C        3.803    -0.063    21.712     6.634
     8   6 C        3.803    -0.062    21.695     6.631
     9   6 C        3.803    -0.062    21.689     6.630
    10   6 C        3.803    -0.062    21.688     6.630
    11   6 C        3.803    -0.063    21.702     6.632
    12   6 C        3.801    -0.058    21.609     6.618
    13   6 C        3.752    -0.110    22.673     6.790
    14   1 H        0.859     0.316     0.667     1.280
    15   1 H        0.859     0.309     0.688     1.300
    16   1 H        0.859     0.309     0.688     1.299
    17   1 H        0.925     0.107     1.723     2.052
    18   1 H        0.925     0.107     1.722     2.052
    19   1 H        0.924     0.066     2.127     2.281
    20   1 H        0.924     0.066     2.126     2.280
    21   1 H        0.924     0.043     2.408     2.427
    22   1 H        0.924     0.043     2.408     2.427
    23   1 H        0.924     0.037     2.493     2.469
    24   1 H        0.924     0.037     2.493     2.469
    25   1 H        0.924     0.031     2.568     2.506
    26   1 H        0.924     0.031     2.568     2.506
    27   1 H        0.924     0.031     2.576     2.510
    28   1 H        0.924     0.031     2.576     2.510
    29   1 H        0.924     0.030     2.592     2.518
    30   1 H        0.924     0.030     2.592     2.518
    31   1 H        0.924     0.030     2.586     2.515
    32   1 H        0.924     0.030     2.586     2.515
    33   1 H        0.924     0.029     2.598     2.521
    34   1 H        0.924     0.029     2.598     2.521
    35   1 H        0.924     0.031     2.577     2.510
    36   1 H        0.924     0.031     2.577     2.510
    37   1 H        0.924     0.030     2.592     2.517
    38   1 H        0.924     0.030     2.591     2.517
    39   1 H        0.925     0.036     2.506     2.475
    40   1 H        0.925     0.035     2.516     2.481
    41   1 H        0.925     0.036     2.506     2.475

 Mol. C6AA /au·bohr⁶  :      10476.561539
 Mol. C8AA /au·bohr⁸  :     219336.659722
 Mol. α(0) /au        :        152.108752


Wiberg/Mayer (AO) data.
largest (>0.10) Wiberg bond orders for each atom

 ---------------------------------------------------------------------------
     #   Z sym  total        # sym  WBO       # sym  WBO       # sym  WBO
 ---------------------------------------------------------------------------
     1   7 N    3.653 --     2 C    0.966    15 H    0.890    16 H    0.890
                            14 H    0.887
     2   6 C    3.927 --     3 C    1.011    17 H    0.966    18 H    0.966
                             1 N    0.966
     3   6 C    3.990 --     2 C    1.011     4 C    1.004    19 H    0.973
                            20 H    0.973
     4   6 C    3.995 --     5 C    1.007     3 C    1.004    21 H    0.977
                            22 H    0.977
     5   6 C    3.996 --     4 C    1.007     6 C    1.007    24 H    0.977
                            23 H    0.977
     6   6 C    3.996 --     5 C    1.007     7 C    1.007    25 H    0.977
                            26 H    0.977
     7   6 C    3.996 --     8 C    1.007     6 C    1.007    28 H    0.977
                            27 H    0.977
     8   6 C    3.996 --     9 C    1.007     7 C    1.007    29 H    0.978
                            30 H    0.978
     9   6 C    3.997 --    10 C    1.007     8 C    1.007    31 H    0.977
                            32 H    0.977
    10   6 C    3.997 --    11 C    1.007     9 C    1.007    33 H    0.978
                            34 H    0.978
    11   6 C    3.997 --    12 C    1.008    10 C    1.007    36 H    0.977
                            35 H    0.977
    12   6 C    3.997 --    13 C    1.019    11 C    1.008    37 H    0.979
                            38 H    0.979
    13   6 C    3.996 --    12 C    1.019    39 H    0.988    41 H    0.988
                            40 H    0.987
    14   1 H    0.900 --     1 N    0.887
    15   1 H    0.905 --     1 N    0.890
    16   1 H    0.905 --     1 N    0.890
    17   1 H    0.989 --     2 C    0.966
    18   1 H    0.989 --     2 C    0.966
    19   1 H    0.996 --     3 C    0.973
    20   1 H    0.996 --     3 C    0.973
    21   1 H    0.998 --     4 C    0.977
    22   1 H    0.998 --     4 C    0.977
    23   1 H    0.999 --     5 C    0.977
    24   1 H    0.999 --     5 C    0.977
    25   1 H    0.999 --     6 C    0.977
    26   1 H    0.999 --     6 C    0.977
    27   1 H    0.999 --     7 C    0.977
    28   1 H    0.999 --     7 C    0.977
    29   1 H    0.999 --     8 C    0.978
    30   1 H    0.999 --     8 C    0.978
    31   1 H    0.999 --     9 C    0.977
    32   1 H    0.999 --     9 C    0.977
    33   1 H    0.999 --    10 C    0.978
    34   1 H    0.999 --    10 C    0.978
    35   1 H    0.999 --    11 C    0.977
    36   1 H    0.999 --    11 C    0.977
    37   1 H    0.999 --    12 C    0.979
    38   1 H    0.999 --    12 C    0.979
    39   1 H    0.999 --    13 C    0.988
    40   1 H    0.998 --    13 C    0.987
    41   1 H    0.999 --    13 C    0.988
 ---------------------------------------------------------------------------

Topologies differ in total number of bonds
Writing topology from bond orders to xtbtopo.mol

molecular dipole:
                 x           y           z       tot (Debye)
 q only:        1.596       0.048       0.194
   full:        1.639      -0.021       0.134       4.181
molecular quadrupole (traceless):
                xx          xy          yy          xz          yz          zz
 q only:        0.934       2.171      -0.521       2.212      -0.153      -0.413
  q+dip:        0.054       1.305      -0.415       1.484      -2.373       0.361
   full:        1.795       0.467      -1.051       0.771      -0.901      -0.744

           -------------------------------------------------
          |                Geometry Summary                 |
           -------------------------------------------------

      molecular mass/u    :      186.3578750
   center of mass at/Å    :        7.1187913      -3.0310578      -2.5003141
  moments of inertia/u·Å² :        0.7882171E+02   0.4350906E+04   0.4389313E+04
rotational constants/cm⁻¹ :        0.2138704E+00   0.3874511E-02   0.3840608E-02

 * 40 selected distances

     #   Z          #   Z                                           value/Å
     1   7 N        2   6 C                                       1.4838137
     2   6 C        3   6 C                                       1.5243143
     3   6 C        4   6 C                                       1.5281634 (max)
     4   6 C        5   6 C                                       1.5273593
     5   6 C        6   6 C                                       1.5267476
     6   6 C        7   6 C                                       1.5269227
     7   6 C        8   6 C                                       1.5267539
     8   6 C        9   6 C                                       1.5268592
     9   6 C       10   6 C                                       1.5268765
    10   6 C       11   6 C                                       1.5268205
    11   6 C       12   6 C                                       1.5270035
    12   6 C       13   6 C                                       1.5241624
     1   7 N       14   1 H                                       1.0261813 (min)
     1   7 N       15   1 H                                       1.0270423
     1   7 N       16   1 H                                       1.0269218
     2   6 C       17   1 H                                       1.0898420
     2   6 C       18   1 H                                       1.0898406
     3   6 C       19   1 H                                       1.0908789
     3   6 C       20   1 H                                       1.0908583
     4   6 C       21   1 H                                       1.0916088
     4   6 C       22   1 H                                       1.0916002
     5   6 C       23   1 H                                       1.0923182
     5   6 C       24   1 H                                       1.0923066
     6   6 C       25   1 H                                       1.0925804
     6   6 C       26   1 H                                       1.0925770
     7   6 C       27   1 H                                       1.0926825
     7   6 C       28   1 H                                       1.0926762
     8   6 C       29   1 H                                       1.0927062
     8   6 C       30   1 H                                       1.0927027
     9   6 C       31   1 H                                       1.0926988
     9   6 C       32   1 H                                       1.0926940
    10   6 C       33   1 H                                       1.0927593
    10   6 C       34   1 H                                       1.0927555
    11   6 C       35   1 H                                       1.0927177
    11   6 C       36   1 H                                       1.0927122
    12   6 C       37   1 H                                       1.0924634
    12   6 C       38   1 H                                       1.0924672
    13   6 C       39   1 H                                       1.0878002
    13   6 C       40   1 H                                       1.0873301
    13   6 C       41   1 H                                       1.0878034

 * 4 distinct bonds (by element types)

   Z      Z             #   av. dist./Å        max./Å        min./Å
   1 H    6 C          25     1.0915752     1.0927593     1.0873301
   6 C    6 C          11     1.5265439     1.5281634     1.5241624
   1 H    7 N           3     1.0267151     1.0270423     1.0261813
   6 C    7 N           1     1.4838137     1.4838137     1.4838137


optimized geometry written to: xtbopt.xyz


           -------------------------------------------------
          | TOTAL ENERGY              -42.595872967308 Eh   |
          | GRADIENT NORM               0.000079800173 Eh/α |
          | HOMO-LUMO GAP               9.794914092652 eV   |
           -------------------------------------------------

------------------------------------------------------------------------
 * finished run on 2023/01/24 at 14:57:53.691     
------------------------------------------------------------------------
 total:
 * wall-time:     0 d,  0 h,  0 min,  0.371 sec
 *  cpu-time:     0 d,  0 h,  0 min, 45.993 sec
 * ratio c/w:   124.051 speedup
 SCF:
 * wall-time:     0 d,  0 h,  0 min,  0.063 sec
 *  cpu-time:     0 d,  0 h,  0 min,  8.833 sec
 * ratio c/w:   140.872 speedup
 ANC optimizer:
 * wall-time:     0 d,  0 h,  0 min,  0.285 sec
 *  cpu-time:     0 d,  0 h,  0 min, 34.161 sec
 * ratio c/w:   119.912 speedup

