      -----------------------------------------------------------      
     |                   =====================                   |     
     |                           x T B                           |     
     |                   =====================                   |     
     |                         S. Grimme                         |     
     |          Mulliken Center for Theoretical Chemistry        |     
     |                    University of Bonn                     |     
      -----------------------------------------------------------      

   * xtb version 6.5.1 (fef0646) compiled by 'conda@b96dff2e9fd6' on 2023-01-04

   xtb is free software: you can redistribute it and/or modify it under
   the terms of the GNU Lesser General Public License as published by
   the Free Software Foundation, either version 3 of the License, or
   (at your option) any later version.
   
   xtb is distributed in the hope that it will be useful,
   but WITHOUT ANY WARRANTY; without even the implied warranty of
   MERCHANTABILITY or FITNESS FOR A PARTICULAR PURPOSE.  See the
   GNU Lesser General Public License for more details.
   
   Cite this work as:
   * C. Bannwarth, E. Caldeweyher, S. Ehlert, A. Hansen, P. Pracht,
     J. Seibert, S. Spicher, S. Grimme, WIREs Comput. Mol. Sci., 2020, 11,
     e01493. DOI: 10.1002/wcms.1493
   
   for GFN2-xTB:
   * C. Bannwarth, S. Ehlert and S. Grimme., J. Chem. Theory Comput., 2019,
     15, 1652-1671. DOI: 10.1021/acs.jctc.8b01176
   for GFN1-xTB:
   * S. Grimme, C. Bannwarth, P. Shushkov, J. Chem. Theory Comput., 2017,
     13, 1989-2009. DOI: 10.1021/acs.jctc.7b00118
   for GFN0-xTB:
   * P. Pracht, E. Caldeweyher, S. Ehlert, S. Grimme, ChemRxiv, 2019, preprint.
     DOI: 10.26434/chemrxiv.8326202.v1
   for GFN-FF:
   * S. Spicher and S. Grimme, Angew. Chem. Int. Ed., 2020, 59, 15665-15673.
     DOI: 10.1002/anie.202004239
   
   for ALPB and GBSA implicit solvation:
   * S. Ehlert, M. Stahn, S. Spicher, S. Grimme, J. Chem. Theory Comput.,
     2021, 17, 4250-4261. DOI: 10.1021/acs.jctc.1c00471
   
   for DFT-D4:
   * E. Caldeweyher, C. Bannwarth and S. Grimme, J. Chem. Phys., 2017,
     147, 034112. DOI: 10.1063/1.4993215
   * E. Caldeweyher, S. Ehlert, A. Hansen, H. Neugebauer, S. Spicher,
     C. Bannwarth and S. Grimme, J. Chem. Phys., 2019, 150, 154122.
     DOI: 10.1063/1.5090222
   * E. Caldeweyher, J.-M. Mewes, S. Ehlert and S. Grimme, Phys. Chem. Chem. Phys.
     2020, 22, 8499-8512. DOI: 10.1039/D0CP00502A
   
   for sTDA-xTB:
   * S. Grimme and C. Bannwarth, J. Chem. Phys., 2016, 145, 054103.
     DOI: 10.1063/1.4959605
   
   in the mass-spec context:
   * V. Asgeirsson, C. Bauer and S. Grimme, Chem. Sci., 2017, 8, 4879.
     DOI: 10.1039/c7sc00601b
   * J. Koopman and S. Grimme, ACS Omega 2019, 4, 12, 15120-15133.
     DOI: 10.1021/acsomega.9b02011
   
   for metadynamics refer to:
   * S. Grimme, J. Chem. Theory Comput., 2019, 155, 2847-2862
     DOI: 10.1021/acs.jctc.9b00143
   
   for SPH calculations refer to:
   * S. Spicher and S. Grimme, J. Chem. Theory Comput., 2021, 17, 1701-1714
     DOI: 10.1021/acs.jctc.0c01306
   
   with help from (in alphabetical order)
   P. Atkinson, C. Bannwarth, F. Bohle, G. Brandenburg, E. Caldeweyher
   M. Checinski, S. Dohm, S. Ehlert, S. Ehrlich, I. Gerasimov, C. Hölzer
   A. Katbashev, J. Koopman, C. Lavigne, S. Lehtola, F. März, M. Müller,
   F. Musil, H. Neugebauer, J. Pisarek, C. Plett, P. Pracht, F. Pultar,
   J. Seibert, P. Shushkov, S. Spicher, M. Stahn, M. Steiner, T. Strunk,
   J. Stückrath, T. Rose, and J. Unsleber
   
 * started run on 2023/01/23 at 19:08:51.568     

           -------------------------------------------------
          |                Calculation Setup                |
           -------------------------------------------------

          program call               : xtb init.xyz --opt -c 1 -u 0 -P 16 --input xtb.inp
          hostname                   : gpg-woodward
          coordinate file            : init.xyz
          omp threads                :                    16

   ID    Z sym.   atoms
    1    7 N      1
    2    6 C      2-13
    3    1 H      14-27

           -------------------------------------------------
          |                 G F N 2 - x T B                 |
           -------------------------------------------------

        Reference                      10.1021/acs.jctc.8b01176
      * Hamiltonian:
        H0-scaling (s, p, d)           1.850000    2.230000    2.230000
        zeta-weighting                 0.500000
      * Dispersion:
        s8                             2.700000
        a1                             0.520000
        a2                             5.000000
        s9                             5.000000
      * Repulsion:
        kExp                           1.500000    1.000000
        rExp                           1.000000
      * Coulomb:
        alpha                          2.000000
        third order                    shell-resolved
        anisotropic                    true
        a3                             3.000000
        a5                             4.000000
        cn-shift                       1.200000
        cn-exp                         4.000000
        max-rad                        5.000000


          ...................................................
          :                      SETUP                      :
          :.................................................:
          :  # basis functions                  66          :
          :  # atomic orbitals                  66          :
          :  # shells                           40          :
          :  # electrons                        66          :
          :  max. iterations                   250          :
          :  Hamiltonian                  GFN2-xTB          :
          :  restarted?                      false          :
          :  GBSA solvation                  false          :
          :  PC potential                    false          :
          :  electronic temp.          300.0000000     K    :
          :  accuracy                    1.0000000          :
          :  -> integral cutoff          0.2500000E+02      :
          :  -> integral neglect         0.1000000E-07      :
          :  -> SCF convergence          0.1000000E-05 Eh   :
          :  -> wf. convergence          0.1000000E-03 e    :
          :  Broyden damping             0.4000000          :
          ...................................................

 iter      E             dE          RMSdq      gap      omega  full diag
   1    -35.8044795 -0.358045E+02  0.459E+00    2.92       0.0  T
   2    -35.9202448 -0.115765E+00  0.267E+00    2.87       1.0  T
   3    -35.9201964  0.483886E-04  0.125E+00    2.89       1.0  T
   4    -35.9170699  0.312655E-02  0.624E-01    2.84       1.0  T
   5    -35.9261951 -0.912520E-02  0.103E-01    2.85       1.0  T
   6    -35.9261671  0.280070E-04  0.685E-02    2.86       1.0  T
   7    -35.9262403 -0.732046E-04  0.230E-02    2.85       1.0  T
   8    -35.9262498 -0.956371E-05  0.646E-03    2.85       3.0  T
   9    -35.9262502 -0.353131E-06  0.254E-03    2.85       7.6  T
  10    -35.9262502 -0.375704E-07  0.107E-03    2.85      18.0  T
  11    -35.9262502 -0.902313E-08  0.438E-04    2.85      44.0  T
  12    -35.9262502 -0.216275E-08  0.179E-04    2.85     107.8  T

   *** convergence criteria satisfied after 12 iterations ***

         #    Occupation            Energy/Eh            Energy/eV
      -------------------------------------------------------------
         1        2.0000           -0.8917684             -24.2663
       ...           ...                  ...                  ...
        27        2.0000           -0.5521994             -15.0261
        28        2.0000           -0.5462725             -14.8648
        29        2.0000           -0.5282820             -14.3753
        30        2.0000           -0.5178786             -14.0922
        31        2.0000           -0.5150615             -14.0155
        32        2.0000           -0.5047505             -13.7350
        33        2.0000           -0.4763008             -12.9608 (HOMO)
        34                         -0.3714563             -10.1078 (LUMO)
        35                         -0.3331744              -9.0661
        36                         -0.2956337              -8.0446
        37                         -0.2587757              -7.0416
        38                         -0.2543264              -6.9206
       ...                                ...                  ...
        66                          0.5862237              15.9520
      -------------------------------------------------------------
                  HL-Gap            0.1048445 Eh            2.8530 eV
             Fermi-level           -0.4238786 Eh          -11.5343 eV

 SCC (total)                   0 d,  0 h,  0 min,  0.053 sec
 SCC setup                      ...        0 min,  0.000 sec (  0.603%)
 Dispersion                     ...        0 min,  0.001 sec (  1.411%)
 classical contributions        ...        0 min,  0.000 sec (  0.333%)
 integral evaluation            ...        0 min,  0.003 sec (  5.647%)
 iterations                     ...        0 min,  0.041 sec ( 78.151%)
 molecular gradient             ...        0 min,  0.006 sec ( 11.852%)
 printout                       ...        0 min,  0.001 sec (  1.434%)

         :::::::::::::::::::::::::::::::::::::::::::::::::::::
         ::                     SUMMARY                     ::
         :::::::::::::::::::::::::::::::::::::::::::::::::::::
         :: total energy             -35.312978008912 Eh    ::
         :: gradient norm              0.073615592163 Eh/a0 ::
         :: HOMO-LUMO gap              2.852964583726 eV    ::
         ::.................................................::
         :: SCC energy               -35.926250232372 Eh    ::
         :: -> isotropic ES            0.105978806377 Eh    ::
         :: -> anisotropic ES         -0.010197771608 Eh    ::
         :: -> anisotropic XC          0.025193927375 Eh    ::
         :: -> dispersion             -0.023669819410 Eh    ::
         :: repulsion energy           0.613166224899 Eh    ::
         :: add. restraining           0.000000000000 Eh    ::
         :: total charge               1.000000000000 e     ::
         :::::::::::::::::::::::::::::::::::::::::::::::::::::

      ----------------------------------------------------------- 
     |                   =====================                   |
     |                        A N C O P T                        |
     |                   =====================                   |
     |               Approximate Normal Coordinate               |
     |                Rational Function Optimizer                |
      ----------------------------------------------------------- 

          ...................................................
          :                      SETUP                      :
          :.................................................:
          :   optimization level            normal          :
          :   max. optcycles                   200          :
          :   ANC micro-cycles                  20          :
          :   degrees of freedom                75          :
          :.................................................:
          :   RF solver                   davidson          :
          :   write xtbopt.log                true          :
          :   linear?                        false          :
          :   energy convergence         0.5000000E-05 Eh   :
          :   grad. convergence          0.1000000E-02 Eh/α :
          :   maximium RF displ.         1.0000000          :
          :   Hlow (freq-cutoff)         0.1000000E-01      :
          :   Hmax (freq-cutoff)         5.0000000          :
          :   S6 in model hess.         20.0000000          :
          ...................................................

generating ANC from model Hessian ...
Using Lindh-Hessian (1995)
 Shifting diagonal of input Hessian by    9.1686605177003985E-003
 Lowest  eigenvalues of input Hessian
    0.000000    0.000000    0.000000    0.000000    0.000000    0.000000
    0.010000    0.010395    0.012575    0.013430    0.015301    0.020376
    0.021248    0.023694    0.025328    0.028010    0.029658    0.030341
 Highest eigenvalues
    1.759171    1.780353    1.795494    1.900172    2.001297    2.080064


........................................................................
.............................. CYCLE    1 ..............................
........................................................................
   1    -35.9262502 -0.359263E+02  0.878E-05    2.85       0.0  T
   2    -35.9262502 -0.369198E-10  0.576E-05    2.85     333.9  T
   3    -35.9262502 -0.229647E-10  0.404E-05    2.85     476.7  T
     SCC iter.                  ...        0 min,  0.010 sec
     gradient                   ...        0 min,  0.005 sec
 * total energy  :   -35.3129780 Eh     change       -0.1991154E-09 Eh
   gradient norm :     0.0736154 Eh/α   predicted     0.0000000E+00 (-100.00%)
   displ. norm   :     0.2034351 α      lambda       -0.5913096E-02
   maximum displ.:     0.1038274 α      in ANC's #4, #18, #6, ...

........................................................................
.............................. CYCLE    2 ..............................
........................................................................
   1    -35.9497107 -0.359497E+02  0.127E-01    3.04       0.0  T
   2    -35.9497301 -0.193433E-04  0.779E-02    3.04       1.0  T
   3    -35.9497201  0.999190E-05  0.272E-02    3.04       1.0  T
   4    -35.9497346 -0.145504E-04  0.614E-03    3.04       3.1  T
   5    -35.9497353 -0.622006E-06  0.260E-03    3.04       7.4  T
   6    -35.9497353 -0.624840E-07  0.120E-03    3.04      16.0  T
   7    -35.9497353 -0.793162E-08  0.412E-04    3.04      46.7  T
   8    -35.9497353 -0.304989E-08  0.144E-04    3.04     133.4  T
     SCC iter.                  ...        0 min,  0.030 sec
     gradient                   ...        0 min,  0.004 sec
 * total energy  :   -35.3169923 Eh     change       -0.4014299E-02 Eh
   gradient norm :     0.0292946 Eh/α   predicted    -0.3079677E-02 ( -23.28%)
   displ. norm   :     0.2079510 α      lambda       -0.1637162E-02
   maximum displ.:     0.1537931 α      in ANC's #4, #6, #3, ...

........................................................................
.............................. CYCLE    3 ..............................
........................................................................
   1    -35.9598990 -0.359599E+02  0.806E-02    3.15       0.0  T
   2    -35.9599084 -0.939835E-05  0.473E-02    3.16       1.0  T
   3    -35.9599041  0.429710E-05  0.215E-02    3.15       1.0  T
   4    -35.9599114 -0.726778E-05  0.361E-03    3.15       5.3  T
   5    -35.9599116 -0.208664E-06  0.160E-03    3.15      12.0  T
   6    -35.9599116 -0.180862E-07  0.699E-04    3.15      27.5  T
   7    -35.9599116 -0.251679E-08  0.296E-04    3.15      65.0  T
     SCC iter.                  ...        0 min,  0.021 sec
     gradient                   ...        0 min,  0.004 sec
 * total energy  :   -35.3179610 Eh     change       -0.9686516E-03 Eh
   gradient norm :     0.0061411 Eh/α   predicted    -0.8543022E-03 ( -11.81%)
   displ. norm   :     0.1717122 α      lambda       -0.3651603E-03
   maximum displ.:     0.1322865 α      in ANC's #4, #3, #2, ...

........................................................................
.............................. CYCLE    4 ..............................
........................................................................
   1    -35.9596632 -0.359597E+02  0.513E-02    3.17       0.0  T
   2    -35.9596664 -0.319994E-05  0.294E-02    3.17       1.0  T
   3    -35.9596631  0.329291E-05  0.168E-02    3.17       1.1  T
   4    -35.9596686 -0.540819E-05  0.171E-03    3.17      11.2  T
   5    -35.9596686 -0.260439E-07  0.802E-04    3.17      24.0  T
   6    -35.9596686 -0.366141E-08  0.365E-04    3.17      52.8  T
     SCC iter.                  ...        0 min,  0.018 sec
     gradient                   ...        0 min,  0.004 sec
 * total energy  :   -35.3182536 Eh     change       -0.2926538E-03 Eh
   gradient norm :     0.0069891 Eh/α   predicted    -0.1879649E-03 ( -35.77%)
   displ. norm   :     0.2996055 α      lambda       -0.4649507E-03
   maximum displ.:     0.2126563 α      in ANC's #4, #2, #3, ...

........................................................................
.............................. CYCLE    5 ..............................
........................................................................
   1    -35.9570936 -0.359571E+02  0.846E-02    3.16       0.0  T
   2    -35.9571024 -0.882000E-05  0.495E-02    3.16       1.0  T
   3    -35.9570927  0.968069E-05  0.279E-02    3.16       1.0  T
   4    -35.9571086 -0.158596E-04  0.271E-03    3.16       7.1  T
   5    -35.9571086 -0.615295E-07  0.123E-03    3.16      15.7  T
   6    -35.9571086 -0.986901E-08  0.483E-04    3.16      39.9  T
   7    -35.9571086 -0.376204E-09  0.171E-04    3.16     112.6  T
     SCC iter.                  ...        0 min,  0.021 sec
     gradient                   ...        0 min,  0.004 sec
 * total energy  :   -35.3185889 Eh     change       -0.3352825E-03 Eh
   gradient norm :     0.0069768 Eh/α   predicted    -0.2533442E-03 ( -24.44%)
   displ. norm   :     0.2780076 α      lambda       -0.2831420E-03
   maximum displ.:     0.1770733 α      in ANC's #4, #2, #3, ...

........................................................................
.............................. CYCLE    6 ..............................
........................................................................
   1    -35.9556493 -0.359556E+02  0.757E-02    3.14       0.0  T
   2    -35.9556557 -0.638878E-05  0.444E-02    3.15       1.0  T
   3    -35.9556474  0.826247E-05  0.242E-02    3.15       1.0  T
   4    -35.9556599 -0.124943E-04  0.250E-03    3.15       7.7  T
   5    -35.9556600 -0.517278E-07  0.121E-03    3.15      15.9  T
   6    -35.9556600 -0.115847E-07  0.661E-04    3.15      29.1  T
   7    -35.9556600 -0.423191E-08  0.270E-04    3.15      71.3  T
     SCC iter.                  ...        0 min,  0.021 sec
     gradient                   ...        0 min,  0.004 sec
 * total energy  :   -35.3188051 Eh     change       -0.2161900E-03 Eh
   gradient norm :     0.0069858 Eh/α   predicted    -0.1525160E-03 ( -29.45%)
   displ. norm   :     0.3146497 α      lambda       -0.3018101E-03
   maximum displ.:     0.1695977 α      in ANC's #4, #2, #3, ...

........................................................................
.............................. CYCLE    7 ..............................
........................................................................
   1    -35.9551634 -0.359552E+02  0.881E-02    3.13       0.0  T
   2    -35.9551702 -0.682861E-05  0.514E-02    3.13       1.0  T
   3    -35.9551586  0.116064E-04  0.261E-02    3.13       1.0  T
   4    -35.9551744 -0.157357E-04  0.318E-03    3.13       6.1  T
   5    -35.9551745 -0.957613E-07  0.164E-03    3.13      11.7  T
   6    -35.9551745 -0.334815E-07  0.798E-04    3.13      24.1  T
   7    -35.9551745 -0.575092E-08  0.284E-04    3.13      67.7  T
     SCC iter.                  ...        0 min,  0.021 sec
     gradient                   ...        0 min,  0.004 sec
 * total energy  :   -35.3190337 Eh     change       -0.2285704E-03 Eh
   gradient norm :     0.0062821 Eh/α   predicted    -0.1658602E-03 ( -27.44%)
   displ. norm   :     0.2931610 α      lambda       -0.2950978E-03
   maximum displ.:     0.1638150 α      in ANC's #2, #3, #1, ...

........................................................................
.............................. CYCLE    8 ..............................
........................................................................
   1    -35.9559981 -0.359560E+02  0.866E-02    3.11       0.0  T
   2    -35.9560028 -0.471163E-05  0.503E-02    3.12       1.0  T
   3    -35.9559915  0.113662E-04  0.240E-02    3.12       1.0  T
   4    -35.9560056 -0.141774E-04  0.356E-03    3.12       5.4  T
   5    -35.9560058 -0.178675E-06  0.158E-03    3.12      12.2  T
   6    -35.9560059 -0.269821E-07  0.705E-04    3.12      27.3  T
   7    -35.9560059 -0.358157E-08  0.257E-04    3.12      75.0  T
     SCC iter.                  ...        0 min,  0.020 sec
     gradient                   ...        0 min,  0.004 sec
 * total energy  :   -35.3192521 Eh     change       -0.2184145E-03 Eh
   gradient norm :     0.0048103 Eh/α   predicted    -0.1602299E-03 ( -26.64%)
   displ. norm   :     0.2658204 α      lambda       -0.2283082E-03
   maximum displ.:     0.1694897 α      in ANC's #2, #9, #1, ...

........................................................................
.............................. CYCLE    9 ..............................
........................................................................
   1    -35.9569537 -0.359570E+02  0.793E-02    3.11       0.0  T
   2    -35.9569574 -0.372585E-05  0.460E-02    3.11       1.0  T
   3    -35.9569458  0.115884E-04  0.249E-02    3.11       1.0  T
   4    -35.9569603 -0.144353E-04  0.370E-03    3.11       5.2  T
   5    -35.9569605 -0.234665E-06  0.130E-03    3.11      14.8  T
   6    -35.9569605 -0.129161E-07  0.596E-04    3.11      32.3  T
   7    -35.9569605 -0.209824E-08  0.214E-04    3.11      90.0  T
     SCC iter.                  ...        0 min,  0.020 sec
     gradient                   ...        0 min,  0.004 sec
 * total energy  :   -35.3194220 Eh     change       -0.1699211E-03 Eh
   gradient norm :     0.0042226 Eh/α   predicted    -0.1222210E-03 ( -28.07%)
   displ. norm   :     0.2542274 α      lambda       -0.1820324E-03
   maximum displ.:     0.1791956 α      in ANC's #2, #9, #1, ...

........................................................................
.............................. CYCLE   10 ..............................
........................................................................
   1    -35.9575265 -0.359575E+02  0.793E-02    3.11       0.0  T
   2    -35.9575299 -0.345347E-05  0.462E-02    3.11       1.0  T
   3    -35.9575167  0.131999E-04  0.275E-02    3.11       1.0  T
   4    -35.9575335 -0.167716E-04  0.369E-03    3.11       5.2  T
   5    -35.9575338 -0.257005E-06  0.106E-03    3.11      18.2  T
   6    -35.9575338 -0.739598E-08  0.500E-04    3.11      38.5  T
   7    -35.9575338 -0.124373E-08  0.188E-04    3.11     102.2  T
     SCC iter.                  ...        0 min,  0.020 sec
     gradient                   ...        0 min,  0.004 sec
 * total energy  :   -35.3195611 Eh     change       -0.1391535E-03 Eh
   gradient norm :     0.0042812 Eh/α   predicted    -0.9690075E-04 ( -30.36%)
   displ. norm   :     0.2654043 α      lambda       -0.1530950E-03
   maximum displ.:     0.2005632 α      in ANC's #2, #9, #1, ...

........................................................................
.............................. CYCLE   11 ..............................
........................................................................
   1    -35.9567934 -0.359568E+02  0.847E-02    3.11       0.0  T
   2    -35.9567980 -0.458531E-05  0.496E-02    3.11       1.0  T
   3    -35.9567830  0.149758E-04  0.307E-02    3.11       1.0  T
   4    -35.9568030 -0.199463E-04  0.420E-03    3.11       4.6  T
   5    -35.9568033 -0.332825E-06  0.120E-03    3.11      16.1  T
   6    -35.9568033 -0.136747E-07  0.509E-04    3.11      37.8  T
   7    -35.9568033 -0.127561E-08  0.233E-04    3.11      82.5  T
     SCC iter.                  ...        0 min,  0.020 sec
     gradient                   ...        0 min,  0.004 sec
 * total energy  :   -35.3196798 Eh     change       -0.1186511E-03 Eh
   gradient norm :     0.0042254 Eh/α   predicted    -0.8194249E-04 ( -30.94%)
   displ. norm   :     0.2104830 α      lambda       -0.1386883E-03
   maximum displ.:     0.1678827 α      in ANC's #2, #4, #9, ...

........................................................................
.............................. CYCLE   12 ..............................
........................................................................
   1    -35.9579845 -0.359580E+02  0.781E-02    3.12       0.0  T
   2    -35.9579868 -0.229635E-05  0.460E-02    3.12       1.0  T
   3    -35.9579727  0.140167E-04  0.261E-02    3.12       1.0  T
   4    -35.9579898 -0.170215E-04  0.316E-03    3.12       6.1  T
   5    -35.9579900 -0.195173E-06  0.773E-04    3.12      24.9  T
   6    -35.9579900 -0.859231E-09  0.389E-04    3.12      49.5  T
     SCC iter.                  ...        0 min,  0.018 sec
     gradient                   ...        0 min,  0.003 sec
 * total energy  :   -35.3197574 Eh     change       -0.7761284E-04 Eh
   gradient norm :     0.0041684 Eh/α   predicted    -0.7241644E-04 (  -6.70%)
   displ. norm   :     0.2010165 α      lambda       -0.1049498E-03
   maximum displ.:     0.1679598 α      in ANC's #2, #9, #7, ...

........................................................................
.............................. CYCLE   13 ..............................
........................................................................
   1    -35.9559639 -0.359560E+02  0.659E-02    3.11       0.0  T
   2    -35.9559678 -0.387751E-05  0.389E-02    3.11       1.0  T
   3    -35.9559595  0.834451E-05  0.234E-02    3.11       1.0  T
   4    -35.9559710 -0.115615E-04  0.384E-03    3.11       5.0  T
   5    -35.9559713 -0.239538E-06  0.135E-03    3.11      14.3  T
   6    -35.9559713 -0.221267E-07  0.518E-04    3.11      37.1  T
   7    -35.9559713 -0.953335E-09  0.239E-04    3.11      80.7  T
     SCC iter.                  ...        0 min,  0.021 sec
     gradient                   ...        0 min,  0.003 sec
 * total energy  :   -35.3198235 Eh     change       -0.6609371E-04 Eh
   gradient norm :     0.0030258 Eh/α   predicted    -0.5462709E-04 ( -17.35%)
   displ. norm   :     0.0642202 α      lambda       -0.3999260E-04
   maximum displ.:     0.0609484 α      in ANC's #2, #3, #7, ...

........................................................................
.............................. CYCLE   14 ..............................
........................................................................
   1    -35.9563493 -0.359563E+02  0.219E-02    3.11       0.0  T
   2    -35.9563497 -0.347914E-06  0.128E-02    3.11       1.5  T
   3    -35.9563488  0.879517E-06  0.650E-03    3.11       3.0  T
   4    -35.9563499 -0.109579E-05  0.127E-03    3.11      15.1  T
   5    -35.9563499 -0.308374E-07  0.273E-04    3.11      70.6  T
   6    -35.9563499 -0.409777E-09  0.141E-04    3.11     136.8  T
     SCC iter.                  ...        0 min,  0.018 sec
     gradient                   ...        0 min,  0.003 sec
 * total energy  :   -35.3198609 Eh     change       -0.3740334E-04 Eh
   gradient norm :     0.0022444 Eh/α   predicted    -0.2008289E-04 ( -46.31%)
   displ. norm   :     0.1573958 α      lambda       -0.1087088E-03
   maximum displ.:     0.1257628 α      in ANC's #2, #3, #1, ...

........................................................................
.............................. CYCLE   15 ..............................
........................................................................
   1    -35.9576871 -0.359577E+02  0.548E-02    3.11       0.0  T
   2    -35.9576886 -0.150832E-05  0.317E-02    3.11       1.0  T
   3    -35.9576849  0.370186E-05  0.124E-02    3.11       1.6  T
   4    -35.9576893 -0.442893E-05  0.269E-03    3.11       7.2  T
   5    -35.9576895 -0.142744E-06  0.698E-04    3.11      27.6  T
   6    -35.9576895 -0.585786E-09  0.291E-04    3.11      66.1  T
     SCC iter.                  ...        0 min,  0.018 sec
     gradient                   ...        0 min,  0.003 sec
 * total energy  :   -35.3199544 Eh     change       -0.9345372E-04 Eh
   gradient norm :     0.0023326 Eh/α   predicted    -0.5570206E-04 ( -40.40%)
   displ. norm   :     0.3292163 α      lambda       -0.1779319E-03
   maximum displ.:     0.2684476 α      in ANC's #2, #3, #1, ...

........................................................................
.............................. CYCLE   16 ..............................
........................................................................
   1    -35.9579201 -0.359579E+02  0.113E-01    3.11       0.0  T
   2    -35.9579273 -0.716095E-05  0.650E-02    3.11       1.0  T
   3    -35.9579100  0.172200E-04  0.273E-02    3.11       1.0  T
   4    -35.9579308 -0.207988E-04  0.587E-03    3.11       3.3  T
   5    -35.9579315 -0.675062E-06  0.142E-03    3.11      13.5  T
   6    -35.9579315 -0.252260E-08  0.644E-04    3.11      29.9  T
   7    -35.9579315 -0.292068E-08  0.177E-04    3.11     108.6  T
     SCC iter.                  ...        0 min,  0.020 sec
     gradient                   ...        0 min,  0.003 sec
 * total energy  :   -35.3201025 Eh     change       -0.1481183E-03 Eh
   gradient norm :     0.0056785 Eh/α   predicted    -0.9861140E-04 ( -33.42%)
   displ. norm   :     0.2946882 α      lambda       -0.1451659E-03
   maximum displ.:     0.2458911 α      in ANC's #2, #3, #1, ...

........................................................................
.............................. CYCLE   17 ..............................
........................................................................
   1    -35.9571581 -0.359572E+02  0.998E-02    3.10       0.0  T
   2    -35.9571642 -0.604176E-05  0.577E-02    3.10       1.0  T
   3    -35.9571497  0.144946E-04  0.257E-02    3.11       1.0  T
   4    -35.9571674 -0.177629E-04  0.540E-03    3.10       3.6  T
   5    -35.9571680 -0.574332E-06  0.125E-03    3.10      15.4  T
   6    -35.9571680 -0.509139E-09  0.559E-04    3.10      34.4  T
   7    -35.9571680 -0.338629E-08  0.151E-04    3.10     127.3  T
     SCC iter.                  ...        0 min,  0.021 sec
     gradient                   ...        0 min,  0.003 sec
 * total energy  :   -35.3202323 Eh     change       -0.1298342E-03 Eh
   gradient norm :     0.0069199 Eh/α   predicted    -0.7889169E-04 ( -39.24%)
   displ. norm   :     0.2842999 α      lambda       -0.1790143E-03
   maximum displ.:     0.2458879 α      in ANC's #2, #3, #1, ...

........................................................................
.............................. CYCLE   18 ..............................
........................................................................
   1    -35.9562251 -0.359562E+02  0.952E-02    3.10       0.0  T
   2    -35.9562316 -0.650436E-05  0.549E-02    3.10       1.0  T
   3    -35.9562182  0.134809E-04  0.263E-02    3.10       1.0  T
   4    -35.9562353 -0.171018E-04  0.544E-03    3.10       3.5  T
   5    -35.9562359 -0.599774E-06  0.117E-03    3.10      16.4  T
   6    -35.9562359 -0.455621E-09  0.558E-04    3.10      34.5  T
   7    -35.9562359 -0.385030E-08  0.164E-04    3.10     117.3  T
     SCC iter.                  ...        0 min,  0.022 sec
     gradient                   ...        0 min,  0.003 sec
 * total energy  :   -35.3203975 Eh     change       -0.1652160E-03 Eh
   gradient norm :     0.0059040 Eh/α   predicted    -0.9674935E-04 ( -41.44%)
   displ. norm   :     0.5124540 α      lambda       -0.3579334E-03
   maximum displ.:     0.4568155 α      in ANC's #2, #1, #3, ...

........................................................................
.............................. CYCLE   19 ..............................
........................................................................
   1    -35.9535749 -0.359536E+02  0.170E-01    3.10       0.0  T
   2    -35.9536015 -0.265861E-04  0.977E-02    3.10       1.0  T
   3    -35.9535631  0.383714E-04  0.486E-02    3.10       1.0  T
   4    -35.9536149 -0.517395E-04  0.102E-02    3.10       1.9  T
   5    -35.9536170 -0.216488E-05  0.220E-03    3.10       8.7  T
   6    -35.9536170 -0.135329E-07  0.108E-03    3.10      17.9  T
   7    -35.9536171 -0.104482E-07  0.426E-04    3.10      45.2  T
   8    -35.9536171 -0.161219E-08  0.105E-04    3.10     184.2  T
     SCC iter.                  ...        0 min,  0.025 sec
     gradient                   ...        0 min,  0.003 sec
 * total energy  :   -35.3206937 Eh     change       -0.2961639E-03 Eh
   gradient norm :     0.0050226 Eh/α   predicted    -0.2259688E-03 ( -23.70%)
   displ. norm   :     0.5552919 α      lambda       -0.3581344E-03
   maximum displ.:     0.5004516 α      in ANC's #2, #1, #5, ...

........................................................................
.............................. CYCLE   20 ..............................
........................................................................
   1    -35.9509813 -0.359510E+02  0.184E-01    3.09       0.0  T
   2    -35.9510187 -0.373941E-04  0.105E-01    3.09       1.0  T
   3    -35.9509816  0.370712E-04  0.524E-02    3.09       1.0  T
   4    -35.9510348 -0.532129E-04  0.107E-02    3.09       1.8  T
   5    -35.9510373 -0.248217E-05  0.264E-03    3.09       7.3  T
   6    -35.9510374 -0.513783E-07  0.121E-03    3.09      15.9  T
   7    -35.9510374 -0.975674E-08  0.575E-04    3.09      33.5  T
   8    -35.9510374 -0.294930E-08  0.120E-04    3.09     160.3  T
     SCC iter.                  ...        0 min,  0.025 sec
     gradient                   ...        0 min,  0.003 sec
 * total energy  :   -35.3209338 Eh     change       -0.2401264E-03 Eh
   gradient norm :     0.0082850 Eh/α   predicted    -0.2342860E-03 (  -2.43%)
   displ. norm   :     0.2247278 α      lambda       -0.2290027E-03
   maximum displ.:     0.1886124 α      in ANC's #2, #1, #3, ...
 * RMSD in coord.:     0.7902695 α      energy gain  -0.7955810E-02 Eh

generating ANC from model Hessian ...
Using Lindh-Hessian (1995)
 Shifting diagonal of input Hessian by    8.9390215972327200E-003
 Lowest  eigenvalues of input Hessian
    0.000000    0.000000    0.000000    0.000000    0.000000    0.000000
    0.010000    0.010807    0.012463    0.015346    0.015869    0.020826
    0.022103    0.024930    0.025865    0.027677    0.029567    0.031220
 Highest eigenvalues
    1.770387    1.809353    1.876127    1.954532    2.014395    2.112035


........................................................................
.............................. CYCLE   21 ..............................
........................................................................
   1    -35.9548327 -0.359548E+02  0.768E-02    3.09       0.0  T
   2    -35.9548404 -0.767888E-05  0.434E-02    3.09       1.0  T
   3    -35.9548348  0.558928E-05  0.212E-02    3.09       1.0  T
   4    -35.9548428 -0.806302E-05  0.437E-03    3.09       4.4  T
   5    -35.9548432 -0.412884E-06  0.136E-03    3.09      14.2  T
   6    -35.9548433 -0.224009E-07  0.583E-04    3.09      33.0  T
   7    -35.9548433 -0.112438E-08  0.288E-04    3.09      66.9  T
     SCC iter.                  ...        0 min,  0.024 sec
     gradient                   ...        0 min,  0.003 sec
 * total energy  :   -35.3210761 Eh     change       -0.1422857E-03 Eh
   gradient norm :     0.0087785 Eh/α   predicted     0.0000000E+00 (-100.00%)
   displ. norm   :     0.0680972 α      lambda       -0.1435389E-03
   maximum displ.:     0.0374258 α      in ANC's #2, #3, #1, ...

........................................................................
.............................. CYCLE   22 ..............................
........................................................................
   1    -35.9568039 -0.359568E+02  0.296E-02    3.09       0.0  T
   2    -35.9568042 -0.321200E-06  0.175E-02    3.09       1.1  T
   3    -35.9568039  0.318298E-06  0.372E-03    3.09       5.2  T
   4    -35.9568043 -0.389686E-06  0.849E-04    3.09      22.7  T
   5    -35.9568043 -0.146222E-07  0.364E-04    3.09      52.9  T
     SCC iter.                  ...        0 min,  0.018 sec
     gradient                   ...        0 min,  0.003 sec
 * total energy  :   -35.3211960 Eh     change       -0.1199350E-03 Eh
   gradient norm :     0.0036124 Eh/α   predicted    -0.8169131E-04 ( -31.89%)
   displ. norm   :     0.1212631 α      lambda       -0.1155862E-03
   maximum displ.:     0.0750625 α      in ANC's #2, #3, #1, ...

........................................................................
.............................. CYCLE   23 ..............................
........................................................................
   1    -35.9578503 -0.359579E+02  0.435E-02    3.09       0.0  T
   2    -35.9578507 -0.407329E-06  0.257E-02    3.09       1.0  T
   3    -35.9578494  0.132431E-05  0.674E-03    3.09       2.9  T
   4    -35.9578509 -0.149431E-05  0.145E-03    3.09      13.3  T
   5    -35.9578510 -0.403375E-07  0.447E-04    3.09      43.1  T
   6    -35.9578510 -0.705334E-09  0.217E-04    3.09      88.6  T
     SCC iter.                  ...        0 min,  0.021 sec
     gradient                   ...        0 min,  0.003 sec
 * total energy  :   -35.3212726 Eh     change       -0.7659263E-04 Eh
   gradient norm :     0.0022359 Eh/α   predicted    -0.5864601E-04 ( -23.43%)
   displ. norm   :     0.1046781 α      lambda       -0.5041355E-04
   maximum displ.:     0.0668273 α      in ANC's #2, #3, #1, ...

........................................................................
.............................. CYCLE   24 ..............................
........................................................................
   1    -35.9577574 -0.359578E+02  0.337E-02    3.09       0.0  T
   2    -35.9577576 -0.224966E-06  0.198E-02    3.09       1.0  T
   3    -35.9577560  0.160091E-05  0.767E-03    3.09       2.5  T
   4    -35.9577579 -0.181001E-05  0.103E-03    3.09      18.7  T
   5    -35.9577579 -0.177682E-07  0.332E-04    3.09      57.9  T
   6    -35.9577579 -0.344649E-09  0.145E-04    3.09     132.7  T
     SCC iter.                  ...        0 min,  0.021 sec
     gradient                   ...        0 min,  0.003 sec
 * total energy  :   -35.3213146 Eh     change       -0.4195757E-04 Eh
   gradient norm :     0.0033857 Eh/α   predicted    -0.2548318E-04 ( -39.26%)
   displ. norm   :     0.1398895 α      lambda       -0.6416764E-04
   maximum displ.:     0.0887640 α      in ANC's #2, #1, #3, ...

........................................................................
.............................. CYCLE   25 ..............................
........................................................................
   1    -35.9572126 -0.359572E+02  0.434E-02    3.09       0.0  T
   2    -35.9572132 -0.588687E-06  0.254E-02    3.09       1.0  T
   3    -35.9572101  0.308064E-05  0.112E-02    3.09       1.7  T
   4    -35.9572136 -0.355996E-05  0.163E-03    3.09      11.8  T
   5    -35.9572137 -0.482980E-07  0.477E-04    3.09      40.3  T
   6    -35.9572137 -0.113074E-08  0.215E-04    3.09      89.3  T
     SCC iter.                  ...        0 min,  0.020 sec
     gradient                   ...        0 min,  0.003 sec
 * total energy  :   -35.3213680 Eh     change       -0.5339744E-04 Eh
   gradient norm :     0.0030167 Eh/α   predicted    -0.3271186E-04 ( -38.74%)
   displ. norm   :     0.1705530 α      lambda       -0.6410902E-04
   maximum displ.:     0.1104194 α      in ANC's #2, #1, #3, ...

........................................................................
.............................. CYCLE   26 ..............................
........................................................................
   1    -35.9566445 -0.359566E+02  0.522E-02    3.09       0.0  T
   2    -35.9566458 -0.127698E-05  0.304E-02    3.09       1.0  T
   3    -35.9566414  0.436992E-05  0.140E-02    3.09       1.4  T
   4    -35.9566466 -0.520055E-05  0.234E-03    3.09       8.2  T
   5    -35.9566467 -0.105170E-06  0.629E-04    3.09      30.6  T
   6    -35.9566467 -0.253569E-08  0.286E-04    3.09      67.2  T
     SCC iter.                  ...        0 min,  0.017 sec
     gradient                   ...        0 min,  0.003 sec
 * total energy  :   -35.3214174 Eh     change       -0.4936618E-04 Eh
   gradient norm :     0.0018619 Eh/α   predicted    -0.3298730E-04 ( -33.18%)
   displ. norm   :     0.2048367 α      lambda       -0.3680174E-04
   maximum displ.:     0.1376600 α      in ANC's #2, #1, #3, ...

........................................................................
.............................. CYCLE   27 ..............................
........................................................................
   1    -35.9564025 -0.359564E+02  0.627E-02    3.09       0.0  T
   2    -35.9564049 -0.247120E-05  0.363E-02    3.09       1.0  T
   3    -35.9563992  0.569605E-05  0.169E-02    3.09       1.1  T
   4    -35.9564063 -0.704939E-05  0.305E-03    3.09       6.3  T
   5    -35.9564065 -0.188802E-06  0.789E-04    3.09      24.4  T
   6    -35.9564065 -0.433830E-08  0.361E-04    3.09      53.3  T
     SCC iter.                  ...        0 min,  0.017 sec
     gradient                   ...        0 min,  0.003 sec
 * total energy  :   -35.3214537 Eh     change       -0.3637685E-04 Eh
   gradient norm :     0.0014273 Eh/α   predicted    -0.1874445E-04 ( -48.47%)
   displ. norm   :     0.0854984 α      lambda       -0.1430419E-04
   maximum displ.:     0.0598780 α      in ANC's #2, #1, #5, ...

........................................................................
.............................. CYCLE   28 ..............................
........................................................................
   1    -35.9569490 -0.359569E+02  0.278E-02    3.09       0.0  T
   2    -35.9569496 -0.528193E-06  0.160E-02    3.09       1.2  T
   3    -35.9569487  0.826769E-06  0.676E-03    3.09       2.8  T
   4    -35.9569498 -0.106873E-05  0.117E-03    3.09      16.5  T
   5    -35.9569498 -0.290685E-07  0.349E-04    3.09      55.1  T
   6    -35.9569498 -0.627352E-09  0.166E-04    3.09     116.2  T
     SCC iter.                  ...        0 min,  0.017 sec
     gradient                   ...        0 min,  0.003 sec
 * total energy  :   -35.3214713 Eh     change       -0.1757122E-04 Eh
   gradient norm :     0.0011056 Eh/α   predicted    -0.7185585E-05 ( -59.11%)
   displ. norm   :     0.1103562 α      lambda       -0.1658613E-04
   maximum displ.:     0.0748941 α      in ANC's #2, #1, #3, ...

........................................................................
.............................. CYCLE   29 ..............................
........................................................................
   1    -35.9570739 -0.359571E+02  0.366E-02    3.09       0.0  T
   2    -35.9570746 -0.673691E-06  0.211E-02    3.09       1.0  T
   3    -35.9570735  0.109380E-05  0.744E-03    3.09       2.6  T
   4    -35.9570749 -0.138408E-05  0.122E-03    3.09      15.7  T
   5    -35.9570749 -0.299317E-07  0.446E-04    3.09      43.2  T
   6    -35.9570749 -0.666532E-09  0.201E-04    3.09      95.9  T
     SCC iter.                  ...        0 min,  0.017 sec
     gradient                   ...        0 min,  0.003 sec
 * total energy  :   -35.3214903 Eh     change       -0.1900101E-04 Eh
   gradient norm :     0.0007057 Eh/α   predicted    -0.8338973E-05 ( -56.11%)
   displ. norm   :     0.0976413 α      lambda       -0.9571766E-05
   maximum displ.:     0.0658578 α      in ANC's #2, #1, #3, ...

........................................................................
.............................. CYCLE   30 ..............................
........................................................................
   1    -35.9569656 -0.359570E+02  0.321E-02    3.09       0.0  T
   2    -35.9569659 -0.346737E-06  0.186E-02    3.09       1.0  T
   3    -35.9569652  0.680497E-06  0.542E-03    3.09       3.6  T
   4    -35.9569661 -0.829906E-06  0.969E-04    3.09      19.9  T
   5    -35.9569661 -0.169055E-07  0.388E-04    3.09      49.6  T
     SCC iter.                  ...        0 min,  0.014 sec
     gradient                   ...        0 min,  0.003 sec
 * total energy  :   -35.3215007 Eh     change       -0.1042172E-04 Eh
   gradient norm :     0.0005858 Eh/α   predicted    -0.4810645E-05 ( -53.84%)
   displ. norm   :     0.0608274 α      lambda       -0.3960405E-05
   maximum displ.:     0.0406972 α      in ANC's #2, #1, #3, ...

........................................................................
.............................. CYCLE   31 ..............................
........................................................................
   1    -35.9568589 -0.359569E+02  0.205E-02    3.09       0.0  T
   2    -35.9568589 -0.615139E-07  0.119E-02    3.09       1.6  T
   3    -35.9568588  0.149092E-06  0.233E-03    3.09       8.2  T
   4    -35.9568590 -0.179561E-06  0.475E-04    3.09      40.5  T
   5    -35.9568590 -0.284090E-08  0.231E-04    3.09      83.4  T
     SCC iter.                  ...        0 min,  0.014 sec
     gradient                   ...        0 min,  0.003 sec
 * total energy  :   -35.3215050 Eh     change       -0.4269983E-05 Eh
   gradient norm :     0.0003826 Eh/α   predicted    -0.1983853E-05 ( -53.54%)
   displ. norm   :     0.0349182 α      lambda       -0.1721983E-05
   maximum displ.:     0.0223485 α      in ANC's #2, #1, #3, ...

   *** GEOMETRY OPTIMIZATION CONVERGED AFTER 31 ITERATIONS ***

------------------------------------------------------------------------
 total energy gain   :        -0.0085270 Eh       -5.3508 kcal/mol
 total RMSD          :         0.9333778 a0        0.4939 Å
 total power (kW/mol):        -0.7221805 (step)  -27.1259 (real)
------------------------------------------------------------------------

 ANCopt (total)                0 d,  0 h,  0 min,  0.825 sec
 optimizer setup                ...        0 min,  0.000 sec (  0.010%)
 model hessian                  ...        0 min,  0.013 sec (  1.634%)
 ANC generation                 ...        0 min,  0.008 sec (  0.922%)
 coordinate transformation      ...        0 min,  0.001 sec (  0.085%)
 single point calculation       ...        0 min,  0.794 sec ( 96.146%)
 optimization log               ...        0 min,  0.003 sec (  0.338%)
 hessian update                 ...        0 min,  0.001 sec (  0.170%)
 rational function              ...        0 min,  0.003 sec (  0.347%)

================
 final structure:
================
27
 xtb: 6.5.1 (fef0646)
N            3.01293241907155        2.22886359246053       -1.78248730344993
C            2.48359028338221        1.32124833241811       -0.72149423022435
C            2.99913090275654       -0.09177428666207       -1.00504856476793
C            4.50352381938771       -0.04381918898247       -1.09153452262353
C            5.28676832678263       -0.22109575324573        0.01913203121383
C            6.68764285232135       -0.07912988878824       -0.04177601042535
C            7.50814986377149       -0.27821262980912        1.08788638299183
C            8.86432911142836       -0.13342948162512        0.99431167981123
C            9.46196849609941        0.21731653018416       -0.22775896359079
C            8.69506619199815        0.41990701176325       -1.34086913225054
C            7.29307989431824        0.27722205695365       -1.27872186640517
C            6.47307333580568        0.44865064558367       -2.41028134731332
C            5.11222537250720        0.30155886724096       -2.32372061793397
H            3.04497143048190        3.20820078452487       -1.48517968004851
H            2.45131900881605        2.15852591086623       -2.63802032660131
H            3.98645254600813        1.86307638709678       -1.99719913249345
H            1.39466034970556        1.36062076209993       -0.70706752366168
H            2.86495294295677        1.66245544814723        0.24181489178223
H            2.57049892247435       -0.46925344345069       -1.93478629677011
H            2.68179393741973       -0.74978951545515       -0.19809218266558
H            4.83545286380314       -0.49089304717413        0.96283720632436
H            7.04672451682527       -0.55074912417801        2.02529148282532
H            9.48756964107280       -0.29015937419956        1.86112544212430
H           10.53439785514598        0.32277812313462       -0.28062853767483
H            9.14926672724054        0.68542933027534       -2.28376447121523
H            6.93446246403507        0.68545262064970       -3.35736650688190
H            4.52019592438322        0.32624933017231       -3.23146190007583

 Bond Distances (Angstroems)
 ---------------------------
N1-C2=1.4932         N1-H14=1.0240        N1-H15=1.0258        N1-H16=1.0619        C2-N1=1.4932         C2-C3=1.5306         
C2-H17=1.0897        C2-H18=1.0908        C3-C2=1.5306         C3-C4=1.5076         C3-H19=1.0912        C3-H20=1.0885        
C4-C3=1.5076         C4-C5=1.3706         C4-C13=1.4171        C5-C4=1.3706         C5-C6=1.4094         C5-H21=1.0803        
C6-C5=1.4094         C6-C7=1.4103         C6-C11=1.4225        C7-C6=1.4103         C7-C8=1.3671         C7-H22=1.0798        
C8-C7=1.3671         C8-C9=1.4049         C8-H23=1.0791        C9-C8=1.4049         C9-C10=1.3668        C9-H24=1.0789        
C10-C9=1.3668        C10-C11=1.4106       C10-H25=1.0797       C11-C6=1.4225        C11-C10=1.4106       C11-C12=1.4079       
C12-C11=1.4079       C12-C13=1.3715       C12-H26=1.0798       C13-C4=1.4171        C13-C12=1.3715       C13-H27=1.0840       
H14-N1=1.0240        H15-N1=1.0258        H16-N1=1.0619        H17-C2=1.0897        H18-C2=1.0908        H19-C3=1.0912        
H20-C3=1.0885        H21-C5=1.0803        H22-C7=1.0798        H23-C8=1.0791        H24-C9=1.0789        H25-C10=1.0797       
H26-C12=1.0798       H27-C13=1.0840       
 C  H  Rav=1.0838 sigma=0.0049  Rmin=1.0789  Rmax=1.0912    11
 C  C  Rav=1.4151 sigma=0.0486  Rmin=1.3668  Rmax=1.5306    13
 N  H  Rav=1.0372 sigma=0.0175  Rmin=1.0240  Rmax=1.0619     3
 N  C  Rav=1.4932 sigma=0.0000  Rmin=1.4932  Rmax=1.4932     1

 selected bond angles (degree)
 --------------------
H14-N1-C2=112.71               H15-N1-C2=110.91               H15-N1-H14=108.96              H16-N1-C2=105.03               
H16-N1-H14=111.07              H16-N1-H15=108.04              C3-C2-N1=108.06                H17-C2-N1=109.98               
H17-C2-C3=111.86               H18-C2-N1=108.27               H18-C2-C3=109.55               H18-C2-H17=109.05              
C4-C3-C2=108.50                H19-C3-C2=110.18               H19-C3-C4=110.74               H20-C3-C2=108.82               
H20-C3-C4=110.65               H20-C3-H19=107.94              C5-C4-C3=121.31                C13-C4-C3=119.09               
C13-C4-C5=119.39               C6-C5-C4=121.33                H21-C5-C4=120.10               H21-C5-C6=118.57               
C7-C6-C5=121.97                C11-C6-C5=119.07               C11-C6-C7=118.96               C8-C7-C6=120.49                
H22-C7-C6=118.84               H22-C7-C8=120.67               C9-C8-C7=120.53                H23-C8-C7=120.17               
H23-C8-C9=119.30               C10-C9-C8=120.45               H24-C9-C8=119.33               H24-C9-C10=120.22              
C11-C10-C9=120.45              H25-C10-C9=120.77              H25-C10-C11=118.78             

 selected dihedral angles (degree)
 ---------------------------------
C3-C2-N1-H14=203.14           C3-C2-N1-H15= 80.67           C3-C2-N1-H16=324.19           H17-C2-N1-H14= 80.77          
H17-C2-N1-H15=318.30          H17-C2-N1-H16=201.82          H18-C2-N1-H14=321.71          H18-C2-N1-H15=199.24          
H18-C2-N1-H16= 82.77          C4-C3-C2-N1= 55.38            C4-C3-C2-H17=176.58           C4-C3-C2-H18=297.62           
H19-C3-C2-N1=293.99           H19-C3-C2-H17= 55.20          H19-C3-C2-H18=176.24          H20-C3-C2-N1=175.84           
H20-C3-C2-H17=297.04          H20-C3-C2-H18= 58.08          C5-C4-C3-C2= 89.78            C5-C4-C3-H19=210.82           
C5-C4-C3-H20=330.46           C13-C4-C3-C2=275.09           C13-C4-C3-H19= 36.13          C13-C4-C3-H20=155.78          
C6-C5-C4-C3=184.73            C6-C5-C4-C13=359.40           H21-C5-C4-C3=  5.73           H21-C5-C4-C13=180.40          
C7-C6-C5-C4=180.98            C7-C6-C5-H21=  0.00           C11-C6-C5-C4=  1.06           C11-C6-C5-H21=180.07          
C8-C7-C6-C5=179.95            C8-C7-C6-C11=359.87           H22-C7-C6-C5=  0.21           H22-C7-C6-C11=180.13          
C9-C8-C7-C6=  0.07            C9-C8-C7-H22=179.81           H23-C8-C7-C6=180.20           H23-C8-C7-H22=359.94          
C10-C9-C8-C7=  0.05           C10-C9-C8-H23=179.92          H24-C9-C8-C7=180.23           H24-C9-C8-H23=  0.10          
C11-C10-C9-C8=359.88          C11-C10-C9-H24=179.70         H25-C10-C9-C8=180.27          H25-C10-C9-H24=  0.09         
           -------------------------------------------------
          |                Final Singlepoint                |
           -------------------------------------------------

          ...................................................
          :                      SETUP                      :
          :.................................................:
          :  # basis functions                  66          :
          :  # atomic orbitals                  66          :
          :  # shells                           40          :
          :  # electrons                        66          :
          :  max. iterations                   250          :
          :  Hamiltonian                  GFN2-xTB          :
          :  restarted?                      false          :
          :  GBSA solvation                  false          :
          :  PC potential                    false          :
          :  electronic temp.          300.0000000     K    :
          :  accuracy                    1.0000000          :
          :  -> integral cutoff          0.2500000E+02      :
          :  -> integral neglect         0.1000000E-07      :
          :  -> SCF convergence          0.1000000E-05 Eh   :
          :  -> wf. convergence          0.1000000E-03 e    :
          :  Broyden damping             0.4000000          :
          ...................................................

 iter      E             dE          RMSdq      gap      omega  full diag
   1    -35.9568590 -0.359569E+02  0.663E-05    3.09       0.0  T
   2    -35.9568590 -0.367280E-10  0.468E-05    3.09     411.5  T
   3    -35.9568590 -0.486509E-10  0.165E-05    3.09    1167.7  T

   *** convergence criteria satisfied after 3 iterations ***

         #    Occupation            Energy/Eh            Energy/eV
      -------------------------------------------------------------
         1        2.0000           -0.8777727             -23.8854
       ...           ...                  ...                  ...
        27        2.0000           -0.5668245             -15.4241
        28        2.0000           -0.5565896             -15.1456
        29        2.0000           -0.5421335             -14.7522
        30        2.0000           -0.5272425             -14.3470
        31        2.0000           -0.5228072             -14.2263
        32        2.0000           -0.5146018             -14.0030
        33        2.0000           -0.4917896             -13.3823 (HOMO)
        34                         -0.3782655             -10.2931 (LUMO)
        35                         -0.3494184              -9.5082
        36                         -0.3029214              -8.2429
        37                         -0.2659432              -7.2367
        38                         -0.2388666              -6.4999
       ...                                ...                  ...
        66                          0.5864109              15.9571
      -------------------------------------------------------------
                  HL-Gap            0.1135241 Eh            3.0891 eV
             Fermi-level           -0.4350276 Eh          -11.8377 eV

 SCC (total)                   0 d,  0 h,  0 min,  0.014 sec
 SCC setup                      ...        0 min,  0.000 sec (  0.653%)
 Dispersion                     ...        0 min,  0.000 sec (  2.174%)
 classical contributions        ...        0 min,  0.000 sec (  0.216%)
 integral evaluation            ...        0 min,  0.001 sec (  6.780%)
 iterations                     ...        0 min,  0.009 sec ( 62.604%)
 molecular gradient             ...        0 min,  0.003 sec ( 21.739%)
 printout                       ...        0 min,  0.001 sec (  4.711%)

         :::::::::::::::::::::::::::::::::::::::::::::::::::::
         ::                     SUMMARY                     ::
         :::::::::::::::::::::::::::::::::::::::::::::::::::::
         :: total energy             -35.321504994080 Eh    ::
         :: gradient norm              0.000382274800 Eh/a0 ::
         :: HOMO-LUMO gap              3.089147031840 eV    ::
         ::.................................................::
         :: SCC energy               -35.956858957227 Eh    ::
         :: -> isotropic ES            0.099068611955 Eh    ::
         :: -> anisotropic ES         -0.013321156844 Eh    ::
         :: -> anisotropic XC          0.024233475818 Eh    ::
         :: -> dispersion             -0.024195450690 Eh    ::
         :: repulsion energy           0.635256062268 Eh    ::
         :: add. restraining           0.000000000000 Eh    ::
         :: total charge               1.000000000000 e     ::
         :::::::::::::::::::::::::::::::::::::::::::::::::::::

           -------------------------------------------------
          |                Property Printout                |
           -------------------------------------------------

    * Orbital Energies and Occupations

         #    Occupation            Energy/Eh            Energy/eV
      -------------------------------------------------------------
         1        2.0000           -0.8777727             -23.8854
       ...           ...                  ...                  ...
        21        2.0000           -0.6071509             -16.5214
        22        2.0000           -0.6053656             -16.4728
        23        2.0000           -0.6005682             -16.3423
        24        2.0000           -0.5862422             -15.9525
        25        2.0000           -0.5803094             -15.7910
        26        2.0000           -0.5760494             -15.6751
        27        2.0000           -0.5668245             -15.4241
        28        2.0000           -0.5565896             -15.1456
        29        2.0000           -0.5421335             -14.7522
        30        2.0000           -0.5272425             -14.3470
        31        2.0000           -0.5228072             -14.2263
        32        2.0000           -0.5146018             -14.0030
        33        2.0000           -0.4917896             -13.3823 (HOMO)
        34                         -0.3782655             -10.2931 (LUMO)
        35                         -0.3494184              -9.5082
        36                         -0.3029214              -8.2429
        37                         -0.2659432              -7.2367
        38                         -0.2388666              -6.4999
        39                         -0.1722421              -4.6869
        40                         -0.1368384              -3.7236
        41                         -0.0844514              -2.2980
        42                         -0.0758286              -2.0634
        43                         -0.0480070              -1.3063
        44                         -0.0330722              -0.8999
       ...                                ...                  ...
        66                          0.5864109              15.9571
      -------------------------------------------------------------
                  HL-Gap            0.1135241 Eh            3.0891 eV
             Fermi-level           -0.4350276 Eh          -11.8377 eV

     #   Z          covCN         q      C6AA      α(0)
     1   7 N        3.481    -0.146    24.143     7.298
     2   6 C        3.735    -0.028    21.161     6.565
     3   6 C        3.809    -0.090    22.212     6.709
     4   6 C        2.968    -0.012    28.306     8.727
     5   6 C        2.921    -0.044    29.094     8.845
     6   6 C        2.986     0.018    27.604     8.618
     7   6 C        2.917    -0.032    28.792     8.799
     8   6 C        2.916    -0.017    28.443     8.745
     9   6 C        2.916    -0.018    28.461     8.748
    10   6 C        2.917    -0.030    28.760     8.794
    11   6 C        2.986     0.015    27.669     8.629
    12   6 C        2.915    -0.032    28.807     8.801
    13   6 C        2.917    -0.075    29.870     8.962
    14   1 H        0.859     0.257     0.856     1.449
    15   1 H        0.859     0.260     0.845     1.440
    16   1 H        0.855     0.280     0.777     1.381
    17   1 H        0.925     0.100     1.786     2.090
    18   1 H        0.924     0.101     1.775     2.083
    19   1 H        0.924     0.069     2.101     2.267
    20   1 H        0.925     0.090     1.877     2.142
    21   1 H        0.926     0.047     2.360     2.402
    22   1 H        0.926     0.048     2.342     2.393
    23   1 H        0.926     0.056     2.249     2.345
    24   1 H        0.926     0.056     2.248     2.345
    25   1 H        0.926     0.049     2.330     2.387
    26   1 H        0.926     0.049     2.330     2.387
    27   1 H        0.925     0.030     2.589     2.516

 Mol. C6AA /au·bohr⁶  :       7490.166709
 Mol. C8AA /au·bohr⁸  :     181584.336635
 Mol. α(0) /au        :        137.869817


Wiberg/Mayer (AO) data.
largest (>0.10) Wiberg bond orders for each atom

 ---------------------------------------------------------------------------
     #   Z sym  total        # sym  WBO       # sym  WBO       # sym  WBO
 ---------------------------------------------------------------------------
     1   7 N    3.660 --     2 C    0.935    14 H    0.920    15 H    0.918
                            16 H    0.822
     2   6 C    3.899 --     3 C    0.994    18 H    0.969    17 H    0.969
                             1 N    0.935
     3   6 C    3.979 --     4 C    1.004     2 C    0.994    19 H    0.969
                            20 H    0.962
     4   6 C    3.985 --     5 C    1.522    13 C    1.270     3 C    1.004
     5   6 C    3.991 --     4 C    1.522     6 C    1.288    21 H    0.965
                            12 C    0.111
     6   6 C    3.990 --     5 C    1.288     7 C    1.279    11 C    1.240
     7   6 C    3.990 --     8 C    1.558     6 C    1.279    22 H    0.967
                            10 C    0.117
     8   6 C    3.988 --     7 C    1.558     9 C    1.317    23 H    0.969
     9   6 C    3.988 --    10 C    1.559     8 C    1.317    24 H    0.969
    10   6 C    3.990 --     9 C    1.559    11 C    1.277    25 H    0.967
                             7 C    0.117
    11   6 C    3.991 --    12 C    1.293    10 C    1.277     6 C    1.240
    12   6 C    3.990 --    13 C    1.525    11 C    1.293    26 H    0.967
                             5 C    0.111
    13   6 C    3.988 --    12 C    1.525     4 C    1.270    27 H    0.957
    14   1 H    0.934 --     1 N    0.920
    15   1 H    0.932 --     1 N    0.918
    16   1 H    0.921 --     1 N    0.822
    17   1 H    0.989 --     2 C    0.969
    18   1 H    0.990 --     2 C    0.969
    19   1 H    0.995 --     3 C    0.969
    20   1 H    0.991 --     3 C    0.962
    21   1 H    0.997 --     5 C    0.965
    22   1 H    0.997 --     7 C    0.967
    23   1 H    0.996 --     8 C    0.969
    24   1 H    0.996 --     9 C    0.969
    25   1 H    0.997 --    10 C    0.967
    26   1 H    0.997 --    12 C    0.967
    27   1 H    0.999 --    13 C    0.957
 ---------------------------------------------------------------------------

Topologies differ in total number of bonds
Writing topology from bond orders to xtbtopo.mol

molecular dipole:
                 x           y           z       tot (Debye)
 q only:        7.060       3.323      -2.568
   full:        7.045       3.454      -2.720      21.107
molecular quadrupole (traceless):
                xx          xy          yy          xz          yz          zz
 q only:       54.868      29.230     -25.988     -21.338     -17.951     -28.880
  q+dip:       56.526      30.313     -31.111     -21.940     -20.472     -25.415
   full:       54.366      29.829     -26.918     -22.420     -19.368     -27.449

           -------------------------------------------------
          |                Geometry Summary                 |
           -------------------------------------------------

      molecular mass/u    :      172.2467045
   center of mass at/Å    :        5.9188568       0.3872495      -0.8026901
  moments of inertia/u·Å² :        0.2553022E+03   0.1064051E+04   0.1197948E+04
rotational constants/cm⁻¹ :        0.6603011E-01   0.1584289E-01   0.1407210E-01

 * 27 selected distances

     #   Z          #   Z                                           value/Å
     1   7 N        2   6 C                                       1.4932097
     2   6 C        3   6 C                                       1.5306268 (max)
     4   6 C        5   6 C                                       1.3705763
     5   6 C        6   6 C                                       1.4093665
     6   6 C        7   6 C                                       1.4103202
     7   6 C        8   6 C                                       1.3670921
     8   6 C        9   6 C                                       1.4048675
     9   6 C       10   6 C                                       1.3668199
     6   6 C       11   6 C                                       1.4225246
    10   6 C       11   6 C                                       1.4105982
    11   6 C       12   6 C                                       1.4079154
     4   6 C       13   6 C                                       1.4170697
    12   6 C       13   6 C                                       1.3715088
     1   7 N       14   1 H                                       1.0239726 (min)
     1   7 N       15   1 H                                       1.0258138
     1   7 N       16   1 H                                       1.0619054
     2   6 C       17   1 H                                       1.0897371
     2   6 C       18   1 H                                       1.0907907
     3   6 C       19   1 H                                       1.0911592
     3   6 C       20   1 H                                       1.0885153
     5   6 C       21   1 H                                       1.0803036
     7   6 C       22   1 H                                       1.0797768
     8   6 C       23   1 H                                       1.0790548
     9   6 C       24   1 H                                       1.0788986
    10   6 C       25   1 H                                       1.0797463
    12   6 C       26   1 H                                       1.0797804
    13   6 C       27   1 H                                       1.0840217

 * 4 distinct bonds (by element types)

   Z      Z             #   av. dist./Å        max./Å        min./Å
   1 H    6 C          11     1.0837986     1.0911592     1.0788986
   6 C    6 C          12     1.4074405     1.5306268     1.3668199
   1 H    7 N           3     1.0372306     1.0619054     1.0239726
   6 C    7 N           1     1.4932097     1.4932097     1.4932097


optimized geometry written to: xtbopt.xyz


           -------------------------------------------------
          | TOTAL ENERGY              -35.321504994080 Eh   |
          | GRADIENT NORM               0.000382274800 Eh/α |
          | HOMO-LUMO GAP               3.089147031840 eV   |
           -------------------------------------------------

------------------------------------------------------------------------
 * finished run on 2023/01/23 at 19:08:52.486     
------------------------------------------------------------------------
 total:
 * wall-time:     0 d,  0 h,  0 min,  0.918 sec
 *  cpu-time:     0 d,  0 h,  1 min, 22.569 sec
 * ratio c/w:    89.965 speedup
 SCF:
 * wall-time:     0 d,  0 h,  0 min,  0.053 sec
 *  cpu-time:     0 d,  0 h,  0 min,  6.877 sec
 * ratio c/w:   129.094 speedup
 ANC optimizer:
 * wall-time:     0 d,  0 h,  0 min,  0.841 sec
 *  cpu-time:     0 d,  0 h,  1 min, 12.744 sec
 * ratio c/w:    86.545 speedup

