27
 energy: -35.426494082529 gnorm: 0.000369255068 xtb: 6.5.1 (fef0646)
N            2.69423501029001       -1.52544503483186       -2.12151403486750
C            2.42331361803802       -0.58851801847208       -1.00391327115052
C            3.01962849660809       -1.13014961068919        0.29444831580827
C            4.52517011698829       -1.18306611168803        0.23645651944326
C            5.26871586217685       -0.03452220724815        0.33728555340650
C            6.67591864700660       -0.06400015887917        0.27490559585139
C            7.45466698088351        1.10759404643200        0.38554258738638
C            8.81856068173792        1.04486493936412        0.33216006378800
C            9.46750115225300       -0.18962400111671        0.16299551773177
C            8.74141123261067       -1.34195358999859        0.05056093876721
C            7.33229784916479       -1.31145109120167        0.10357980137683
C            6.54956612334725       -2.48003289984934        0.00194940556549
C            5.18550437210610       -2.41604104451923        0.06183352098831
H            2.34055011599278       -1.15263139592253       -3.01004306926636
H            2.24535993523922       -2.43126006210931       -1.94150282604237
H            3.70688298749397       -1.67831125043271       -2.20336785059299
H            1.34692792162474       -0.46492107708184       -0.89190676226179
H            2.86863616894343        0.37871698231987       -1.23493403814544
H            2.62371729086772       -2.12349200637577        0.50472185502342
H            2.71722456408856       -0.47391508096124        1.11004344111496
H            4.78552908468205        0.92053138204129        0.48466857232216
H            6.95621495693717        2.05709883535921        0.51732146789346
H            9.41136859917121        1.94370306460327        0.41999703432924
H           10.54682371691568       -0.21809798055889        0.12466229568491
H            9.23876354684398       -2.29304621349060       -0.07731084050324
H            7.05208938542342       -3.42856389325611       -0.11979128696009
H            4.60797158256518       -3.32657652143548        0.00268149330867
