27
 energy: -35.321504994080 gnorm: 0.000382274800 xtb: 6.5.1 (fef0646)
N            3.01293241907155        2.22886359246053       -1.78248730344993
C            2.48359028338221        1.32124833241811       -0.72149423022435
C            2.99913090275654       -0.09177428666207       -1.00504856476793
C            4.50352381938771       -0.04381918898247       -1.09153452262353
C            5.28676832678263       -0.22109575324573        0.01913203121383
C            6.68764285232135       -0.07912988878824       -0.04177601042535
C            7.50814986377149       -0.27821262980912        1.08788638299183
C            8.86432911142836       -0.13342948162512        0.99431167981123
C            9.46196849609941        0.21731653018416       -0.22775896359079
C            8.69506619199815        0.41990701176325       -1.34086913225054
C            7.29307989431824        0.27722205695365       -1.27872186640517
C            6.47307333580568        0.44865064558367       -2.41028134731332
C            5.11222537250720        0.30155886724096       -2.32372061793397
H            3.04497143048190        3.20820078452487       -1.48517968004851
H            2.45131900881605        2.15852591086623       -2.63802032660131
H            3.98645254600813        1.86307638709678       -1.99719913249345
H            1.39466034970556        1.36062076209993       -0.70706752366168
H            2.86495294295677        1.66245544814723        0.24181489178223
H            2.57049892247435       -0.46925344345069       -1.93478629677011
H            2.68179393741973       -0.74978951545515       -0.19809218266558
H            4.83545286380314       -0.49089304717413        0.96283720632436
H            7.04672451682527       -0.55074912417801        2.02529148282532
H            9.48756964107280       -0.29015937419956        1.86112544212430
H           10.53439785514598        0.32277812313462       -0.28062853767483
H            9.14926672724054        0.68542933027534       -2.28376447121523
H            6.93446246403507        0.68545262064970       -3.35736650688190
H            4.52019592438322        0.32624933017231       -3.23146190007583
