 Entering Gaussian System
 *********************************************
 Gaussian 98:
 frequency output generated by the xtb code
 *********************************************
                         Standard orientation:
 --------------------------------------------------------------------
  Center     Atomic     Atomic              Coordinates (Angstroms)
  Number     Number      Type              X           Y           Z
 --------------------------------------------------------------------
    1          7             0        0.890743   -2.092933    1.177221
    2          6             0       -0.108412   -2.399119    0.118365
    3          6             0       -0.573248   -1.150118   -0.624336
    4          6             0       -1.322120   -0.160283    0.267055
    5          6             0       -1.815736    1.070689   -0.494016
    6          6             0       -2.561068    2.065614    0.396835
    7          6             0       -3.048424    3.287506   -0.365835
    8         17             0        3.389669   -0.162168   -0.275332
    9          1             0        0.479049   -1.521509    1.931481
   10          1             0        1.684585   -1.554018    0.783677
   11          1             0        1.275340   -2.948854    1.612521
   12          1             0       -0.970743   -2.910034    0.563799
   13          1             0        0.325272   -3.117703   -0.589126
   14          1             0       -1.214473   -1.430196   -1.470583
   15          1             0        0.293173   -0.649703   -1.074030
   16          1             0       -0.677175    0.159195    1.094612
   17          1             0       -2.171531   -0.664087    0.744989
   18          1             0       -2.465641    0.757351   -1.320613
   19          1             0       -0.966225    1.571344   -0.975009
   20          1             0       -1.906983    2.372022    1.224323
   21          1             0       -3.407399    1.557680    0.878599
   22          1             0       -2.215493    3.825661   -0.823999
   23          1             0       -3.578308    3.991820    0.280616
   24          1             0       -3.729999    3.004898   -1.171352
 --------------------------------------------------------------------
     1 basis functions        1 primitive gaussians
     1 alpha electrons        1 beta electrons

 Harmonic frequencies (cm**-1), IR intensities (km*mol⁻¹),
 Raman scattering activities (A**4/amu), Raman depolarization ratios,
 reduced masses (AMU), force constants (mDyne/A) and normal coordinates:
                      1                      2                      3
                        a                      a                      a 
 Frequencies --  -137.2646                52.0761                72.9380
 Red. masses --    21.4113                23.5577                11.6240
 Frc consts  --     0.0000                 0.0000                 0.0000
 IR Inten    --   141.6881                13.4708                 1.3941
 Raman Activ --     0.0000                 0.0000                 0.0000
 Depolar     --     0.0000                 0.0000                 0.0000
 Atom AN      X      Y      Z        X      Y      Z        X      Y      Z
   1   7     0.45   0.32  -0.26     0.08   0.11  -0.06    -0.12  -0.19   0.10
   2   6     0.22   0.12  -0.00     0.01   0.16  -0.01    -0.01   0.03  -0.07
   3   6     0.01   0.02  -0.03    -0.02   0.17   0.01     0.26   0.15  -0.02
   4   6     0.01   0.01  -0.02    -0.10   0.11   0.01     0.45   0.25   0.03
   5   6    -0.01   0.01  -0.01    -0.16   0.09   0.02     0.19   0.13   0.00
   6   6    -0.00   0.00  -0.00    -0.30   0.01   0.00     0.06   0.03   0.01
   7   6     0.00   0.01   0.01    -0.36  -0.02   0.01    -0.37  -0.17  -0.04
   8  17    -0.50  -0.36   0.24     0.59  -0.43   0.02    -0.28  -0.14  -0.02
   9   1     0.15   0.08  -0.05     0.06   0.09  -0.04    -0.04  -0.06   0.03
  10   1     0.10   0.12  -0.13     0.07  -0.04  -0.03    -0.01  -0.06   0.06
  11   1     0.17   0.10  -0.08    -0.04   0.02   0.02    -0.07  -0.07   0.02
  12   1     0.10   0.03   0.06     0.01   0.05   0.01    -0.04   0.03  -0.06
  13   1     0.04   0.02  -0.01    -0.01   0.04  -0.01    -0.00   0.01  -0.02
  14   1    -0.01  -0.02   0.01     0.01   0.05  -0.00     0.06   0.09  -0.01
  15   1    -0.02   0.02  -0.04    -0.01   0.06   0.01     0.10   0.00   0.00
  16   1     0.01   0.00  -0.01    -0.04   0.04   0.01     0.18   0.11  -0.05
  17   1     0.01  -0.00  -0.00    -0.02   0.01  -0.01     0.16   0.08   0.08
  18   1    -0.00   0.00  -0.00    -0.03   0.02  -0.01     0.05  -0.01   0.02
  19   1    -0.00   0.00  -0.00    -0.05   0.05   0.02     0.02   0.07  -0.02
  20   1    -0.00  -0.00   0.00    -0.11   0.01   0.01     0.03   0.08  -0.03
  21   1    -0.00   0.00  -0.00    -0.08  -0.02  -0.02     0.08  -0.04   0.05
  22   1     0.00   0.00   0.00    -0.11   0.02   0.02    -0.17  -0.00  -0.07
  23   1    -0.00   0.00   0.00    -0.13  -0.02  -0.00    -0.12  -0.07  -0.01
  24   1     0.00   0.00  -0.00    -0.09  -0.01  -0.01    -0.13  -0.12   0.03
                      4                      5                      6
                        a                      a                      a 
 Frequencies --   112.2035               128.4957               139.0038
 Red. masses --     7.4400                10.1698                 7.3287
 Frc consts  --     0.0000                 0.0000                 0.0000
 IR Inten    --     3.5309                 8.1064                 2.5944
 Raman Activ --     0.0000                 0.0000                 0.0000
 Depolar     --     0.0000                 0.0000                 0.0000
 Atom AN      X      Y      Z        X      Y      Z        X      Y      Z
   1   7    -0.09   0.15  -0.01    -0.13   0.09   0.33     0.09  -0.18  -0.10
   2   6     0.02   0.00  -0.07     0.23   0.13  -0.03     0.08  -0.00  -0.14
   3   6    -0.14  -0.10  -0.14     0.41   0.20  -0.03     0.00   0.12   0.12
   4   6     0.09   0.03  -0.09    -0.17  -0.12  -0.17    -0.33  -0.15   0.16
   5   6    -0.33  -0.17  -0.14    -0.19  -0.09  -0.11     0.05   0.03   0.20
   6   6     0.31   0.11   0.08     0.02  -0.05   0.02     0.24   0.28   0.08
   7   6    -0.07  -0.03   0.10     0.08   0.05   0.16    -0.15  -0.10  -0.29
   8  17     0.15  -0.01   0.18    -0.16  -0.16  -0.15     0.00   0.02   0.02
   9   1    -0.06   0.03  -0.01    -0.08   0.07   0.03     0.02  -0.09   0.01
  10   1    -0.02   0.06   0.03     0.02  -0.03   0.12     0.01  -0.01   0.00
  11   1    -0.01   0.05   0.00    -0.11   0.02   0.15     0.04  -0.06  -0.07
  12   1     0.02  -0.03  -0.03     0.03   0.02  -0.10     0.04  -0.05  -0.07
  13   1     0.04   0.01  -0.01     0.14   0.06   0.01     0.03   0.05  -0.09
  14   1    -0.10  -0.06   0.01     0.24   0.07  -0.11     0.06   0.07  -0.02
  15   1    -0.07  -0.05  -0.12     0.16   0.11   0.13     0.01   0.10   0.11
  16   1     0.12   0.08  -0.12    -0.16  -0.03   0.04    -0.19  -0.11   0.15
  17   1     0.10   0.02   0.11    -0.06  -0.12  -0.16    -0.15  -0.07  -0.09
  18   1    -0.25  -0.11   0.10    -0.09  -0.01  -0.01     0.01   0.06   0.04
  19   1    -0.17  -0.10  -0.23    -0.06  -0.04  -0.06     0.06  -0.06   0.08
  20   1     0.25   0.07  -0.12     0.05  -0.05  -0.01     0.13   0.19  -0.07
  21   1     0.16   0.09   0.21     0.01   0.01   0.03     0.13   0.11   0.15
  22   1    -0.09  -0.05  -0.14     0.02  -0.01   0.02    -0.10  -0.07  -0.24
  23   1     0.09   0.04   0.07     0.07   0.03   0.08     0.01   0.04  -0.12
  24   1    -0.16  -0.05   0.16    -0.02   0.06   0.07    -0.12  -0.15   0.03
                      7                      8                      9
                        a                      a                      a 
 Frequencies --   143.1966               190.5396               262.3985
 Red. masses --     8.2275                 8.8139                 5.9089
 Frc consts  --     0.0000                 0.0000                 0.0000
 IR Inten    --     3.3890                15.4748                 5.2916
 Raman Activ --     0.0000                 0.0000                 0.0000
 Depolar     --     0.0000                 0.0000                 0.0000
 Atom AN      X      Y      Z        X      Y      Z        X      Y      Z
   1   7    -0.07   0.25   0.06     0.32  -0.39  -0.08    -0.05   0.13  -0.25
   2   6    -0.10  -0.02   0.16    -0.19  -0.04   0.27    -0.32   0.07   0.06
   3   6    -0.09  -0.18  -0.13     0.16   0.01   0.12     0.16   0.13  -0.07
   4   6    -0.15  -0.10  -0.27    -0.09   0.08  -0.16     0.06  -0.06   0.02
   5   6     0.37   0.19  -0.12    -0.15   0.02  -0.26    -0.07  -0.11   0.12
   6   6     0.25  -0.03   0.03     0.04   0.06  -0.13     0.09  -0.07   0.16
   7   6    -0.24  -0.11   0.22    -0.10   0.17   0.14     0.15  -0.23  -0.11
   8  17     0.04  -0.01  -0.00    -0.01   0.10   0.06    -0.01   0.07   0.05
   9   1    -0.00   0.14  -0.03     0.20  -0.13   0.06     0.11   0.32  -0.21
  10   1    -0.01   0.01  -0.03     0.06  -0.10  -0.08     0.11  -0.22  -0.18
  11   1    -0.04   0.09   0.09     0.10  -0.14  -0.11    -0.21   0.05   0.15
  12   1    -0.03   0.04   0.09    -0.08   0.12   0.18    -0.14   0.18   0.11
  13   1    -0.04  -0.06   0.10    -0.21  -0.11   0.08    -0.21  -0.11   0.07
  14   1    -0.01  -0.09  -0.03     0.11   0.01  -0.02     0.10   0.11  -0.08
  15   1    -0.02  -0.07  -0.04     0.10  -0.02   0.11     0.11   0.02   0.08
  16   1    -0.10  -0.12   0.00    -0.07   0.05  -0.02    -0.00  -0.01   0.02
  17   1    -0.12   0.01  -0.18    -0.03   0.01  -0.08     0.03  -0.06  -0.01
  18   1     0.16   0.16  -0.12    -0.08  -0.01  -0.04    -0.06  -0.04   0.07
  19   1     0.17   0.05   0.08    -0.06  -0.01  -0.12    -0.04  -0.04  -0.01
  20   1     0.08   0.02  -0.01     0.06  -0.01  -0.07     0.05   0.01   0.02
  21   1     0.13  -0.08   0.03     0.04   0.02   0.01     0.03   0.01   0.08
  22   1    -0.14   0.03   0.01    -0.06   0.06  -0.00     0.06  -0.06   0.02
  23   1    -0.07  -0.08   0.11     0.03   0.03   0.11    -0.04  -0.06  -0.11
  24   1    -0.11  -0.07   0.11    -0.09   0.09   0.08     0.12  -0.13  -0.08
                     10                     11                     12
                        a                      a                      a 
 Frequencies --   269.7806               310.9861               358.9894
 Red. masses --     1.9843                 4.1880                 9.1604
 Frc consts  --     0.0000                 0.0000                 0.0000
 IR Inten    --     0.3164                 0.8387                 2.1872
 Raman Activ --     0.0000                 0.0000                 0.0000
 Depolar     --     0.0000                 0.0000                 0.0000
 Atom AN      X      Y      Z        X      Y      Z        X      Y      Z
   1   7    -0.02   0.04  -0.05    -0.11   0.18  -0.03    -0.11   0.11  -0.16
   2   6    -0.07   0.02   0.01    -0.23   0.13   0.09    -0.09   0.06  -0.11
   3   6     0.02   0.03  -0.02     0.11   0.13  -0.07    -0.09   0.23   0.32
   4   6     0.07   0.01   0.02     0.01  -0.00  -0.07    -0.09   0.09   0.35
   5   6     0.08   0.02   0.05    -0.02  -0.02   0.03     0.16  -0.23  -0.24
   6   6    -0.18  -0.13  -0.01     0.02  -0.11   0.12     0.20  -0.23  -0.32
   7   6     0.08  -0.03  -0.01     0.09  -0.21  -0.03    -0.01  -0.05   0.15
   8  17     0.01   0.02   0.02     0.09  -0.06  -0.03     0.02  -0.01   0.00
   9   1     0.01   0.04  -0.03    -0.11  -0.34   0.24    -0.04   0.03  -0.05
  10   1     0.01  -0.01  -0.03    -0.25   0.41   0.03    -0.04   0.04  -0.05
  11   1    -0.02   0.02   0.01     0.33   0.04  -0.33    -0.01   0.05  -0.03
  12   1    -0.03   0.04   0.02    -0.10   0.12   0.06    -0.00  -0.04  -0.05
  13   1    -0.05  -0.02   0.01    -0.12  -0.03   0.06    -0.01   0.08  -0.08
  14   1     0.00   0.02  -0.01     0.08   0.07  -0.07    -0.01   0.15   0.06
  15   1     0.02  -0.00  -0.00     0.08   0.02   0.04    -0.02   0.10   0.14
  16   1     0.02  -0.00   0.01    -0.02  -0.02   0.00    -0.06   0.08   0.10
  17   1     0.02   0.00   0.00     0.00  -0.03  -0.05    -0.05   0.06   0.09
  18   1     0.09   0.01  -0.04    -0.02   0.01   0.01     0.07  -0.13  -0.06
  19   1     0.04   0.05   0.08    -0.02   0.01   0.00     0.07  -0.12  -0.08
  20   1    -0.10  -0.07   0.05     0.01  -0.03   0.03     0.08  -0.10  -0.09
  21   1    -0.09  -0.04  -0.08     0.01  -0.03   0.04     0.08  -0.10  -0.09
  22   1     0.02  -0.34  -0.41     0.04  -0.07   0.01    -0.04   0.06   0.06
  23   1     0.49   0.26   0.09    -0.01  -0.04  -0.06     0.02  -0.10   0.15
  24   1    -0.38   0.08   0.30     0.07  -0.09  -0.03    -0.04   0.06   0.05
                     13                     14                     15
                        a                      a                      a 
 Frequencies --   398.8936               495.6481               766.8096
 Red. masses --     8.8573                 8.2553                 1.8614
 Frc consts  --     0.0000                 0.0000                 0.0000
 IR Inten    --     7.1239                 5.9850                23.2221
 Raman Activ --     0.0000                 0.0000                 0.0000
 Depolar     --     0.0000                 0.0000                 0.0000
 Atom AN      X      Y      Z        X      Y      Z        X      Y      Z
   1   7     0.14  -0.21   0.18     0.06  -0.06   0.15     0.04   0.03   0.04
   2   6     0.07   0.33   0.01    -0.05   0.41   0.02    -0.05   0.03   0.02
   3   6    -0.28   0.19  -0.03    -0.08   0.12  -0.35    -0.10  -0.03  -0.04
   4   6    -0.16   0.22  -0.11     0.07  -0.29   0.13    -0.15  -0.09  -0.05
   5   6    -0.02   0.12  -0.17     0.11  -0.28   0.19    -0.12  -0.08  -0.01
   6   6     0.08  -0.21   0.14     0.04   0.02  -0.20    -0.05  -0.03  -0.02
   7   6     0.20  -0.35  -0.00    -0.09   0.17   0.00    -0.00   0.00  -0.00
   8  17    -0.04   0.01  -0.00    -0.02   0.00  -0.00     0.00  -0.00  -0.00
   9   1     0.10  -0.04   0.08     0.08  -0.07   0.11     0.07  -0.00   0.05
  10   1     0.12  -0.14   0.10     0.07  -0.06   0.10     0.02  -0.03  -0.01
  11   1    -0.10  -0.14  -0.00    -0.08  -0.11  -0.07    -0.01  -0.02  -0.03
  12   1     0.03   0.06  -0.02    -0.07   0.25   0.04     0.02  -0.07  -0.02
  13   1     0.02   0.13  -0.03    -0.09   0.00   0.07     0.05   0.06  -0.01
  14   1    -0.14  -0.05   0.07    -0.10  -0.04  -0.01     0.20   0.05  -0.20
  15   1    -0.15   0.07  -0.12    -0.10   0.07  -0.20     0.06   0.08   0.25
  16   1    -0.03   0.07  -0.05     0.06  -0.15   0.03     0.25   0.15  -0.31
  17   1    -0.06   0.10  -0.01     0.05  -0.14   0.03     0.15   0.03   0.38
  18   1    -0.01   0.07  -0.05     0.07  -0.11   0.04     0.21   0.17  -0.26
  19   1    -0.01   0.06  -0.03     0.07  -0.13   0.06     0.15   0.02   0.35
  20   1     0.04  -0.08   0.04    -0.00   0.02  -0.05     0.15   0.04  -0.15
  21   1     0.03  -0.09   0.03     0.00   0.03  -0.05     0.06   0.07   0.20
  22   1     0.08  -0.15  -0.01    -0.06   0.11   0.01     0.04  -0.02   0.05
  23   1     0.04  -0.05  -0.07    -0.01  -0.02   0.09     0.02   0.01   0.01
  24   1     0.09  -0.15  -0.01    -0.06   0.10   0.01     0.01   0.06  -0.03
                     16                     17                     18
                        a                      a                      a 
 Frequencies --   791.0464               830.8430               869.6393
 Red. masses --     2.3851                 2.7708                 3.7013
 Frc consts  --     0.0000                 0.0000                 0.0000
 IR Inten    --     4.7822                31.8673                 3.3343
 Raman Activ --     0.0000                 0.0000                 0.0000
 Depolar     --     0.0000                 0.0000                 0.0000
 Atom AN      X      Y      Z        X      Y      Z        X      Y      Z
   1   7    -0.04  -0.04  -0.06    -0.08   0.04   0.03    -0.18  -0.05  -0.10
   2   6     0.10  -0.04  -0.04    -0.21   0.11   0.16     0.01   0.11   0.12
   3   6     0.16   0.05   0.06    -0.04  -0.02   0.03     0.24   0.03   0.16
   4   6     0.07   0.08   0.06     0.18  -0.01  -0.10    -0.00  -0.05  -0.06
   5   6    -0.10  -0.02  -0.05     0.06  -0.03   0.06    -0.17  -0.11  -0.05
   6   6    -0.18  -0.09  -0.03    -0.10  -0.05  -0.02     0.11   0.07   0.05
   7   6    -0.03  -0.02   0.00    -0.04  -0.00  -0.03     0.07   0.06   0.01
   8  17    -0.00  -0.00   0.00     0.00   0.01   0.01     0.00   0.00   0.01
   9   1    -0.13  -0.01  -0.09     0.36   0.07   0.17     0.13   0.05   0.02
  10   1    -0.02   0.05   0.05    -0.08  -0.12  -0.28    -0.12  -0.05  -0.22
  11   1     0.01   0.04   0.06     0.02  -0.05  -0.15     0.04   0.00  -0.07
  12   1    -0.04   0.14   0.04     0.03  -0.32  -0.20    -0.04  -0.03  -0.13
  13   1    -0.10  -0.12   0.02     0.27   0.32  -0.06     0.09   0.11   0.00
  14   1    -0.19  -0.07   0.22    -0.00   0.02  -0.01    -0.13  -0.16   0.25
  15   1    -0.07  -0.05  -0.26     0.06  -0.11   0.03    -0.05  -0.06  -0.24
  16   1    -0.16   0.05   0.14    -0.04  -0.14   0.09    -0.06   0.17  -0.04
  17   1    -0.02  -0.08  -0.15    -0.03  -0.03  -0.19     0.12  -0.17   0.03
  18   1     0.18  -0.01  -0.18     0.01  -0.11   0.06     0.09   0.15  -0.19
  19   1     0.02   0.13   0.21    -0.07   0.07  -0.05     0.10  -0.04   0.22
  20   1     0.24   0.13  -0.29     0.07   0.11  -0.13    -0.02  -0.19   0.13
  21   1     0.12   0.06   0.38     0.07  -0.01   0.17    -0.12   0.12  -0.15
  22   1     0.14  -0.11   0.13     0.08  -0.07   0.08    -0.16   0.15  -0.16
  23   1     0.06   0.04   0.01     0.06   0.02   0.02    -0.10  -0.04  -0.03
  24   1     0.03   0.18  -0.10    -0.00   0.15  -0.07    -0.01  -0.24   0.11
                     19                     20                     21
                        a                      a                      a 
 Frequencies --   907.2904               944.4893               949.0415
 Red. masses --     7.0784                 4.8974                 4.7727
 Frc consts  --     0.0000                 0.0000                 0.0000
 IR Inten    --    20.6324                 6.5181                 3.8187
 Raman Activ --     0.0000                 0.0000                 0.0000
 Depolar     --     0.0000                 0.0000                 0.0000
 Atom AN      X      Y      Z        X      Y      Z        X      Y      Z
   1   7     0.17  -0.09   0.34    -0.05  -0.07   0.07     0.19   0.11   0.12
   2   6    -0.11  -0.33  -0.10     0.05  -0.01  -0.03    -0.19  -0.08  -0.12
   3   6    -0.06   0.24  -0.32     0.05   0.05  -0.03    -0.14   0.01  -0.06
   4   6    -0.07   0.13   0.11    -0.08  -0.14   0.12     0.19   0.02   0.06
   5   6    -0.10   0.04   0.08     0.20  -0.07  -0.30    -0.02  -0.16  -0.20
   6   6     0.05  -0.01  -0.11    -0.06   0.03   0.24    -0.06  -0.01   0.14
   7   6     0.07  -0.08  -0.00    -0.21   0.21   0.08     0.01   0.22   0.08
   8  17     0.00  -0.00   0.01     0.00   0.00   0.01    -0.00   0.00  -0.00
   9   1     0.14   0.14   0.01     0.11   0.07   0.02    -0.01  -0.04   0.05
  10   1    -0.16   0.02  -0.26    -0.12  -0.01  -0.20     0.14   0.01   0.19
  11   1     0.34   0.18   0.22     0.13   0.06   0.04    -0.08  -0.04   0.00
  12   1    -0.10  -0.04  -0.12    -0.10   0.11  -0.10     0.06  -0.12   0.07
  13   1     0.04  -0.12   0.05     0.03  -0.07   0.07    -0.03   0.03  -0.07
  14   1    -0.09   0.16  -0.07    -0.01  -0.05   0.03    -0.06   0.23  -0.08
  15   1    -0.03   0.07  -0.11    -0.08   0.14  -0.05     0.09  -0.13   0.07
  16   1    -0.04   0.03   0.05     0.05   0.03  -0.05    -0.08  -0.07   0.14
  17   1    -0.00  -0.02  -0.00     0.01   0.02   0.13    -0.03  -0.04  -0.16
  18   1     0.02   0.01  -0.01    -0.03  -0.02  -0.02     0.18  -0.15  -0.16
  19   1    -0.00   0.02   0.07     0.08  -0.16  -0.17    -0.01   0.10   0.09
  20   1     0.02  -0.03  -0.02    -0.03   0.01   0.07     0.13  -0.24   0.01
  21   1    -0.02   0.04  -0.04     0.10  -0.20   0.04    -0.08   0.13   0.07
  22   1    -0.05   0.06  -0.02     0.15  -0.25   0.04    -0.08   0.03  -0.15
  23   1     0.01  -0.11   0.09    -0.06   0.36  -0.32    -0.15   0.17  -0.22
  24   1    -0.03  -0.02   0.04     0.11  -0.04  -0.08     0.07  -0.29   0.08
                     22                     23                     24
                        a                      a                      a 
 Frequencies --   992.4589              1009.1694              1063.5328
 Red. masses --     5.3856                 3.8339                 8.4155
 Frc consts  --     0.0000                 0.0000                 0.0000
 IR Inten    --    15.4227                10.3348                 9.6083
 Raman Activ --     0.0000                 0.0000                 0.0000
 Depolar     --     0.0000                 0.0000                 0.0000
 Atom AN      X      Y      Z        X      Y      Z        X      Y      Z
   1   7    -0.20   0.14  -0.05    -0.12  -0.22  -0.10    -0.14  -0.12  -0.25
   2   6     0.22  -0.09  -0.05     0.20   0.16   0.19     0.21  -0.09   0.49
   3   6     0.08  -0.21  -0.16    -0.13   0.03   0.02    -0.07   0.18  -0.37
   4   6    -0.08   0.10   0.33     0.06   0.01  -0.10    -0.07   0.21   0.09
   5   6    -0.07   0.17  -0.09     0.07  -0.06   0.05    -0.05  -0.05   0.08
   6   6    -0.05   0.03  -0.08    -0.08  -0.08   0.02     0.06   0.02  -0.09
   7   6     0.08  -0.06   0.06     0.07   0.09   0.00    -0.06   0.01   0.09
   8  17    -0.00   0.00   0.00     0.01  -0.00   0.00     0.00   0.00  -0.00
   9   1     0.27  -0.03   0.21    -0.15   0.05  -0.17    -0.14  -0.05  -0.10
  10   1     0.02  -0.12  -0.08    -0.17   0.05  -0.17    -0.02   0.01   0.02
  11   1    -0.17  -0.15  -0.28     0.17   0.13   0.16    -0.07  -0.02  -0.02
  12   1    -0.06   0.16  -0.03    -0.01   0.09  -0.01     0.19  -0.21   0.17
  13   1     0.14  -0.26   0.27    -0.03   0.05  -0.01     0.13   0.05   0.10
  14   1     0.06  -0.02  -0.08     0.16  -0.17  -0.08    -0.02   0.14  -0.12
  15   1    -0.02   0.07   0.03    -0.10   0.22   0.11     0.09  -0.08  -0.05
  16   1    -0.02  -0.05   0.11     0.13  -0.23  -0.02    -0.06   0.07   0.05
  17   1    -0.11   0.15   0.06    -0.12   0.23  -0.04     0.04  -0.10  -0.03
  18   1     0.05  -0.08  -0.03     0.12  -0.27   0.03     0.02  -0.01  -0.00
  19   1    -0.07   0.14  -0.01    -0.13   0.21  -0.01     0.09  -0.15   0.05
  20   1     0.08  -0.08  -0.06     0.13  -0.14  -0.07     0.00  -0.03  -0.00
  21   1    -0.03   0.08   0.02    -0.07   0.17   0.11     0.05  -0.09  -0.06
  22   1    -0.03   0.02  -0.04    -0.09   0.11  -0.10     0.06  -0.11   0.02
  23   1    -0.02  -0.04   0.01    -0.06  -0.01  -0.02    -0.02   0.10  -0.09
  24   1     0.01  -0.11   0.05     0.00  -0.13   0.07     0.05  -0.05  -0.01
                     25                     26                     27
                        a                      a                      a 
 Frequencies --  1078.8316              1102.5706              1115.4185
 Red. masses --     9.1022                 7.7448                 7.7223
 Frc consts  --     0.0000                 0.0000                 0.0000
 IR Inten    --     3.8198                 1.9009                 2.2929
 Raman Activ --     0.0000                 0.0000                 0.0000
 Depolar     --     0.0000                 0.0000                 0.0000
 Atom AN      X      Y      Z        X      Y      Z        X      Y      Z
   1   7     0.06  -0.07  -0.01     0.08   0.02   0.05    -0.09   0.01  -0.02
   2   6    -0.10   0.15   0.04    -0.13   0.06  -0.14     0.16  -0.12   0.06
   3   6     0.03  -0.06  -0.03     0.16  -0.18  -0.05    -0.17   0.19   0.08
   4   6     0.10  -0.29   0.24    -0.22   0.39  -0.10     0.13  -0.09  -0.19
   5   6    -0.12   0.32  -0.20     0.13  -0.28   0.20     0.17  -0.28  -0.23
   6   6    -0.13   0.34  -0.29    -0.11   0.23  -0.15    -0.21   0.36   0.16
   7   6     0.09  -0.28   0.29     0.02  -0.12   0.23     0.10  -0.22   0.06
   8  17     0.00  -0.00  -0.00    -0.00   0.00   0.00    -0.00   0.00   0.00
   9   1    -0.10   0.01  -0.09     0.01   0.01   0.00     0.05  -0.01   0.04
  10   1    -0.02   0.05   0.01     0.02   0.02   0.03    -0.01  -0.04  -0.04
  11   1     0.06   0.06   0.10     0.02   0.01   0.02    -0.03  -0.03  -0.07
  12   1     0.01  -0.05  -0.02    -0.06   0.01  -0.09     0.03   0.03   0.08
  13   1    -0.03   0.15  -0.10    -0.01   0.05  -0.05     0.01  -0.12   0.08
  14   1     0.03  -0.05  -0.01     0.11  -0.24  -0.01    -0.10   0.22   0.01
  15   1     0.03  -0.04   0.01     0.07  -0.13  -0.07    -0.07   0.13   0.06
  16   1     0.07  -0.16   0.06    -0.05   0.13  -0.04    -0.02   0.05  -0.04
  17   1     0.07  -0.15   0.06    -0.09   0.19   0.00     0.00  -0.00  -0.08
  18   1    -0.00   0.03  -0.06     0.11  -0.24   0.05     0.06  -0.04  -0.08
  19   1    -0.02   0.05  -0.07     0.10  -0.20   0.03     0.07  -0.09  -0.05
  20   1    -0.01   0.06  -0.09    -0.04   0.09  -0.04    -0.16   0.26   0.06
  21   1    -0.02   0.07  -0.08    -0.05   0.11  -0.02    -0.15   0.24   0.04
  22   1     0.08  -0.17   0.05     0.06  -0.14   0.03    -0.00   0.01   0.06
  23   1     0.00   0.00  -0.03    -0.02   0.06  -0.06     0.05  -0.14   0.14
  24   1     0.08  -0.18   0.06     0.07  -0.15   0.04    -0.03   0.02   0.04
                     28                     29                     30
                        a                      a                      a 
 Frequencies --  1139.3310              1163.2519              1209.8933
 Red. masses --     8.0684                 6.8618                 5.2223
 Frc consts  --     0.0000                 0.0000                 0.0000
 IR Inten    --     6.0087                 6.7641                 1.2367
 Raman Activ --     0.0000                 0.0000                 0.0000
 Depolar     --     0.0000                 0.0000                 0.0000
 Atom AN      X      Y      Z        X      Y      Z        X      Y      Z
   1   7    -0.06   0.11   0.03    -0.11  -0.12   0.10    -0.09  -0.06   0.04
   2   6     0.09  -0.22  -0.06     0.24   0.28  -0.18     0.11   0.10  -0.07
   3   6    -0.10   0.24   0.26    -0.25  -0.31   0.08    -0.01  -0.05   0.02
   4   6     0.07  -0.07  -0.35     0.22   0.13  -0.02    -0.14  -0.06  -0.04
   5   6    -0.07   0.05   0.32    -0.19  -0.08   0.07     0.24   0.13   0.07
   6   6     0.07  -0.00  -0.36     0.15   0.05  -0.06    -0.34  -0.18  -0.08
   7   6    -0.05   0.02   0.22    -0.09  -0.03   0.03     0.24   0.13   0.06
   8  17    -0.00   0.00   0.00     0.00  -0.00   0.00     0.00   0.00   0.00
   9   1     0.10  -0.02   0.10     0.06   0.08  -0.02     0.06   0.05   0.00
  10   1     0.04  -0.05  -0.00    -0.15  -0.02  -0.19    -0.07  -0.01  -0.07
  11   1    -0.06  -0.05  -0.10     0.13   0.05   0.03     0.07   0.02  -0.01
  12   1    -0.01   0.04   0.04     0.04   0.23   0.09     0.09   0.04   0.13
  13   1    -0.04  -0.14   0.03    -0.10  -0.05  -0.02    -0.06  -0.02  -0.03
  14   1    -0.08   0.06   0.10     0.03   0.18  -0.14    -0.09   0.20   0.00
  15   1    -0.12   0.18   0.02     0.10  -0.18   0.22     0.12  -0.22   0.00
  16   1     0.09  -0.10  -0.12    -0.14   0.08   0.13    -0.05   0.18  -0.08
  17   1     0.06  -0.06  -0.06     0.01  -0.06  -0.16     0.10  -0.15   0.08
  18   1    -0.02  -0.01   0.09    -0.00   0.12  -0.07    -0.14   0.06   0.16
  19   1    -0.04   0.03   0.06     0.05  -0.06   0.14     0.04  -0.12  -0.17
  20   1     0.07  -0.08  -0.11    -0.05  -0.01   0.06     0.06   0.13  -0.20
  21   1     0.06  -0.07  -0.08     0.02  -0.06  -0.11     0.07  -0.06   0.23
  22   1     0.07  -0.17  -0.00     0.06  -0.09   0.05    -0.13   0.16  -0.17
  23   1    -0.06   0.16  -0.16     0.02   0.06  -0.03    -0.11  -0.06  -0.03
  24   1     0.11  -0.17   0.01     0.02   0.04  -0.04     0.01  -0.23   0.14
                     31                     32                     33
                        a                      a                      a 
 Frequencies --  1237.4047              1257.1740              1275.0892
 Red. masses --     3.0031                 3.1372                 3.0557
 Frc consts  --     0.0000                 0.0000                 0.0000
 IR Inten    --    12.6291                 0.9155                 2.1350
 Raman Activ --     0.0000                 0.0000                 0.0000
 Depolar     --     0.0000                 0.0000                 0.0000
 Atom AN      X      Y      Z        X      Y      Z        X      Y      Z
   1   7     0.18  -0.06  -0.15    -0.02  -0.06  -0.01     0.04  -0.02  -0.05
   2   6    -0.11   0.09   0.13     0.04   0.10   0.00     0.04   0.02  -0.04
   3   6    -0.07  -0.13   0.04     0.14  -0.02   0.02    -0.14   0.07   0.14
   4   6     0.12  -0.06  -0.05    -0.21  -0.18  -0.06    -0.08   0.15  -0.08
   5   6     0.01  -0.06   0.06     0.14   0.01   0.06    -0.02   0.22  -0.02
   6   6    -0.04  -0.06  -0.10     0.12   0.03  -0.02    -0.09   0.10   0.12
   7   6     0.05   0.04   0.07    -0.18  -0.08  -0.00    -0.02  -0.05  -0.12
   8  17     0.00   0.00  -0.00     0.00   0.00   0.00     0.00   0.00  -0.00
   9   1    -0.16  -0.05  -0.12     0.00   0.03  -0.03    -0.03  -0.02  -0.02
  10   1     0.06   0.10   0.13    -0.04   0.02  -0.02     0.02   0.02   0.03
  11   1    -0.04   0.01   0.09     0.03   0.01   0.02     0.00   0.02   0.04
  12   1    -0.31   0.11  -0.43     0.03   0.02   0.03    -0.14   0.11  -0.17
  13   1     0.37  -0.05   0.35     0.05   0.00   0.05     0.15  -0.11   0.19
  14   1    -0.09   0.19  -0.01    -0.25   0.39   0.09     0.02  -0.02   0.01
  15   1    -0.04   0.08   0.10     0.15  -0.28  -0.09     0.10  -0.21   0.05
  16   1    -0.11   0.15   0.03     0.06   0.04  -0.14     0.15  -0.25  -0.03
  17   1    -0.05   0.10  -0.04    -0.10   0.21   0.16     0.18  -0.32  -0.02
  18   1    -0.10   0.19   0.02    -0.01  -0.05   0.07     0.13  -0.26   0.01
  19   1    -0.01   0.01   0.02    -0.12   0.20  -0.06     0.19  -0.34  -0.07
  20   1    -0.03   0.11  -0.05     0.12  -0.26   0.03     0.18  -0.32   0.00
  21   1     0.02  -0.02   0.03    -0.18   0.33  -0.05    -0.00  -0.01   0.02
  22   1    -0.02   0.01  -0.05     0.08  -0.12   0.10     0.01   0.02   0.05
  23   1    -0.04   0.02  -0.04     0.05   0.06  -0.01     0.04  -0.08   0.08
  24   1     0.03  -0.08   0.03     0.01   0.12  -0.09    -0.05   0.08  -0.02
                     34                     35                     36
                        a                      a                      a 
 Frequencies --  1284.2568              1289.8088              1324.8800
 Red. masses --     1.6963                 2.2574                 3.6229
 Frc consts  --     0.0000                 0.0000                 0.0000
 IR Inten    --     2.3454                 0.1412                 8.5712
 Raman Activ --     0.0000                 0.0000                 0.0000
 Depolar     --     0.0000                 0.0000                 0.0000
 Atom AN      X      Y      Z        X      Y      Z        X      Y      Z
   1   7    -0.02   0.03   0.01    -0.01  -0.02  -0.01    -0.08  -0.12  -0.07
   2   6     0.02  -0.04   0.03     0.04   0.03  -0.01    -0.15   0.13  -0.25
   3   6     0.07   0.04  -0.01     0.10   0.06   0.06    -0.07   0.22   0.09
   4   6     0.15   0.05   0.05    -0.08  -0.02  -0.04    -0.00   0.04   0.04
   5   6    -0.06  -0.03  -0.02    -0.24  -0.06  -0.05     0.03  -0.08  -0.05
   6   6    -0.12  -0.07  -0.03     0.02   0.06   0.04     0.08  -0.14  -0.04
   7   6    -0.01  -0.00   0.00     0.12   0.05  -0.00    -0.02   0.01   0.06
   8  17     0.00   0.00   0.00     0.00   0.00   0.00    -0.00  -0.00  -0.00
   9   1     0.01  -0.01   0.02    -0.00   0.00  -0.01     0.11   0.06  -0.01
  10   1     0.00  -0.02  -0.02    -0.01  -0.00  -0.01     0.01   0.04   0.14
  11   1    -0.01   0.00  -0.00     0.01   0.01   0.02     0.14   0.09   0.08
  12   1     0.01  -0.00   0.02    -0.01   0.04  -0.01     0.21  -0.13   0.25
  13   1    -0.07   0.04  -0.09     0.04  -0.01   0.04     0.29  -0.22   0.38
  14   1    -0.02   0.01   0.03    -0.15   0.21   0.09     0.13  -0.28   0.02
  15   1     0.01  -0.01  -0.04     0.13  -0.25  -0.08     0.10  -0.17  -0.01
  16   1     0.14  -0.32   0.06     0.23  -0.37  -0.06     0.08  -0.14   0.00
  17   1    -0.20   0.36  -0.06    -0.16   0.28   0.05     0.02  -0.06  -0.02
  18   1    -0.24   0.46  -0.00     0.14  -0.15  -0.13    -0.08   0.16  -0.01
  19   1     0.25  -0.44   0.01    -0.01   0.03   0.12    -0.04   0.10   0.02
  20   1     0.12  -0.15  -0.08    -0.18   0.29   0.05    -0.09   0.17   0.01
  21   1    -0.10   0.18   0.09     0.22  -0.40  -0.05    -0.10   0.17   0.00
  22   1     0.00  -0.01  -0.00    -0.05   0.08  -0.06    -0.01  -0.02  -0.02
  23   1    -0.02  -0.01  -0.01    -0.02  -0.04   0.01    -0.02   0.06  -0.06
  24   1    -0.01   0.00  -0.00    -0.00  -0.08   0.06     0.02   0.01  -0.01
                     37                     38                     39
                        a                      a                      a 
 Frequencies --  1338.4461              1375.1737              1378.2501
 Red. masses --     3.7925                 3.4327                 3.7348
 Frc consts  --     0.0000                 0.0000                 0.0000
 IR Inten    --     8.4952                82.4309                53.6756
 Raman Activ --     0.0000                 0.0000                 0.0000
 Depolar     --     0.0000                 0.0000                 0.0000
 Atom AN      X      Y      Z        X      Y      Z        X      Y      Z
   1   7    -0.05  -0.11  -0.02    -0.21  -0.00  -0.09     0.19   0.05   0.09
   2   6    -0.20   0.15  -0.14     0.09  -0.11   0.08     0.01  -0.01  -0.07
   3   6     0.15  -0.14  -0.01    -0.14   0.20  -0.04    -0.13   0.25   0.02
   4   6     0.10  -0.11  -0.08     0.08  -0.16   0.02     0.06  -0.15   0.03
   5   6    -0.07   0.08   0.08     0.03  -0.06   0.03     0.07  -0.12   0.03
   6   6    -0.12   0.21   0.03    -0.08   0.16  -0.00    -0.12   0.22  -0.01
   7   6     0.03  -0.02  -0.08     0.01  -0.01  -0.05     0.02  -0.01  -0.05
   8  17    -0.00  -0.00   0.00    -0.01   0.00  -0.00     0.00   0.00   0.00
   9   1     0.07   0.08  -0.04     0.19   0.10   0.03    -0.19  -0.12  -0.01
  10   1    -0.02   0.05   0.09     0.27  -0.16   0.36    -0.20   0.08  -0.35
  11   1     0.09   0.04   0.04     0.38   0.16  -0.05    -0.33  -0.15   0.01
  12   1     0.25  -0.18   0.29    -0.13   0.11  -0.13     0.03  -0.02   0.01
  13   1     0.17  -0.06   0.19    -0.05   0.05  -0.10     0.03  -0.10   0.09
  14   1    -0.08   0.11   0.04     0.08  -0.18  -0.02     0.13  -0.23  -0.02
  15   1    -0.16   0.31  -0.00     0.14  -0.22   0.03     0.13  -0.26  -0.04
  16   1    -0.11   0.17   0.01    -0.10   0.18   0.01    -0.05   0.16  -0.02
  17   1    -0.09   0.19  -0.00    -0.09   0.15   0.00    -0.09   0.13  -0.01
  18   1     0.08  -0.11  -0.00    -0.02   0.07   0.00    -0.07   0.13   0.01
  19   1     0.08  -0.16  -0.00    -0.05   0.08   0.00    -0.08   0.13  -0.00
  20   1     0.14  -0.26  -0.01     0.08  -0.17  -0.00     0.12  -0.21  -0.02
  21   1     0.14  -0.25  -0.01     0.09  -0.16  -0.01     0.12  -0.21  -0.00
  22   1     0.02   0.01   0.03     0.03  -0.01   0.03     0.02  -0.00   0.03
  23   1     0.03  -0.09   0.08     0.01  -0.05   0.05     0.02  -0.06   0.06
  24   1    -0.03  -0.01   0.02    -0.02  -0.02   0.01    -0.02  -0.04   0.03
                     40                     41                     42
                        a                      a                      a 
 Frequencies --  1387.6795              1404.0315              1439.0099
 Red. masses --     5.3485                 1.6764                 3.2503
 Frc consts  --     0.0000                 0.0000                 0.0000
 IR Inten    --     0.4479                70.7475                 0.9457
 Raman Activ --     0.0000                 0.0000                 0.0000
 Depolar     --     0.0000                 0.0000                 0.0000
 Atom AN      X      Y      Z        X      Y      Z        X      Y      Z
   1   7    -0.03   0.01  -0.02     0.01  -0.17  -0.08     0.00  -0.00  -0.01
   2   6    -0.02   0.04   0.00     0.06  -0.08   0.04     0.00  -0.00   0.00
   3   6     0.09  -0.17   0.01    -0.02   0.01  -0.00     0.00  -0.01  -0.00
   4   6    -0.17   0.30   0.04    -0.01   0.04  -0.01    -0.01   0.02   0.01
   5   6     0.19  -0.35  -0.03     0.03  -0.06  -0.01    -0.00   0.01  -0.02
   6   6    -0.13   0.24  -0.02    -0.02   0.04   0.00     0.04  -0.08  -0.00
   7   6     0.02  -0.03  -0.03     0.00  -0.02   0.00    -0.15   0.36  -0.20
   8  17    -0.00   0.00  -0.00     0.01  -0.01  -0.00     0.00  -0.00  -0.00
   9   1    -0.04  -0.04   0.01     0.44   0.31  -0.01     0.01  -0.00   0.01
  10   1     0.07  -0.10   0.02    -0.26   0.60   0.29    -0.01   0.02   0.01
  11   1     0.09   0.06   0.02    -0.29  -0.09   0.10    -0.01   0.00   0.02
  12   1     0.01  -0.02   0.01    -0.05   0.05  -0.04     0.00   0.00   0.00
  13   1     0.00   0.01   0.01    -0.07   0.04  -0.10     0.00   0.00  -0.00
  14   1    -0.06   0.13   0.01     0.03   0.01  -0.03    -0.00   0.00   0.00
  15   1    -0.08   0.13   0.00    -0.01  -0.01  -0.02    -0.00   0.01   0.00
  16   1     0.16  -0.28  -0.01    -0.00  -0.06   0.03     0.01  -0.02   0.00
  17   1     0.14  -0.26  -0.02     0.03  -0.02   0.03     0.01  -0.02   0.00
  18   1    -0.18   0.31   0.02    -0.03   0.06  -0.00     0.00   0.00  -0.01
  19   1    -0.16   0.30   0.03    -0.03   0.05   0.01    -0.00   0.00  -0.01
  20   1     0.09  -0.20  -0.01     0.02  -0.04   0.00    -0.06   0.06   0.03
  21   1     0.12  -0.18  -0.00     0.02  -0.04  -0.01    -0.02   0.08   0.04
  22   1     0.02   0.00   0.04    -0.01   0.02   0.00     0.33  -0.36   0.16
  23   1     0.01  -0.03   0.03     0.01  -0.00   0.00     0.06  -0.30   0.40
  24   1    -0.03  -0.02   0.03     0.00   0.01  -0.00     0.07  -0.49   0.10
                     43                     44                     45
                        a                      a                      a 
 Frequencies --  1447.9651              1485.4906              1492.4144
 Red. masses --     1.9187                 1.8699                 1.9314
 Frc consts  --     0.0000                 0.0000                 0.0000
 IR Inten    --    91.1051                15.5702                 2.9848
 Raman Activ --     0.0000                 0.0000                 0.0000
 Depolar     --     0.0000                 0.0000                 0.0000
 Atom AN      X      Y      Z        X      Y      Z        X      Y      Z
   1   7     0.04  -0.04   0.25     0.00   0.01  -0.02     0.02  -0.01   0.03
   2   6    -0.02   0.01   0.02     0.08   0.23   0.04    -0.04  -0.13  -0.05
   3   6     0.00   0.02   0.02     0.02   0.01  -0.13     0.04   0.03  -0.24
   4   6    -0.01   0.02  -0.00     0.00   0.00  -0.01    -0.02   0.03   0.01
   5   6     0.00  -0.02  -0.01    -0.01  -0.00   0.02     0.00  -0.02   0.03
   6   6    -0.00  -0.00  -0.00     0.00  -0.00  -0.00     0.00  -0.00  -0.01
   7   6    -0.00   0.01  -0.00    -0.00  -0.00   0.00     0.00  -0.00   0.00
   8  17     0.00  -0.00   0.00     0.00  -0.00  -0.00     0.00  -0.00   0.00
   9   1    -0.20   0.46  -0.44     0.05  -0.02   0.05    -0.03   0.03  -0.04
  10   1    -0.01   0.03   0.05     0.01   0.02   0.03    -0.04   0.02  -0.04
  11   1     0.14  -0.26  -0.62    -0.01   0.03   0.06    -0.03  -0.04  -0.05
  12   1    -0.00  -0.08  -0.07     0.09  -0.45  -0.36    -0.04   0.26   0.21
  13   1    -0.03  -0.07   0.05    -0.44  -0.37   0.11     0.24   0.21  -0.08
  14   1     0.02  -0.01  -0.01    -0.23  -0.12   0.21    -0.38  -0.23   0.35
  15   1    -0.01  -0.00  -0.02     0.14   0.05   0.31     0.23   0.09   0.54
  16   1     0.03  -0.05   0.01    -0.01  -0.01   0.00     0.02  -0.01  -0.02
  17   1     0.01  -0.01  -0.00     0.00   0.01   0.01     0.00  -0.03  -0.02
  18   1    -0.01   0.02  -0.00     0.03   0.01  -0.03     0.04   0.03  -0.04
  19   1    -0.00   0.01   0.01    -0.02  -0.01  -0.04    -0.03  -0.01  -0.06
  20   1    -0.00   0.00  -0.00    -0.01  -0.00   0.01    -0.01  -0.01   0.01
  21   1    -0.00   0.00  -0.00     0.00   0.00   0.01     0.01   0.00   0.02
  22   1     0.01  -0.01   0.00    -0.00  -0.00  -0.00    -0.00   0.00   0.00
  23   1     0.00  -0.00   0.01     0.00  -0.00   0.00    -0.00   0.00  -0.01
  24   1     0.00  -0.01   0.00     0.00   0.00  -0.00    -0.00   0.00   0.00
                     46                     47                     48
                        a                      a                      a 
 Frequencies --  1510.9399              1513.5911              1516.6402
 Red. masses --     1.5270                 1.6827                 1.8769
 Frc consts  --     0.0000                 0.0000                 0.0000
 IR Inten    --     3.2953                 0.4339                 1.6099
 Raman Activ --     0.0000                 0.0000                 0.0000
 Depolar     --     0.0000                 0.0000                 0.0000
 Atom AN      X      Y      Z        X      Y      Z        X      Y      Z
   1   7    -0.00   0.00  -0.00    -0.00  -0.01  -0.00    -0.00  -0.01  -0.01
   2   6    -0.00   0.00  -0.00     0.00   0.01   0.00     0.00   0.01   0.00
   3   6     0.00  -0.00   0.00     0.01  -0.02   0.00     0.01  -0.03   0.02
   4   6     0.00   0.00   0.01    -0.02  -0.02   0.16    -0.04  -0.02   0.22
   5   6     0.00   0.00  -0.01     0.01   0.02  -0.08    -0.03   0.01   0.08
   6   6    -0.04  -0.02  -0.02    -0.01   0.05  -0.05     0.03  -0.03  -0.05
   7   6    -0.19  -0.09  -0.03    -0.03   0.05   0.14     0.04  -0.04  -0.10
   8  17    -0.00   0.00  -0.00     0.00  -0.00  -0.00     0.00  -0.00  -0.00
   9   1    -0.00  -0.00   0.00     0.02   0.02  -0.00     0.03   0.02  -0.00
  10   1     0.01  -0.01   0.00    -0.01   0.02   0.01    -0.01   0.03   0.03
  11   1     0.01   0.00   0.00    -0.00  -0.00   0.00    -0.00   0.00   0.01
  12   1     0.00  -0.00   0.00    -0.00  -0.00  -0.01    -0.00  -0.01  -0.02
  13   1     0.00  -0.00   0.00    -0.01  -0.00  -0.00    -0.01  -0.00  -0.00
  14   1    -0.00   0.00   0.00    -0.01   0.01   0.01     0.01   0.03  -0.02
  15   1    -0.00   0.00   0.00    -0.01   0.01   0.01    -0.02   0.01  -0.02
  16   1     0.02   0.01  -0.02     0.24   0.15  -0.25     0.34   0.20  -0.34
  17   1    -0.01  -0.00  -0.03    -0.15  -0.07  -0.35    -0.21  -0.10  -0.48
  18   1    -0.02   0.01   0.01    -0.12  -0.09   0.12     0.11   0.05  -0.10
  19   1     0.02  -0.01   0.01     0.08   0.03   0.17    -0.06  -0.04  -0.14
  20   1    -0.02   0.01  -0.00    -0.10  -0.10   0.13    -0.05  -0.01   0.04
  21   1     0.02  -0.01   0.04     0.09   0.01   0.17     0.02   0.03   0.05
  22   1    -0.18   0.37   0.13    -0.12  -0.19  -0.44     0.10   0.13   0.33
  23   1     0.62   0.31   0.17    -0.03  -0.17   0.17    -0.01   0.12  -0.15
  24   1     0.34  -0.32  -0.18     0.30   0.13  -0.30    -0.25  -0.07   0.24
                     49                     50                     51
                        a                      a                      a 
 Frequencies --  1519.5632              1527.1444              2849.4417
 Red. masses --     1.7878                 2.0061                 1.9998
 Frc consts  --     0.0000                 0.0000                 0.0000
 IR Inten    --     2.4164                 0.0612              1673.2315
 Raman Activ --     0.0000                 0.0000                 0.0000
 Depolar     --     0.0000                 0.0000                 0.0000
 Atom AN      X      Y      Z        X      Y      Z        X      Y      Z
   1   7    -0.00   0.00   0.00    -0.00  -0.00  -0.00    -0.20  -0.14   0.12
   2   6    -0.00  -0.00   0.00     0.00   0.00   0.00     0.02   0.01  -0.02
   3   6    -0.00  -0.01   0.03     0.00  -0.01   0.00     0.01   0.00   0.00
   4   6    -0.01   0.02  -0.01    -0.02   0.00   0.07    -0.00  -0.00   0.00
   5   6    -0.03  -0.04   0.24     0.00  -0.03   0.07     0.00   0.00   0.00
   6   6     0.01   0.01  -0.05    -0.04  -0.03   0.27    -0.00  -0.00  -0.00
   7   6    -0.02   0.02   0.06    -0.03   0.04   0.04     0.00  -0.00  -0.00
   8  17    -0.00   0.00   0.00    -0.00  -0.00  -0.00     0.01   0.01  -0.01
   9   1    -0.01  -0.00  -0.00     0.01   0.00   0.00     0.00  -0.03  -0.02
  10   1     0.01  -0.01  -0.00     0.00   0.00   0.01     0.73   0.49  -0.38
  11   1     0.00   0.00  -0.00     0.00   0.00   0.00    -0.02   0.02  -0.00
  12   1    -0.00   0.00   0.00    -0.00   0.00  -0.00    -0.07  -0.04   0.05
  13   1     0.00   0.00   0.00    -0.00   0.00  -0.00    -0.00   0.01   0.00
  14   1     0.05   0.03  -0.05    -0.00   0.00   0.00    -0.01  -0.01  -0.02
  15   1    -0.03  -0.01  -0.07    -0.00   0.00   0.00    -0.01  -0.01   0.01
  16   1    -0.03  -0.03   0.04     0.10   0.06  -0.10    -0.01  -0.00  -0.01
  17   1     0.03  -0.00   0.05    -0.06  -0.03  -0.14     0.01   0.01  -0.01
  18   1     0.38   0.25  -0.40     0.08   0.07  -0.08    -0.00  -0.00  -0.00
  19   1    -0.25  -0.10  -0.55    -0.06  -0.01  -0.11     0.00   0.00  -0.00
  20   1    -0.11  -0.07   0.12     0.40   0.24  -0.41     0.01   0.00   0.01
  21   1     0.07   0.03   0.16    -0.25  -0.12  -0.56     0.01   0.01  -0.01
  22   1    -0.07  -0.06  -0.20    -0.03  -0.07  -0.13     0.00   0.00  -0.00
  23   1     0.01  -0.06   0.07     0.02  -0.06   0.09    -0.00   0.00   0.00
  24   1     0.15   0.06  -0.14     0.12   0.01  -0.10    -0.00  -0.00  -0.00
                     52                     53                     54
                        a                      a                      a 
 Frequencies --  2899.1803              2906.2482              2924.6532
 Red. masses --     1.9099                 1.9099                 1.9688
 Frc consts  --     0.0000                 0.0000                 0.0000
 IR Inten    --    32.3456                17.6502                74.1755
 Raman Activ --     0.0000                 0.0000                 0.0000
 Depolar     --     0.0000                 0.0000                 0.0000
 Atom AN      X      Y      Z        X      Y      Z        X      Y      Z
   1   7     0.00   0.00  -0.00     0.00   0.00  -0.00     0.00   0.00  -0.00
   2   6     0.00  -0.00  -0.00     0.00  -0.00  -0.00    -0.00  -0.00   0.00
   3   6     0.00   0.00   0.00     0.04   0.02   0.02     0.08   0.04   0.04
   4   6    -0.01  -0.00  -0.00    -0.23  -0.12  -0.04    -0.08  -0.04  -0.01
   5   6     0.07   0.04   0.02     0.08   0.04   0.02    -0.21  -0.11  -0.08
   6   6    -0.24  -0.13  -0.04     0.04   0.02   0.01    -0.07  -0.04  -0.00
   7   6     0.01   0.01   0.00    -0.00  -0.00  -0.00     0.01   0.01   0.00
   8  17    -0.00   0.00   0.00    -0.00  -0.00   0.00    -0.00   0.00   0.00
   9   1    -0.00   0.00   0.00    -0.00   0.00   0.01    -0.00   0.00   0.00
  10   1    -0.01  -0.01   0.01    -0.01  -0.01   0.00    -0.01  -0.01   0.00
  11   1    -0.00  -0.00  -0.00    -0.00   0.00   0.00     0.00  -0.00   0.00
  12   1    -0.00  -0.00   0.00    -0.00   0.00  -0.00     0.03   0.02  -0.01
  13   1    -0.00   0.00   0.00    -0.00   0.01   0.00    -0.00   0.00   0.00
  14   1    -0.00  -0.00  -0.00    -0.09  -0.04  -0.12    -0.17  -0.07  -0.23
  15   1    -0.01  -0.00   0.00    -0.09  -0.05   0.06    -0.12  -0.07   0.07
  16   1     0.02   0.01   0.02     0.34   0.17   0.45     0.10   0.05   0.14
  17   1     0.01   0.01  -0.01     0.50   0.29  -0.29     0.16   0.09  -0.09
  18   1    -0.13  -0.06  -0.18    -0.15  -0.07  -0.19     0.40   0.19   0.51
  19   1    -0.15  -0.09   0.09    -0.16  -0.10   0.10     0.34   0.20  -0.21
  20   1     0.35   0.17   0.47    -0.05  -0.02  -0.06     0.07   0.03   0.09
  21   1     0.51   0.31  -0.30    -0.08  -0.05   0.05     0.18   0.11  -0.10
  22   1    -0.04  -0.03   0.03     0.01   0.00  -0.00    -0.03  -0.02   0.02
  23   1     0.00   0.00   0.00    -0.00  -0.00  -0.00     0.00   0.00   0.00
  24   1    -0.03  -0.01  -0.04     0.01   0.00   0.01    -0.02  -0.01  -0.03
                     55                     56                     57
                        a                      a                      a 
 Frequencies --  2933.4788              2934.2164              2939.9865
 Red. masses --     1.8657                 1.5515                 1.9313
 Frc consts  --     0.0000                 0.0000                 0.0000
 IR Inten    --    30.8134                 9.1878                 4.9250
 Raman Activ --     0.0000                 0.0000                 0.0000
 Depolar     --     0.0000                 0.0000                 0.0000
 Atom AN      X      Y      Z        X      Y      Z        X      Y      Z
   1   7    -0.00  -0.00   0.00    -0.00  -0.00   0.00    -0.02  -0.01   0.01
   2   6    -0.07  -0.01   0.05    -0.03  -0.00   0.03    -0.20   0.03   0.18
   3   6     0.18   0.09   0.10     0.08   0.04   0.03    -0.05  -0.02  -0.07
   4   6     0.08   0.05  -0.03     0.02   0.01   0.04    -0.02  -0.01  -0.02
   5   6     0.06   0.04   0.01    -0.00  -0.01   0.03    -0.02  -0.01   0.01
   6   6     0.02   0.00   0.07     0.02   0.02  -0.18    -0.01  -0.00   0.01
   7   6    -0.00  -0.01  -0.01    -0.01   0.01   0.02     0.00   0.00  -0.00
   8  17     0.00   0.00  -0.00     0.00   0.00  -0.00     0.00   0.00  -0.00
   9   1    -0.00   0.00   0.00    -0.00   0.00  -0.00    -0.00   0.01   0.01
  10   1     0.01   0.01  -0.01     0.00   0.00  -0.00     0.06   0.04  -0.03
  11   1    -0.00  -0.00   0.00    -0.00  -0.00   0.00    -0.00   0.01  -0.00
  12   1     0.22   0.12  -0.11     0.10   0.06  -0.05     0.48   0.29  -0.24
  13   1     0.04  -0.08  -0.07     0.02  -0.04  -0.03     0.24  -0.41  -0.40
  14   1    -0.40  -0.17  -0.52    -0.15  -0.06  -0.20     0.22   0.09   0.27
  15   1    -0.25  -0.15   0.15    -0.14  -0.08   0.08    -0.06  -0.03   0.02
  16   1     0.01   0.01  -0.01    -0.11  -0.06  -0.14     0.06   0.03   0.07
  17   1    -0.27  -0.16   0.14     0.05   0.02  -0.02     0.03   0.01  -0.02
  18   1    -0.10  -0.04  -0.12    -0.07  -0.04  -0.08     0.01   0.00   0.01
  19   1    -0.13  -0.08   0.08     0.09   0.05  -0.04     0.06   0.04  -0.03
  20   1    -0.17  -0.08  -0.20     0.41   0.20   0.46    -0.01  -0.00  -0.00
  21   1     0.12   0.07  -0.05    -0.47  -0.28   0.22     0.03   0.02  -0.02
  22   1    -0.00  -0.00   0.00     0.03   0.02  -0.02    -0.01  -0.01   0.00
  23   1    -0.01   0.01   0.01     0.03  -0.04  -0.03    -0.00   0.00   0.00
  24   1     0.02   0.01   0.03    -0.04  -0.01  -0.04    -0.00  -0.00  -0.00
                     58                     59                     60
                        a                      a                      a 
 Frequencies --  2943.3021              2954.5939              2966.5076
 Red. masses --     1.4805                 1.5599                 1.5520
 Frc consts  --     0.0000                 0.0000                 0.0000
 IR Inten    --    22.7591                53.8040                27.6671
 Raman Activ --     0.0000                 0.0000                 0.0000
 Depolar     --     0.0000                 0.0000                 0.0000
 Atom AN      X      Y      Z        X      Y      Z        X      Y      Z
   1   7    -0.00  -0.00  -0.00     0.00   0.00  -0.00    -0.01  -0.01   0.01
   2   6     0.02   0.01  -0.01     0.02  -0.02  -0.02    -0.01  -0.14  -0.07
   3   6    -0.04  -0.02   0.01     0.05   0.03  -0.05     0.06   0.04  -0.13
   4   6     0.00   0.01  -0.18    -0.00  -0.01   0.07     0.01   0.01  -0.05
   5   6    -0.04  -0.03   0.07    -0.06  -0.04   0.17     0.01   0.01  -0.04
   6   6    -0.00   0.00  -0.03    -0.01  -0.01   0.05     0.00   0.00  -0.01
   7   6     0.00   0.00   0.00     0.01  -0.01  -0.03    -0.01   0.01   0.02
   8  17     0.00   0.00   0.00    -0.00   0.00  -0.00     0.00   0.00  -0.00
   9   1    -0.00   0.00   0.01     0.00  -0.00  -0.01     0.01  -0.01  -0.01
  10   1     0.01   0.00  -0.00    -0.01  -0.01   0.01     0.02   0.02  -0.02
  11   1     0.00  -0.00   0.00    -0.00  -0.00  -0.00    -0.00   0.00  -0.00
  12   1    -0.07  -0.04   0.04    -0.01  -0.01   0.00     0.27   0.13  -0.15
  13   1    -0.00   0.01   0.00    -0.05   0.08   0.08    -0.25   0.36   0.38
  14   1     0.00  -0.00   0.01     0.05   0.02   0.05     0.22   0.10   0.26
  15   1     0.15   0.09  -0.08    -0.23  -0.14   0.11    -0.42  -0.24   0.20
  16   1     0.41   0.21   0.47    -0.14  -0.07  -0.16     0.10   0.05   0.11
  17   1    -0.42  -0.24   0.19     0.16   0.09  -0.07    -0.13  -0.08   0.06
  18   1    -0.13  -0.06  -0.14    -0.32  -0.16  -0.35     0.08   0.04   0.09
  19   1     0.29   0.17  -0.15     0.52   0.31  -0.26    -0.12  -0.07   0.06
  20   1     0.08   0.04   0.10    -0.10  -0.05  -0.11     0.02   0.01   0.02
  21   1    -0.08  -0.04   0.03     0.13   0.08  -0.06    -0.03  -0.02   0.01
  22   1    -0.00  -0.00   0.00    -0.05  -0.03   0.02     0.02   0.02  -0.01
  23   1     0.00  -0.00  -0.00    -0.04   0.06   0.05     0.03  -0.03  -0.03
  24   1    -0.00  -0.00  -0.00     0.05   0.02   0.05    -0.02  -0.01  -0.02
                     61                     62                     63
                        a                      a                      a 
 Frequencies --  2970.1862              2982.2546              2986.5226
 Red. masses --     1.5879                 1.8917                 1.9306
 Frc consts  --     0.0000                 0.0000                 0.0000
 IR Inten    --     7.4285                59.1452                50.2035
 Raman Activ --     0.0000                 0.0000                 0.0000
 Depolar     --     0.0000                 0.0000                 0.0000
 Atom AN      X      Y      Z        X      Y      Z        X      Y      Z
   1   7     0.02   0.01  -0.01     0.00   0.00  -0.00     0.00   0.00  -0.00
   2   6     0.08   0.14   0.01     0.00   0.00  -0.00    -0.00  -0.00   0.00
   3   6     0.10   0.07  -0.10     0.00   0.00  -0.01    -0.00  -0.00   0.00
   4   6     0.02   0.01  -0.03     0.00   0.00  -0.01    -0.00  -0.00  -0.00
   5   6     0.01   0.01  -0.02     0.00   0.00  -0.02    -0.01  -0.01  -0.00
   6   6     0.00   0.00  -0.01     0.00  -0.00  -0.03    -0.03  -0.02  -0.01
   7   6    -0.01   0.01   0.02     0.09  -0.15  -0.22    -0.26  -0.11  -0.04
   8  17    -0.00  -0.00   0.00     0.00  -0.00   0.00    -0.00   0.00  -0.00
   9   1    -0.01   0.01   0.02     0.00   0.00   0.00    -0.00   0.00   0.00
  10   1    -0.04  -0.03   0.02    -0.00  -0.00   0.00     0.00  -0.00   0.00
  11   1     0.00   0.00   0.00     0.00  -0.00   0.00     0.00   0.00  -0.00
  12   1    -0.46  -0.25   0.25    -0.01  -0.01   0.01     0.00   0.00  -0.00
  13   1     0.19  -0.26  -0.29    -0.00   0.00   0.00     0.00  -0.00  -0.00
  14   1     0.13   0.06   0.14     0.02   0.01   0.02     0.00   0.00   0.00
  15   1    -0.47  -0.27   0.23    -0.03  -0.02   0.02     0.00   0.00  -0.00
  16   1     0.04   0.02   0.04     0.02   0.01   0.02     0.00   0.00   0.01
  17   1    -0.10  -0.06   0.05    -0.02  -0.01   0.01     0.01   0.01  -0.00
  18   1     0.04   0.02   0.04     0.05   0.03   0.05     0.01   0.01   0.02
  19   1    -0.08  -0.05   0.04    -0.07  -0.04   0.03     0.02   0.01  -0.01
  20   1     0.01   0.00   0.01     0.06   0.03   0.07     0.03   0.02   0.04
  21   1    -0.02  -0.01   0.01    -0.06  -0.03   0.03     0.05   0.03  -0.03
  22   1     0.02   0.01  -0.01    -0.11  -0.10   0.03     0.49   0.31  -0.29
  23   1     0.02  -0.03  -0.03    -0.43   0.55   0.52     0.03  -0.12  -0.10
  24   1    -0.02  -0.01  -0.01     0.23   0.08   0.22     0.40   0.18   0.52
                     64                     65                     66
                        a                      a                      a 
 Frequencies --  3001.7391              3176.9504              3203.5385
 Red. masses --     1.3077                 1.8777                 1.6489
 Frc consts  --     0.0000                 0.0000                 0.0000
 IR Inten    --    34.0617                46.0418                33.0877
 Raman Activ --     0.0000                 0.0000                 0.0000
 Depolar     --     0.0000                 0.0000                 0.0000
 Atom AN      X      Y      Z        X      Y      Z        X      Y      Z
   1   7    -0.00  -0.00   0.00    -0.11   0.23  -0.06    -0.07   0.10   0.19
   2   6     0.00  -0.00  -0.00    -0.00   0.00  -0.00     0.00   0.01   0.01
   3   6     0.00   0.00  -0.00     0.00  -0.00  -0.00     0.00   0.00   0.00
   4   6     0.00   0.00  -0.00    -0.00  -0.00  -0.00    -0.00  -0.00  -0.00
   5   6     0.00   0.00  -0.01     0.00   0.00  -0.00    -0.00   0.00  -0.00
   6   6     0.00   0.01  -0.02    -0.00  -0.00   0.00    -0.00  -0.00  -0.00
   7   6    -0.00   0.10  -0.13    -0.00   0.00   0.00    -0.00   0.00   0.00
   8  17     0.00  -0.00   0.00    -0.00  -0.00   0.00     0.00   0.00  -0.00
   9   1    -0.00   0.00   0.00     0.07  -0.08  -0.15     0.39  -0.53  -0.68
  10   1     0.00   0.00  -0.00     0.01   0.03  -0.02    -0.05  -0.02   0.04
  11   1    -0.00   0.00  -0.00     0.34  -0.79   0.38    -0.08   0.18  -0.06
  12   1     0.00   0.00  -0.00     0.00   0.00  -0.00    -0.01  -0.00   0.00
  13   1    -0.00   0.00   0.00     0.00  -0.01  -0.00     0.01  -0.02  -0.02
  14   1     0.00   0.00   0.01     0.00   0.00   0.00    -0.00  -0.00  -0.00
  15   1    -0.01  -0.00   0.00    -0.00  -0.00   0.00    -0.00  -0.00   0.00
  16   1     0.01   0.00   0.01     0.00   0.00   0.00     0.01   0.00   0.01
  17   1    -0.01  -0.00   0.00     0.00   0.00  -0.00    -0.00  -0.00   0.00
  18   1     0.02   0.01   0.02     0.00   0.00   0.00     0.00  -0.00   0.00
  19   1    -0.03  -0.02   0.01    -0.00  -0.00   0.00    -0.00  -0.00  -0.00
  20   1     0.02   0.01   0.03     0.00   0.00  -0.00     0.00   0.00   0.00
  21   1    -0.03  -0.02   0.02     0.00   0.00  -0.00    -0.00  -0.00   0.00
  22   1    -0.55  -0.33   0.27     0.00  -0.00  -0.00     0.00  -0.00  -0.00
  23   1     0.18  -0.22  -0.24     0.00  -0.00  -0.00     0.00  -0.00  -0.00
  24   1     0.38   0.18   0.42    -0.00  -0.00  -0.00     0.00   0.00   0.00
