 Entering Gaussian System
 *********************************************
 Gaussian 98:
 frequency output generated by the xtb code
 *********************************************
                         Standard orientation:
 --------------------------------------------------------------------
  Center     Atomic     Atomic              Coordinates (Angstroms)
  Number     Number      Type              X           Y           Z
 --------------------------------------------------------------------
    1          7             0       -1.809669   -0.000020    0.195736
    2          6             0       -0.469482   -0.000088   -0.469658
    3          6             0        0.511484   -1.086003    0.032710
    4          6             0        1.608661    0.000072    0.135734
    5          6             0        0.511276    1.085987    0.032606
    6          1             0       -2.341175   -0.830568   -0.075760
    7          1             0       -2.340176    0.831902   -0.073573
    8          1             0       -1.708806   -0.001209    1.214126
    9          1             0       -0.564566   -0.000170   -1.569228
   10          1             0        0.721658   -1.883475   -0.691779
   11          1             0        0.215646   -1.509250    0.998752
   12          1             0        2.304348    0.000017   -0.713018
   13          1             0        2.161544    0.000471    1.084623
   14          1             0        0.721398    1.883465   -0.691896
   15          1             0        0.215501    1.509371    0.998647
 --------------------------------------------------------------------
     1 basis functions        1 primitive gaussians
     1 alpha electrons        1 beta electrons

 Harmonic frequencies (cm**-1), IR intensities (km*mol⁻¹),
 Raman scattering activities (A**4/amu), Raman depolarization ratios,
 reduced masses (AMU), force constants (mDyne/A) and normal coordinates:
                      1                      2                      3
                        a                      a                      a 
 Frequencies --  -141.4574               184.8087               324.7046
 Red. masses --     1.3670                 7.1745                 8.0099
 Frc consts  --     0.0000                 0.0000                 0.0000
 IR Inten    --     0.1566                 5.7206                13.8650
 Raman Activ --     0.0000                 0.0000                 0.0000
 Depolar     --     0.0000                 0.0000                 0.0000
 Atom AN      X      Y      Z        X      Y      Z        X      Y      Z
   1   7     0.00  -0.02   0.00     0.20   0.00   0.28    -0.00  -0.42   0.00
   2   6    -0.00   0.09  -0.00    -0.05  -0.00  -0.20     0.00   0.35   0.00
   3   6    -0.05   0.00  -0.09    -0.02  -0.03  -0.29    -0.31   0.19   0.11
   4   6    -0.00  -0.05   0.00    -0.13   0.00   0.44     0.00  -0.14  -0.00
   5   6     0.05   0.00   0.09    -0.02   0.03  -0.29     0.31   0.19  -0.11
   6   1     0.25  -0.30   0.42     0.02   0.00   0.14     0.17  -0.18  -0.13
   7   1    -0.25  -0.30  -0.42     0.02   0.00   0.14    -0.17  -0.18   0.13
   8   1     0.00   0.54   0.00     0.18  -0.00   0.06     0.00  -0.26  -0.00
   9   1    -0.00   0.05  -0.00    -0.10  -0.00  -0.05     0.00   0.11   0.00
  10   1    -0.02   0.02  -0.05     0.08   0.08  -0.16    -0.15  -0.01   0.08
  11   1    -0.02  -0.02  -0.04    -0.08  -0.14  -0.16    -0.13   0.14   0.06
  12   1     0.00  -0.01   0.00     0.13   0.00   0.27     0.00  -0.13  -0.00
  13   1    -0.00  -0.05   0.00    -0.22   0.00   0.24     0.00  -0.07  -0.00
  14   1     0.03   0.02   0.05     0.08  -0.08  -0.16     0.15  -0.01  -0.08
  15   1     0.02  -0.02   0.04    -0.08   0.14  -0.16     0.13   0.14  -0.06
                      4                      5                      6
                        a                      a                      a 
 Frequencies --   423.9671               651.2508               834.1604
 Red. masses --     7.6984                 9.0161                 3.9522
 Frc consts  --     0.0000                 0.0000                 0.0000
 IR Inten    --     9.8378                 7.2058                 6.2406
 Raman Activ --     0.0000                 0.0000                 0.0000
 Depolar     --     0.0000                 0.0000                 0.0000
 Atom AN      X      Y      Z        X      Y      Z        X      Y      Z
   1   7     0.47   0.00   0.02    -0.35   0.00   0.11    -0.26   0.00  -0.05
   2   6     0.08  -0.00  -0.41    -0.22  -0.00  -0.36    -0.04   0.00  -0.22
   3   6    -0.21   0.04   0.14     0.13   0.31  -0.02     0.15  -0.10   0.13
   4   6    -0.18   0.00  -0.05     0.39   0.00   0.09    -0.09   0.00   0.16
   5   6    -0.21  -0.04   0.14     0.13  -0.31  -0.02     0.15   0.10   0.13
   6   1     0.07  -0.00   0.12    -0.13   0.00   0.10    -0.14  -0.01   0.16
   7   1     0.07   0.00   0.12    -0.13  -0.00   0.10    -0.15   0.00   0.16
   8   1     0.35  -0.00  -0.02     0.03   0.00   0.02     0.25  -0.00  -0.04
   9   1     0.05  -0.00  -0.12    -0.14  -0.00  -0.09     0.04  -0.00  -0.06
  10   1    -0.04  -0.11   0.19     0.04  -0.03   0.13     0.24   0.10  -0.06
  11   1    -0.15   0.18   0.09    -0.03   0.25   0.05    -0.05  -0.22  -0.08
  12   1    -0.13  -0.00  -0.08     0.18   0.00   0.08    -0.36  -0.00  -0.24
  13   1     0.03   0.00  -0.06     0.03   0.00   0.08     0.35   0.00  -0.18
  14   1    -0.04   0.11   0.19     0.04   0.03   0.13     0.24  -0.10  -0.06
  15   1    -0.15  -0.18   0.09    -0.03  -0.25   0.05    -0.05   0.22  -0.08
                      7                      8                      9
                        a                      a                      a 
 Frequencies --   839.9513               884.8742               893.5164
 Red. masses --     3.2993                 4.6820                 4.4204
 Frc consts  --     0.0000                 0.0000                 0.0000
 IR Inten    --    23.9605                34.9168                25.7549
 Raman Activ --     0.0000                 0.0000                 0.0000
 Depolar     --     0.0000                 0.0000                 0.0000
 Atom AN      X      Y      Z        X      Y      Z        X      Y      Z
   1   7     0.00   0.19   0.00    -0.27   0.00  -0.10    -0.00  -0.32  -0.00
   2   6     0.00   0.14   0.00     0.12   0.00  -0.01     0.00  -0.13  -0.00
   3   6    -0.01  -0.09   0.25     0.08  -0.29   0.01    -0.21   0.19   0.08
   4   6     0.00   0.04  -0.00    -0.09  -0.00  -0.18    -0.00   0.03  -0.00
   5   6     0.01  -0.10  -0.25     0.08   0.29   0.01     0.21   0.20  -0.08
   6   1     0.28  -0.08  -0.14    -0.17  -0.01   0.21    -0.38   0.10   0.18
   7   1    -0.28  -0.08   0.14    -0.18   0.01   0.22     0.38   0.10  -0.17
   8   1    -0.00  -0.12  -0.00     0.37  -0.00  -0.07     0.00   0.14  -0.00
   9   1     0.00  -0.10   0.00     0.24   0.00  -0.02     0.00  -0.12  -0.00
  10   1     0.10   0.22  -0.18    -0.07  -0.15   0.06     0.00   0.21  -0.14
  11   1     0.01  -0.37  -0.08     0.17   0.02   0.09    -0.13  -0.18  -0.11
  12   1     0.00  -0.19   0.00     0.24   0.00   0.18     0.00  -0.20   0.00
  13   1    -0.00   0.23   0.00    -0.30  -0.00   0.12    -0.00   0.11   0.00
  14   1    -0.10   0.22   0.18    -0.07   0.15   0.05    -0.00   0.21   0.14
  15   1    -0.01  -0.38   0.08     0.17  -0.01   0.09     0.13  -0.18   0.11
                     10                     11                     12
                        a                      a                      a 
 Frequencies --   902.3933              1005.6238              1013.0966
 Red. masses --     7.1969                 8.1769                 6.7628
 Frc consts  --     0.0000                 0.0000                 0.0000
 IR Inten    --    11.3189                12.7309                 5.7562
 Raman Activ --     0.0000                 0.0000                 0.0000
 Depolar     --     0.0000                 0.0000                 0.0000
 Atom AN      X      Y      Z        X      Y      Z        X      Y      Z
   1   7    -0.19   0.00   0.33    -0.19   0.00   0.09     0.00   0.04   0.00
   2   6     0.32   0.00  -0.26     0.42  -0.00  -0.02    -0.00  -0.05  -0.00
   3   6     0.12  -0.26  -0.08    -0.27  -0.09  -0.05     0.21   0.33   0.05
   4   6    -0.20   0.00   0.01     0.49  -0.00   0.11    -0.00  -0.47  -0.00
   5   6     0.12   0.26  -0.08    -0.27   0.09  -0.05    -0.20   0.33  -0.05
   6   1     0.04   0.01  -0.12    -0.06   0.00   0.05     0.04  -0.01  -0.02
   7   1     0.04  -0.01  -0.12    -0.06  -0.00   0.05    -0.04  -0.01   0.02
   8   1    -0.42  -0.00   0.12     0.01   0.00   0.02    -0.00  -0.03  -0.00
   9   1    -0.09  -0.00  -0.06     0.18  -0.00  -0.01    -0.00  -0.29   0.00
  10   1     0.13  -0.20   0.15    -0.26  -0.01  -0.09    -0.00   0.14  -0.06
  11   1    -0.12   0.12   0.02    -0.21  -0.07  -0.07     0.26   0.00   0.03
  12   1    -0.08   0.00  -0.02     0.03  -0.00  -0.06    -0.00  -0.12  -0.00
  13   1    -0.03  -0.00  -0.01     0.22  -0.00  -0.02     0.00  -0.44   0.00
  14   1     0.13   0.20   0.15    -0.26   0.01  -0.09     0.00   0.14   0.06
  15   1    -0.12  -0.12   0.02    -0.21   0.07  -0.07    -0.26   0.00  -0.03
                     13                     14                     15
                        a                      a                      a 
 Frequencies --  1022.0646              1089.4576              1111.7617
 Red. masses --     4.5261                 9.5395                 5.6704
 Frc consts  --     0.0000                 0.0000                 0.0000
 IR Inten    --     1.4448                12.4262                13.7370
 Raman Activ --     0.0000                 0.0000                 0.0000
 Depolar     --     0.0000                 0.0000                 0.0000
 Atom AN      X      Y      Z        X      Y      Z        X      Y      Z
   1   7     0.00  -0.06  -0.00    -0.18   0.00   0.12    -0.00  -0.19   0.00
   2   6    -0.00   0.25  -0.00     0.51  -0.00   0.01     0.00   0.47  -0.00
   3   6     0.28   0.01   0.05     0.01   0.40  -0.02     0.11  -0.17   0.20
   4   6    -0.00  -0.30  -0.00    -0.38  -0.00  -0.07    -0.00  -0.06  -0.00
   5   6    -0.28   0.01  -0.05     0.01  -0.40  -0.02    -0.11  -0.17  -0.20
   6   1    -0.08   0.03   0.03    -0.04   0.00   0.04    -0.19   0.05   0.08
   7   1     0.08   0.03  -0.03    -0.04  -0.00   0.04     0.19   0.05  -0.08
   8   1    -0.00   0.05   0.00    -0.03  -0.00   0.03    -0.00   0.09   0.00
   9   1    -0.00   0.43  -0.00     0.34   0.00  -0.01     0.00   0.28  -0.00
  10   1     0.34  -0.02   0.12     0.02   0.17  -0.07    -0.23   0.01  -0.09
  11   1    -0.20   0.04  -0.05     0.07   0.05  -0.02     0.32  -0.10   0.11
  12   1     0.00  -0.36   0.00    -0.09  -0.00  -0.00    -0.00   0.19  -0.00
  13   1    -0.00   0.08  -0.00    -0.14  -0.00  -0.01    -0.00   0.02   0.00
  14   1    -0.34  -0.02  -0.12     0.01  -0.17  -0.07     0.23   0.01   0.09
  15   1     0.20   0.04   0.05     0.07  -0.05  -0.02    -0.32  -0.10  -0.11
                     16                     17                     18
                        a                      a                      a 
 Frequencies --  1149.0397              1188.0178              1204.9033
 Red. masses --     7.2442                 2.2948                 3.5195
 Frc consts  --     0.0000                 0.0000                 0.0000
 IR Inten    --     8.9255                 0.0124                 0.9416
 Raman Activ --     0.0000                 0.0000                 0.0000
 Depolar     --     0.0000                 0.0000                 0.0000
 Atom AN      X      Y      Z        X      Y      Z        X      Y      Z
   1   7     0.02  -0.00   0.16     0.00  -0.02  -0.00    -0.02  -0.00  -0.10
   2   6    -0.04  -0.00  -0.39    -0.00   0.02  -0.00     0.05   0.00   0.36
   3   6    -0.10  -0.02   0.33    -0.10  -0.05   0.20    -0.01   0.04  -0.02
   4   6     0.13   0.00  -0.36     0.00   0.12  -0.00     0.05  -0.00  -0.28
   5   6    -0.10   0.02   0.33     0.10  -0.05  -0.20    -0.01  -0.04  -0.02
   6   1     0.05   0.01  -0.08    -0.02   0.00   0.00    -0.04  -0.01   0.05
   7   1     0.05  -0.01  -0.08     0.02   0.00  -0.00    -0.03   0.01   0.05
   8   1    -0.17  -0.00   0.06    -0.00   0.02   0.00     0.13   0.00  -0.04
   9   1     0.05  -0.00  -0.11    -0.00   0.13  -0.00    -0.01   0.00   0.10
  10   1     0.10   0.17  -0.08     0.26   0.07   0.05     0.33  -0.00   0.11
  11   1     0.01  -0.27  -0.02    -0.15  -0.12  -0.03    -0.45   0.02  -0.13
  12   1     0.28   0.00   0.10    -0.00   0.50  -0.00     0.15   0.00   0.04
  13   1    -0.21   0.00   0.05     0.00  -0.63   0.00    -0.15  -0.00   0.02
  14   1     0.10  -0.17  -0.08    -0.26   0.07  -0.05     0.33   0.00   0.11
  15   1     0.01   0.27  -0.02     0.15  -0.12   0.03    -0.45  -0.02  -0.13
                     19                     20                     21
                        a                      a                      a 
 Frequencies --  1239.9038              1252.6304              1254.0133
 Red. masses --     4.7650                 4.3241                 3.9475
 Frc consts  --     0.0000                 0.0000                 0.0000
 IR Inten    --     0.6517                 8.8087                 0.5529
 Raman Activ --     0.0000                 0.0000                 0.0000
 Depolar     --     0.0000                 0.0000                 0.0000
 Atom AN      X      Y      Z        X      Y      Z        X      Y      Z
   1   7    -0.00   0.09  -0.00     0.03  -0.00  -0.10    -0.00  -0.01   0.00
   2   6     0.00  -0.53  -0.00     0.13   0.00  -0.05    -0.00   0.06   0.00
   3   6    -0.00   0.11   0.08     0.30   0.04   0.16     0.34  -0.01   0.10
   4   6    -0.00   0.10  -0.00    -0.17   0.00  -0.09     0.00   0.08   0.00
   5   6     0.00   0.11  -0.08     0.29  -0.04   0.16    -0.35  -0.01  -0.10
   6   1     0.07  -0.02  -0.01    -0.08   0.02   0.06     0.01   0.00  -0.03
   7   1    -0.07  -0.02   0.01    -0.08  -0.02   0.06    -0.00   0.00   0.03
   8   1     0.00  -0.06  -0.00    -0.00   0.00  -0.02     0.00   0.03   0.00
   9   1    -0.00   0.70  -0.00    -0.47  -0.00   0.03     0.01  -0.15  -0.00
  10   1    -0.19   0.07  -0.08    -0.38   0.03  -0.12    -0.38  -0.03  -0.08
  11   1     0.06  -0.03   0.02    -0.25  -0.03  -0.07    -0.41  -0.02  -0.12
  12   1    -0.00  -0.16   0.00    -0.02  -0.00   0.00     0.00   0.03  -0.00
  13   1     0.00  -0.13   0.00    -0.13  -0.00   0.03     0.00  -0.17  -0.00
  14   1     0.19   0.07   0.08    -0.37  -0.03  -0.12     0.39  -0.03   0.09
  15   1    -0.06  -0.03  -0.02    -0.23   0.03  -0.07     0.41  -0.02   0.13
                     22                     23                     24
                        a                      a                      a 
 Frequencies --  1274.5279              1298.4356              1347.7398
 Red. masses --     4.6134                 4.3544                 2.9638
 Frc consts  --     0.0000                 0.0000                 0.0000
 IR Inten    --     1.7004                28.6073               213.4034
 Raman Activ --     0.0000                 0.0000                 0.0000
 Depolar     --     0.0000                 0.0000                 0.0000
 Atom AN      X      Y      Z        X      Y      Z        X      Y      Z
   1   7    -0.00  -0.03   0.00    -0.02   0.00  -0.15    -0.36  -0.00   0.13
   2   6    -0.00   0.17   0.00     0.41   0.00   0.02     0.06   0.00  -0.00
   3   6    -0.01  -0.13  -0.05    -0.23   0.01   0.00     0.02   0.01   0.02
   4   6     0.00   0.51  -0.00     0.06   0.00  -0.00    -0.01  -0.00  -0.01
   5   6     0.01  -0.13   0.05    -0.23  -0.01   0.00     0.02  -0.01   0.02
   6   1    -0.03   0.01   0.01    -0.06  -0.01   0.11     0.42  -0.20  -0.26
   7   1     0.03   0.01  -0.01    -0.06   0.01   0.11     0.42   0.20  -0.26
   8   1     0.00   0.02   0.00     0.02   0.00  -0.04     0.51   0.00  -0.05
   9   1     0.00  -0.11  -0.00    -0.68  -0.00   0.07    -0.15  -0.00   0.01
  10   1     0.02  -0.07   0.04     0.19   0.06   0.02    -0.04  -0.01   0.00
  11   1     0.11  -0.02   0.03     0.23  -0.00   0.08    -0.00  -0.02  -0.00
  12   1     0.00  -0.63   0.00     0.02  -0.00   0.01    -0.01   0.00  -0.00
  13   1     0.00  -0.47   0.00     0.00  -0.00   0.01    -0.01   0.00   0.00
  14   1    -0.02  -0.07  -0.04     0.19  -0.06   0.02    -0.04   0.01   0.00
  15   1    -0.11  -0.02  -0.03     0.23   0.00   0.08    -0.00   0.02  -0.00
                     25                     26                     27
                        a                      a                      a 
 Frequencies --  1418.0005              1418.5242              1456.8515
 Red. masses --     1.6709                 1.6538                 1.9808
 Frc consts  --     0.0000                 0.0000                 0.0000
 IR Inten    --    81.1682                74.8793                 2.5242
 Raman Activ --     0.0000                 0.0000                 0.0000
 Depolar     --     0.0000                 0.0000                 0.0000
 Atom AN      X      Y      Z        X      Y      Z        X      Y      Z
   1   7    -0.01   0.21  -0.03     0.07   0.03   0.20     0.00  -0.02  -0.00
   2   6    -0.01   0.06  -0.00     0.04   0.01   0.03     0.00   0.01  -0.00
   3   6     0.02   0.01   0.00    -0.01   0.02  -0.01     0.00   0.21  -0.05
   4   6     0.00  -0.00  -0.00    -0.00  -0.00   0.00     0.00  -0.01   0.00
   5   6    -0.02   0.01  -0.00    -0.02  -0.01  -0.01    -0.00   0.20   0.05
   6   1    -0.00  -0.14   0.50    -0.32   0.34  -0.35     0.01   0.01  -0.04
   7   1     0.10  -0.03  -0.37    -0.31  -0.37  -0.49    -0.01   0.01   0.04
   8   1    -0.05  -0.71   0.00     0.34  -0.11  -0.01    -0.00   0.07   0.00
   9   1     0.01  -0.02  -0.00    -0.07  -0.00   0.02    -0.00   0.04  -0.00
  10   1    -0.02  -0.03   0.03     0.00  -0.03   0.03    -0.09  -0.33   0.35
  11   1    -0.02  -0.04  -0.02     0.02  -0.03  -0.01     0.08  -0.43  -0.18
  12   1     0.00   0.01   0.00    -0.01   0.00  -0.00    -0.00   0.03  -0.00
  13   1     0.00  -0.00  -0.00    -0.00  -0.00   0.00    -0.00   0.03   0.00
  14   1     0.01  -0.04  -0.04     0.01   0.02   0.02     0.08  -0.32  -0.34
  15   1     0.01  -0.05   0.02     0.02   0.02  -0.00    -0.08  -0.42   0.17
                     28                     29                     30
                        a                      a                      a 
 Frequencies --  1459.4163              1481.2746              2878.0760
 Red. masses --     1.9794                 2.1176                 1.7992
 Frc consts  --     0.0000                 0.0000                 0.0000
 IR Inten    --     6.5256                 3.8586                 1.1540
 Raman Activ --     0.0000                 0.0000                 0.0000
 Depolar     --     0.0000                 0.0000                 0.0000
 Atom AN      X      Y      Z        X      Y      Z        X      Y      Z
   1   7    -0.01  -0.00   0.02    -0.00   0.00  -0.02    -0.00  -0.00   0.00
   2   6    -0.01   0.00  -0.00     0.03   0.00   0.00     0.02   0.00   0.26
   3   6     0.00  -0.17   0.04     0.00   0.12  -0.03     0.01  -0.01  -0.02
   4   6    -0.15  -0.00  -0.01    -0.26  -0.00  -0.02    -0.00   0.00   0.01
   5   6     0.00   0.18   0.04     0.00  -0.12  -0.03     0.01   0.01  -0.02
   6   1    -0.00   0.01  -0.03     0.00  -0.01   0.02    -0.00   0.00   0.00
   7   1    -0.01  -0.01  -0.03     0.00   0.01   0.02    -0.00  -0.00   0.00
   8   1     0.04   0.00  -0.00    -0.02  -0.00   0.00    -0.00  -0.00   0.02
   9   1     0.02   0.00   0.00    -0.03  -0.00   0.00    -0.08  -0.00  -0.95
  10   1     0.06   0.27  -0.29    -0.06  -0.17   0.18    -0.01   0.05   0.04
  11   1    -0.08   0.35   0.14     0.03  -0.22  -0.10    -0.02  -0.02   0.05
  12   1     0.27   0.00   0.23     0.42   0.00   0.37     0.01  -0.00  -0.01
  13   1     0.31   0.00  -0.19     0.49  -0.00  -0.30    -0.00  -0.00  -0.01
  14   1     0.06  -0.28  -0.30    -0.06   0.17   0.18    -0.01  -0.05   0.04
  15   1    -0.08  -0.36   0.15     0.03   0.22  -0.10    -0.02   0.02   0.05
                     31                     32                     33
                        a                      a                      a 
 Frequencies --  2928.8680              2933.5095              2938.4869
 Red. masses --     1.9664                 1.5738                 1.5457
 Frc consts  --     0.0000                 0.0000                 0.0000
 IR Inten    --     3.2779                 5.1767                 0.3843
 Raman Activ --     0.0000                 0.0000                 0.0000
 Depolar     --     0.0000                 0.0000                 0.0000
 Atom AN      X      Y      Z        X      Y      Z        X      Y      Z
   1   7     0.00  -0.00  -0.00    -0.00   0.00  -0.00     0.00   0.00  -0.00
   2   6     0.00   0.00   0.02    -0.00   0.00  -0.02     0.00  -0.00   0.00
   3   6    -0.03   0.03   0.09     0.02  -0.06  -0.06    -0.00   0.13   0.00
   4   6    -0.06  -0.00  -0.25    -0.19  -0.00   0.03    -0.08  -0.00   0.08
   5   6    -0.03  -0.03   0.09     0.02   0.06  -0.06    -0.00  -0.14   0.01
   6   1     0.00  -0.00  -0.00     0.00  -0.00  -0.00    -0.00  -0.00  -0.00
   7   1     0.00   0.00  -0.00     0.00   0.00  -0.00    -0.00   0.00  -0.00
   8   1     0.00   0.00   0.00    -0.00  -0.00  -0.00    -0.00  -0.00   0.00
   9   1    -0.01   0.00  -0.07     0.00  -0.00   0.05    -0.00  -0.00  -0.02
  10   1     0.05  -0.18  -0.16    -0.06   0.23   0.21     0.10  -0.34  -0.33
  11   1     0.05   0.08  -0.17    -0.00  -0.01   0.00    -0.09  -0.12   0.32
  12   1    -0.21   0.00   0.22     0.43  -0.00  -0.56     0.26  -0.00  -0.33
  13   1     0.40   0.00   0.68     0.22   0.00   0.44     0.01  -0.00   0.05
  14   1     0.05   0.18  -0.16    -0.06  -0.23   0.21     0.11   0.36  -0.35
  15   1     0.05  -0.08  -0.17    -0.00   0.01   0.00    -0.10   0.12   0.34
                     34                     35                     36
                        a                      a                      a 
 Frequencies --  2939.0630              2947.9125              2955.9345
 Red. masses --     1.6556                 1.8788                 2.0087
 Frc consts  --     0.0000                 0.0000                 0.0000
 IR Inten    --    14.1898                 4.4042                27.2088
 Raman Activ --     0.0000                 0.0000                 0.0000
 Depolar     --     0.0000                 0.0000                 0.0000
 Atom AN      X      Y      Z        X      Y      Z        X      Y      Z
   1   7     0.00  -0.00  -0.00    -0.00   0.00   0.00    -0.00  -0.00   0.00
   2   6     0.00   0.00   0.00    -0.00  -0.00  -0.00     0.00   0.00  -0.03
   3   6    -0.03   0.15   0.09    -0.05  -0.04   0.18     0.05   0.01  -0.18
   4   6    -0.00   0.00   0.00     0.00  -0.00  -0.00     0.04  -0.00  -0.15
   5   6     0.03   0.14  -0.09     0.05  -0.04  -0.19     0.05  -0.01  -0.17
   6   1    -0.00   0.00  -0.00     0.00  -0.00  -0.00    -0.00  -0.00  -0.00
   7   1     0.00   0.00   0.00    -0.00  -0.00   0.00    -0.00   0.00  -0.00
   8   1    -0.00   0.00   0.00    -0.00  -0.00  -0.00    -0.00   0.00   0.00
   9   1    -0.00  -0.00  -0.00     0.00  -0.00   0.00     0.01   0.00   0.09
  10   1     0.14  -0.48  -0.46     0.02  -0.10  -0.07    -0.04   0.17   0.13
  11   1    -0.04  -0.04   0.15     0.17   0.25  -0.59    -0.14  -0.22   0.49
  12   1     0.01  -0.00  -0.01    -0.01  -0.00   0.01    -0.26   0.00   0.30
  13   1    -0.00   0.00   0.00     0.00   0.00   0.00     0.13   0.00   0.21
  14   1    -0.13  -0.47   0.44    -0.02  -0.11   0.08    -0.04  -0.17   0.13
  15   1     0.04  -0.03  -0.13    -0.17   0.26   0.59    -0.14   0.21   0.47
                     37                     38                     39
                        a                      a                      a 
 Frequencies --  3296.1829              3307.4489              3312.8847
 Red. masses --     1.9701                 2.0580                 1.3290
 Frc consts  --     0.0000                 0.0000                 0.0000
 IR Inten    --    66.7503                78.1220                35.4879
 Raman Activ --     0.0000                 0.0000                 0.0000
 Depolar     --     0.0000                 0.0000                 0.0000
 Atom AN      X      Y      Z        X      Y      Z        X      Y      Z
   1   7     0.08  -0.00   0.26    -0.00   0.28   0.00     0.15   0.01   0.03
   2   6    -0.00  -0.00   0.01    -0.00   0.00   0.00     0.01   0.00  -0.00
   3   6     0.00   0.00  -0.00     0.00  -0.00   0.00    -0.00  -0.00   0.00
   4   6    -0.00   0.00  -0.00    -0.00  -0.00   0.00     0.00  -0.00  -0.00
   5   6     0.00  -0.00  -0.00    -0.00  -0.00  -0.00    -0.00   0.00   0.00
   6   1    -0.09  -0.16  -0.03    -0.35  -0.54  -0.19    -0.33  -0.56  -0.19
   7   1    -0.09   0.17  -0.03     0.36  -0.56   0.20    -0.32   0.54  -0.18
   8   1    -0.10   0.00  -0.92    -0.00   0.03  -0.01     0.05   0.00   0.29
   9   1    -0.00   0.00  -0.01     0.00  -0.00  -0.00    -0.00  -0.00   0.00
  10   1     0.00  -0.00  -0.00    -0.00  -0.00  -0.00    -0.00   0.00   0.00
  11   1    -0.00  -0.00   0.00     0.00  -0.00   0.00     0.00   0.00  -0.00
  12   1     0.00   0.00  -0.00     0.00  -0.00  -0.00    -0.00  -0.00   0.00
  13   1     0.00  -0.00   0.00     0.00  -0.00   0.00    -0.00  -0.00  -0.00
  14   1     0.00   0.00  -0.00     0.00  -0.00   0.00    -0.00  -0.00   0.00
  15   1    -0.00   0.00   0.00    -0.00  -0.00  -0.00     0.00  -0.00  -0.00
