 Entering Gaussian System
 *********************************************
 Gaussian 98:
 frequency output generated by the xtb code
 *********************************************
                         Standard orientation:
 --------------------------------------------------------------------
  Center     Atomic     Atomic              Coordinates (Angstroms)
  Number     Number      Type              X           Y           Z
 --------------------------------------------------------------------
    1          7             0       -1.809669   -0.000020    0.195736
    2          6             0       -0.469482   -0.000088   -0.469658
    3          6             0        0.511484   -1.086003    0.032710
    4          6             0        1.608661    0.000072    0.135734
    5          6             0        0.511276    1.085987    0.032606
    6          1             0       -2.341175   -0.830568   -0.075760
    7          1             0       -2.340176    0.831902   -0.073573
    8          1             0       -1.708806   -0.001209    1.214126
    9          1             0       -0.564566   -0.000170   -1.569228
   10          1             0        0.721658   -1.883475   -0.691779
   11          1             0        0.215646   -1.509250    0.998752
   12          1             0        2.304348    0.000017   -0.713018
   13          1             0        2.161544    0.000471    1.084623
   14          1             0        0.721398    1.883465   -0.691896
   15          1             0        0.215501    1.509371    0.998647
 --------------------------------------------------------------------
     1 basis functions        1 primitive gaussians
     1 alpha electrons        1 beta electrons

 Harmonic frequencies (cm**-1), IR intensities (km*mol⁻¹),
 Raman scattering activities (A**4/amu), Raman depolarization ratios,
 reduced masses (AMU), force constants (mDyne/A) and normal coordinates:
                      1                      2                      3
                        a                      a                      a 
 Frequencies --   111.9853               199.1320               342.3091
 Red. masses --     1.4026                 7.0911                 8.0100
 Frc consts  --     0.0000                 0.0000                 0.0000
 IR Inten    --     0.3335                 7.4568                21.2751
 Raman Activ --     0.0000                 0.0000                 0.0000
 Depolar     --     0.0000                 0.0000                 0.0000
 Atom AN      X      Y      Z        X      Y      Z        X      Y      Z
   1   7    -0.00   0.03  -0.00     0.18   0.00   0.28     0.00   0.42  -0.00
   2   6     0.00  -0.09  -0.00    -0.05  -0.00  -0.19    -0.00  -0.35   0.00
   3   6     0.05  -0.01   0.09    -0.02  -0.03  -0.30     0.31  -0.19  -0.11
   4   6     0.00   0.06  -0.00    -0.12   0.00   0.44    -0.00   0.14   0.00
   5   6    -0.05  -0.01  -0.09    -0.02   0.03  -0.30    -0.31  -0.19   0.11
   6   1    -0.25   0.31  -0.42     0.02   0.00   0.13    -0.17   0.17   0.14
   7   1     0.25   0.30   0.42     0.02  -0.00   0.13     0.17   0.17  -0.14
   8   1    -0.00  -0.54  -0.00     0.17  -0.00   0.06    -0.00   0.27   0.00
   9   1     0.00  -0.05  -0.00    -0.10  -0.00  -0.05    -0.00  -0.12   0.00
  10   1     0.03  -0.02   0.05     0.08   0.08  -0.16     0.15   0.01  -0.08
  11   1     0.02   0.02   0.04    -0.07  -0.14  -0.16     0.13  -0.14  -0.06
  12   1    -0.00   0.01  -0.00     0.14   0.00   0.27    -0.00   0.12  -0.00
  13   1     0.00   0.05  -0.00    -0.23  -0.00   0.24    -0.00   0.06  -0.00
  14   1    -0.03  -0.02  -0.05     0.08  -0.08  -0.16    -0.15   0.01   0.08
  15   1    -0.02   0.02  -0.04    -0.07   0.14  -0.16    -0.13  -0.14   0.06
                      4                      5                      6
                        a                      a                      a 
 Frequencies --   434.5764               655.9332               835.8730
 Red. masses --     7.8057                 8.9614                 3.9981
 Frc consts  --     0.0000                 0.0000                 0.0000
 IR Inten    --    15.4741                11.1872                 2.8296
 Raman Activ --     0.0000                 0.0000                 0.0000
 Depolar     --     0.0000                 0.0000                 0.0000
 Atom AN      X      Y      Z        X      Y      Z        X      Y      Z
   1   7    -0.47  -0.00  -0.03     0.35  -0.00  -0.11    -0.27   0.00  -0.03
   2   6    -0.09  -0.00   0.42     0.22   0.00   0.35    -0.03   0.00  -0.23
   3   6     0.21  -0.04  -0.14    -0.12  -0.32   0.02     0.16  -0.10   0.12
   4   6     0.19   0.00   0.03    -0.39  -0.00  -0.08    -0.09   0.00   0.17
   5   6     0.21   0.04  -0.14    -0.12   0.32   0.02     0.16   0.09   0.12
   6   1    -0.07   0.00  -0.13     0.13  -0.00  -0.10    -0.14  -0.01   0.15
   7   1    -0.07  -0.00  -0.13     0.13   0.00  -0.10    -0.14   0.01   0.15
   8   1    -0.35  -0.00   0.01    -0.03  -0.00  -0.02     0.21  -0.00  -0.04
   9   1    -0.05   0.00   0.12     0.13   0.00   0.09     0.02  -0.00  -0.07
  10   1     0.04   0.11  -0.18    -0.04   0.03  -0.13     0.24   0.10  -0.05
  11   1     0.16  -0.18  -0.08     0.03  -0.25  -0.05    -0.06  -0.21  -0.08
  12   1     0.13   0.00   0.07    -0.19  -0.00  -0.09    -0.37  -0.00  -0.24
  13   1    -0.03   0.00   0.06    -0.03  -0.00  -0.08     0.36   0.00  -0.18
  14   1     0.04  -0.11  -0.18    -0.04  -0.03  -0.13     0.24  -0.10  -0.05
  15   1     0.16   0.18  -0.08     0.03   0.25  -0.05    -0.06   0.21  -0.08
                      7                      8                      9
                        a                      a                      a 
 Frequencies --   845.2871               892.5085               897.6554
 Red. masses --     3.3094                 4.7273                 4.4099
 Frc consts  --     0.0000                 0.0000                 0.0000
 IR Inten    --    28.7776                39.1991                25.2042
 Raman Activ --     0.0000                 0.0000                 0.0000
 Depolar     --     0.0000                 0.0000                 0.0000
 Atom AN      X      Y      Z        X      Y      Z        X      Y      Z
   1   7     0.00   0.19   0.00    -0.27   0.00  -0.12    -0.00  -0.32  -0.00
   2   6     0.00   0.14   0.00     0.09   0.00  -0.01     0.00  -0.13  -0.00
   3   6    -0.01  -0.10   0.25     0.09  -0.29   0.03    -0.20   0.19   0.08
   4   6     0.00   0.04  -0.00    -0.10  -0.00  -0.18    -0.00   0.03  -0.00
   5   6     0.01  -0.10  -0.25     0.09   0.29   0.03     0.20   0.20  -0.07
   6   1     0.28  -0.08  -0.13    -0.17  -0.02   0.23    -0.39   0.11   0.18
   7   1    -0.28  -0.08   0.13    -0.18   0.01   0.23     0.38   0.11  -0.17
   8   1     0.00  -0.12  -0.00     0.39  -0.00  -0.08     0.00   0.15  -0.00
   9   1     0.00  -0.10   0.00     0.22   0.00  -0.02     0.00  -0.11  -0.00
  10   1     0.09   0.22  -0.18    -0.07  -0.14   0.05     0.00   0.20  -0.14
  11   1     0.02  -0.38  -0.08     0.17   0.00   0.09    -0.13  -0.18  -0.11
  12   1     0.00  -0.19   0.00     0.23   0.00   0.16     0.00  -0.20   0.00
  13   1    -0.00   0.24   0.00    -0.29  -0.00   0.11    -0.00   0.11   0.00
  14   1    -0.09   0.22   0.18    -0.07   0.14   0.05    -0.00   0.21   0.14
  15   1    -0.02  -0.38   0.08     0.17  -0.00   0.09     0.13  -0.18   0.11
                     10                     11                     12
                        a                      a                      a 
 Frequencies --   914.9413              1012.7627              1014.6772
 Red. masses --     6.9093                 8.2427                 6.8713
 Frc consts  --     0.0000                 0.0000                 0.0000
 IR Inten    --    10.1803                10.3735                 2.8817
 Raman Activ --     0.0000                 0.0000                 0.0000
 Depolar     --     0.0000                 0.0000                 0.0000
 Atom AN      X      Y      Z        X      Y      Z        X      Y      Z
   1   7    -0.18   0.00   0.32     0.18  -0.00  -0.10     0.00   0.04  -0.00
   2   6     0.27   0.00  -0.24    -0.40   0.00   0.03    -0.00  -0.05   0.00
   3   6     0.14  -0.27  -0.08     0.25   0.15   0.05     0.21   0.33   0.05
   4   6    -0.22   0.00  -0.00    -0.50   0.00  -0.10    -0.00  -0.47  -0.00
   5   6     0.14   0.27  -0.08     0.25  -0.16   0.05    -0.21   0.33  -0.05
   6   1     0.04   0.01  -0.13     0.06  -0.00  -0.05     0.04  -0.01  -0.02
   7   1     0.04  -0.01  -0.13     0.06   0.00  -0.05    -0.04  -0.01   0.01
   8   1    -0.42  -0.00   0.12     0.01   0.00  -0.02    -0.00  -0.03  -0.00
   9   1    -0.10  -0.00  -0.05    -0.15   0.00   0.01    -0.00  -0.28   0.00
  10   1     0.14  -0.21   0.16     0.25   0.04   0.08     0.01   0.14  -0.06
  11   1    -0.11   0.13   0.03     0.23   0.06   0.07     0.25   0.00   0.03
  12   1    -0.06   0.00   0.00    -0.04   0.00   0.05    -0.00  -0.13   0.00
  13   1    -0.06  -0.00  -0.00    -0.21   0.00   0.02    -0.00  -0.44   0.00
  14   1     0.14   0.21   0.16     0.26  -0.04   0.08    -0.01   0.14   0.06
  15   1    -0.11  -0.13   0.03     0.23  -0.06   0.07    -0.25   0.00  -0.03
                     13                     14                     15
                        a                      a                      a 
 Frequencies --  1028.4489              1099.8176              1115.1789
 Red. masses --     4.2868                 9.6226                 5.9747
 Frc consts  --     0.0000                 0.0000                 0.0000
 IR Inten    --     4.3342                23.0096                17.0514
 Raman Activ --     0.0000                 0.0000                 0.0000
 Depolar     --     0.0000                 0.0000                 0.0000
 Atom AN      X      Y      Z        X      Y      Z        X      Y      Z
   1   7     0.00  -0.06  -0.00    -0.21   0.00   0.13     0.00   0.19  -0.00
   2   6    -0.00   0.25  -0.00     0.56  -0.00   0.02    -0.00  -0.49   0.00
   3   6     0.28   0.00   0.05     0.00   0.37  -0.03    -0.11   0.17  -0.19
   4   6    -0.00  -0.28  -0.00    -0.35   0.00  -0.07     0.00   0.07   0.00
   5   6    -0.28   0.00  -0.05     0.00  -0.37  -0.03     0.11   0.17   0.19
   6   1    -0.08   0.02   0.03    -0.05  -0.00   0.05     0.20  -0.05  -0.08
   7   1     0.08   0.02  -0.03    -0.05   0.00   0.05    -0.20  -0.05   0.08
   8   1    -0.00   0.06   0.00    -0.03  -0.00   0.03     0.00  -0.09  -0.00
   9   1    -0.00   0.43  -0.00     0.36  -0.00  -0.01    -0.00  -0.26   0.00
  10   1     0.35  -0.02   0.12    -0.01   0.15  -0.07     0.22  -0.00   0.08
  11   1    -0.20   0.04  -0.05     0.03   0.05  -0.03    -0.31   0.10  -0.11
  12   1     0.00  -0.37   0.00    -0.09  -0.00  -0.01     0.00  -0.20   0.00
  13   1    -0.00   0.10  -0.00    -0.13  -0.00  -0.00     0.00  -0.01  -0.00
  14   1    -0.35  -0.02  -0.12    -0.01  -0.15  -0.07    -0.22  -0.00  -0.08
  15   1     0.20   0.04   0.05     0.03  -0.05  -0.03     0.31   0.10   0.11
                     16                     17                     18
                        a                      a                      a 
 Frequencies --  1155.0359              1194.4266              1210.7695
 Red. masses --     7.2637                 2.3006                 3.5006
 Frc consts  --     0.0000                 0.0000                 0.0000
 IR Inten    --    11.2776                 0.0026                 2.5644
 Raman Activ --     0.0000                 0.0000                 0.0000
 Depolar     --     0.0000                 0.0000                 0.0000
 Atom AN      X      Y      Z        X      Y      Z        X      Y      Z
   1   7     0.01  -0.00   0.18     0.00  -0.02  -0.00     0.01   0.00   0.10
   2   6    -0.02  -0.00  -0.41    -0.00   0.03  -0.00    -0.04  -0.00  -0.35
   3   6    -0.09  -0.01   0.32    -0.10  -0.05   0.19     0.02  -0.04   0.01
   4   6     0.12   0.00  -0.35     0.00   0.13   0.00    -0.06  -0.00   0.28
   5   6    -0.09   0.01   0.32     0.10  -0.05  -0.19     0.02   0.04   0.01
   6   1     0.05   0.02  -0.09    -0.02   0.00   0.00     0.04   0.01  -0.06
   7   1     0.04  -0.02  -0.09     0.02   0.00  -0.00     0.04  -0.01  -0.06
   8   1    -0.17  -0.00   0.06    -0.00   0.02   0.00    -0.13  -0.00   0.04
   9   1     0.06  -0.00  -0.12    -0.00   0.12  -0.00     0.02  -0.00  -0.10
  10   1     0.10   0.17  -0.08     0.27   0.06   0.05    -0.34  -0.00  -0.11
  11   1     0.02  -0.27  -0.02    -0.15  -0.13  -0.03     0.45  -0.01   0.13
  12   1     0.26   0.00   0.10    -0.00   0.48  -0.00    -0.16  -0.00  -0.04
  13   1    -0.21  -0.00   0.05     0.00  -0.64   0.00     0.15   0.00  -0.03
  14   1     0.10  -0.17  -0.08    -0.27   0.06  -0.05    -0.34   0.00  -0.11
  15   1     0.02   0.27  -0.02     0.15  -0.13   0.03     0.45   0.01   0.13
                     19                     20                     21
                        a                      a                      a 
 Frequencies --  1246.7256              1257.3353              1259.4903
 Red. masses --     4.5015                 4.3285                 3.8869
 Frc consts  --     0.0000                 0.0000                 0.0000
 IR Inten    --     2.5546                 8.1537                 0.7226
 Raman Activ --     0.0000                 0.0000                 0.0000
 Depolar     --     0.0000                 0.0000                 0.0000
 Atom AN      X      Y      Z        X      Y      Z        X      Y      Z
   1   7     0.00  -0.09   0.00     0.04  -0.00  -0.10     0.00   0.02  -0.00
   2   6    -0.00   0.50   0.00     0.10   0.00  -0.05     0.00  -0.09  -0.00
   3   6    -0.04  -0.09  -0.10     0.31   0.03   0.16    -0.34   0.01  -0.09
   4   6    -0.00  -0.10  -0.00    -0.16   0.00  -0.09    -0.00  -0.01  -0.00
   5   6     0.04  -0.09   0.10     0.30  -0.03   0.16     0.35   0.01   0.09
   6   1    -0.07   0.02   0.00    -0.08   0.03   0.06    -0.01  -0.01   0.04
   7   1     0.07   0.02  -0.00    -0.08  -0.03   0.06     0.01  -0.01  -0.04
   8   1    -0.00   0.06   0.00    -0.02   0.00  -0.02    -0.00  -0.05  -0.00
   9   1     0.00  -0.70   0.00    -0.46  -0.00   0.03    -0.00   0.22   0.00
  10   1     0.23  -0.07   0.09    -0.37   0.04  -0.12     0.35   0.02   0.08
  11   1    -0.02   0.03  -0.01    -0.26  -0.03  -0.07     0.43   0.01   0.13
  12   1     0.00   0.13  -0.00    -0.02   0.00   0.00    -0.00  -0.11   0.00
  13   1    -0.00   0.14  -0.00    -0.13  -0.00   0.03    -0.00   0.10   0.00
  14   1    -0.23  -0.07  -0.09    -0.37  -0.04  -0.12    -0.35   0.02  -0.09
  15   1     0.02   0.03   0.01    -0.25   0.03  -0.07    -0.43   0.01  -0.13
                     22                     23                     24
                        a                      a                      a 
 Frequencies --  1274.1802              1308.8913              1338.4191
 Red. masses --     4.7298                 4.4396                 2.9594
 Frc consts  --     0.0000                 0.0000                 0.0000
 IR Inten    --     0.6971                27.2985               318.2148
 Raman Activ --     0.0000                 0.0000                 0.0000
 Depolar     --     0.0000                 0.0000                 0.0000
 Atom AN      X      Y      Z        X      Y      Z        X      Y      Z
   1   7     0.00   0.03  -0.00     0.02  -0.00   0.16     0.37  -0.00  -0.09
   2   6     0.00  -0.17  -0.00    -0.42  -0.00  -0.02    -0.07  -0.00   0.00
   3   6    -0.03   0.13   0.04     0.22  -0.01  -0.01    -0.02  -0.01  -0.02
   4   6    -0.00  -0.52  -0.00    -0.05  -0.00   0.01     0.01   0.00   0.01
   5   6     0.03   0.13  -0.04     0.22   0.01  -0.01    -0.02   0.01  -0.02
   6   1     0.03  -0.01  -0.00     0.06   0.03  -0.14    -0.45   0.25   0.19
   7   1    -0.03  -0.01   0.00     0.06  -0.02  -0.14    -0.45  -0.25   0.19
   8   1    -0.00  -0.02  -0.00     0.03   0.00   0.03    -0.46   0.00   0.05
   9   1    -0.00   0.12   0.00     0.68   0.00  -0.07     0.17   0.00  -0.01
  10   1     0.04   0.08  -0.03    -0.18  -0.06  -0.01     0.03   0.00   0.00
  11   1    -0.07   0.01  -0.02    -0.22   0.01  -0.08     0.01   0.01   0.01
  12   1    -0.00   0.63  -0.00    -0.02   0.00  -0.01     0.00  -0.00   0.00
  13   1    -0.00   0.47  -0.00     0.00   0.00  -0.01     0.02  -0.00  -0.01
  14   1    -0.04   0.08   0.03    -0.18   0.06  -0.01     0.03  -0.00   0.00
  15   1     0.07   0.01   0.02    -0.22  -0.01  -0.08     0.01  -0.01   0.01
                     25                     26                     27
                        a                      a                      a 
 Frequencies --  1383.6377              1385.9361              1457.8560
 Red. masses --     1.6478                 1.6533                 1.9954
 Frc consts  --     0.0000                 0.0000                 0.0000
 IR Inten    --   115.4516               112.3700                 0.1674
 Raman Activ --     0.0000                 0.0000                 0.0000
 Depolar     --     0.0000                 0.0000                 0.0000
 Atom AN      X      Y      Z        X      Y      Z        X      Y      Z
   1   7    -0.02   0.01  -0.20     0.00   0.21   0.01     0.00  -0.01  -0.00
   2   6    -0.08   0.00  -0.03     0.00   0.07   0.00     0.00   0.00  -0.00
   3   6     0.03  -0.01   0.01     0.03  -0.00   0.01     0.01   0.21  -0.05
   4   6     0.00   0.00  -0.01    -0.00   0.00   0.00     0.00  -0.02   0.00
   5   6     0.02   0.01   0.01    -0.03  -0.00  -0.01    -0.01   0.20   0.05
   6   1     0.27  -0.33   0.46    -0.07  -0.07   0.43     0.01   0.00  -0.02
   7   1     0.27   0.32   0.42     0.05  -0.10  -0.47    -0.01   0.00   0.02
   8   1    -0.42  -0.03   0.02     0.02  -0.72  -0.00    -0.00   0.04   0.00
   9   1     0.13  -0.00  -0.02    -0.01  -0.04   0.00    -0.00   0.04  -0.00
  10   1    -0.01   0.01  -0.02    -0.01  -0.02   0.02    -0.10  -0.33   0.35
  11   1    -0.04   0.01  -0.00    -0.04  -0.02  -0.02     0.07  -0.43  -0.18
  12   1     0.01   0.00   0.00    -0.00   0.01  -0.00    -0.00   0.04  -0.00
  13   1     0.00  -0.00  -0.00    -0.00  -0.01   0.00    -0.00   0.03   0.00
  14   1    -0.01  -0.01  -0.02     0.01  -0.02  -0.02     0.09  -0.33  -0.34
  15   1    -0.03  -0.01  -0.00     0.04  -0.02   0.02    -0.07  -0.42   0.17
                     28                     29                     30
                        a                      a                      a 
 Frequencies --  1460.9691              1485.3034              2877.2895
 Red. masses --     1.9850                 2.1268                 1.7938
 Frc consts  --     0.0000                 0.0000                 0.0000
 IR Inten    --     1.9206                 0.3858                 3.5906
 Raman Activ --     0.0000                 0.0000                 0.0000
 Depolar     --     0.0000                 0.0000                 0.0000
 Atom AN      X      Y      Z        X      Y      Z        X      Y      Z
   1   7    -0.01  -0.00   0.02    -0.00   0.00  -0.01    -0.00   0.00   0.00
   2   6    -0.02   0.00  -0.00     0.04   0.00   0.00     0.02   0.00   0.26
   3   6    -0.00  -0.18   0.04     0.00   0.12  -0.02     0.01  -0.01  -0.03
   4   6    -0.14  -0.00  -0.01    -0.27  -0.00  -0.02    -0.00   0.00   0.01
   5   6    -0.00   0.18   0.04     0.00  -0.12  -0.02     0.01   0.01  -0.03
   6   1     0.00   0.01  -0.03    -0.00  -0.01   0.01    -0.00   0.00   0.00
   7   1    -0.00  -0.01  -0.02    -0.00   0.01   0.01    -0.00  -0.00   0.00
   8   1     0.04   0.00  -0.00    -0.02  -0.00   0.00    -0.00  -0.00   0.02
   9   1     0.02   0.00  -0.00    -0.04  -0.00   0.00    -0.08  -0.00  -0.95
  10   1     0.07   0.28  -0.30    -0.07  -0.16   0.17    -0.01   0.06   0.05
  11   1    -0.08   0.36   0.15     0.02  -0.21  -0.09    -0.02  -0.02   0.05
  12   1     0.26   0.00   0.22     0.43   0.00   0.37     0.01  -0.00  -0.01
  13   1     0.30   0.00  -0.18     0.50   0.00  -0.30    -0.01  -0.00  -0.01
  14   1     0.07  -0.29  -0.31    -0.07   0.16   0.17    -0.01  -0.06   0.05
  15   1    -0.08  -0.37   0.15     0.02   0.21  -0.09    -0.02   0.02   0.05
                     31                     32                     33
                        a                      a                      a 
 Frequencies --  2914.8023              2922.5388              2928.1767
 Red. masses --     1.9628                 1.5688                 1.7158
 Frc consts  --     0.0000                 0.0000                 0.0000
 IR Inten    --    25.1895                31.9942                65.5613
 Raman Activ --     0.0000                 0.0000                 0.0000
 Depolar     --     0.0000                 0.0000                 0.0000
 Atom AN      X      Y      Z        X      Y      Z        X      Y      Z
   1   7     0.00  -0.00  -0.00    -0.00  -0.00  -0.00    -0.00  -0.00  -0.00
   2   6     0.00   0.00   0.02    -0.00   0.00  -0.02    -0.00   0.00  -0.00
   3   6    -0.02   0.02   0.07     0.02  -0.07  -0.06    -0.03   0.14   0.11
   4   6    -0.05  -0.00  -0.27    -0.17  -0.00   0.03     0.00   0.00  -0.00
   5   6    -0.02  -0.02   0.07     0.02   0.07  -0.06     0.03   0.14  -0.11
   6   1    -0.00  -0.00  -0.00     0.00  -0.00  -0.00     0.00   0.00  -0.00
   7   1    -0.00   0.00  -0.00     0.00   0.00  -0.00    -0.00   0.00   0.00
   8   1     0.00  -0.00   0.00    -0.00  -0.00  -0.00    -0.00  -0.00  -0.00
   9   1    -0.01  -0.00  -0.07     0.01   0.00   0.07     0.00   0.00   0.00
  10   1     0.03  -0.13  -0.11    -0.07   0.26   0.25     0.14  -0.48  -0.46
  11   1     0.04   0.07  -0.14     0.01  -0.00  -0.02    -0.02  -0.01   0.07
  12   1    -0.24   0.00   0.26     0.41  -0.00  -0.54    -0.00  -0.00   0.00
  13   1     0.41   0.00   0.71     0.21   0.00   0.41    -0.00   0.00  -0.00
  14   1     0.03   0.13  -0.11    -0.07  -0.27   0.25    -0.14  -0.49   0.46
  15   1     0.04  -0.07  -0.14     0.01   0.00  -0.02     0.02  -0.01  -0.07
                     34                     35                     36
                        a                      a                      a 
 Frequencies --  2932.6486              2944.4123              2949.1079
 Red. masses --     1.5990                 1.8126                 1.9322
 Frc consts  --     0.0000                 0.0000                 0.0000
 IR Inten    --    27.3895                 8.9726                78.3071
 Raman Activ --     0.0000                 0.0000                 0.0000
 Depolar     --     0.0000                 0.0000                 0.0000
 Atom AN      X      Y      Z        X      Y      Z        X      Y      Z
   1   7    -0.00  -0.00  -0.00    -0.00  -0.00  -0.00    -0.00   0.00  -0.00
   2   6    -0.00  -0.00  -0.01     0.00   0.00   0.00    -0.00  -0.00   0.03
   3   6     0.01  -0.12  -0.04     0.05   0.06  -0.17    -0.05  -0.04   0.18
   4   6     0.10   0.00  -0.09    -0.00   0.00   0.00    -0.02  -0.00   0.11
   5   6     0.01   0.12  -0.04    -0.05   0.06   0.18    -0.05   0.04   0.17
   6   1     0.00   0.00   0.00     0.00   0.00   0.00     0.00   0.00   0.00
   7   1     0.00  -0.00   0.00    -0.00   0.00  -0.00     0.00  -0.00   0.00
   8   1    -0.00   0.00  -0.00     0.00   0.00   0.00     0.00  -0.00   0.00
   9   1     0.00   0.00   0.05    -0.00   0.00  -0.00    -0.01  -0.00  -0.09
  10   1    -0.11   0.37   0.35    -0.00   0.05   0.02     0.02  -0.11  -0.08
  11   1     0.06   0.07  -0.21    -0.17  -0.25   0.59     0.17   0.24  -0.57
  12   1    -0.33   0.00   0.42     0.01   0.00  -0.01     0.17  -0.00  -0.20
  13   1    -0.03  -0.00  -0.09    -0.00  -0.00  -0.01    -0.10  -0.00  -0.16
  14   1    -0.11  -0.37   0.35     0.01   0.06  -0.02     0.02   0.11  -0.08
  15   1     0.06  -0.07  -0.21     0.18  -0.26  -0.62     0.16  -0.23  -0.53
                     37                     38                     39
                        a                      a                      a 
 Frequencies --  3295.4992              3305.5277              3321.3857
 Red. masses --     2.0178                 2.0606                 1.3014
 Frc consts  --     0.0000                 0.0000                 0.0000
 IR Inten    --   155.9693               190.5603                81.6478
 Raman Activ --     0.0000                 0.0000                 0.0000
 Depolar     --     0.0000                 0.0000                 0.0000
 Atom AN      X      Y      Z        X      Y      Z        X      Y      Z
   1   7    -0.09   0.00  -0.26    -0.00   0.28   0.00    -0.15  -0.00   0.00
   2   6     0.00   0.00  -0.01    -0.00   0.00   0.00    -0.01  -0.00   0.00
   3   6    -0.00  -0.00   0.00     0.00   0.00   0.00     0.00   0.00  -0.00
   4   6     0.00  -0.00   0.00    -0.00  -0.00  -0.00    -0.00  -0.00   0.00
   5   6    -0.00   0.00   0.00    -0.00   0.00  -0.00     0.00  -0.00  -0.00
   6   1     0.12   0.21   0.05    -0.35  -0.54  -0.19     0.32   0.54   0.18
   7   1     0.13  -0.22   0.05     0.35  -0.55   0.19     0.31  -0.53   0.18
   8   1     0.10  -0.00   0.89    -0.00   0.03  -0.01    -0.06   0.00  -0.38
   9   1     0.00  -0.00   0.01    -0.00  -0.00  -0.00     0.00   0.00  -0.00
  10   1     0.00   0.00  -0.00    -0.00  -0.00  -0.00     0.00  -0.00  -0.00
  11   1    -0.00  -0.00   0.00     0.00  -0.00   0.00    -0.00  -0.00   0.00
  12   1    -0.00  -0.00   0.00     0.00  -0.00  -0.00     0.00   0.00  -0.00
  13   1    -0.00  -0.00  -0.00     0.00  -0.00   0.00     0.00  -0.00   0.00
  14   1     0.00  -0.00   0.00     0.00  -0.00   0.00     0.00   0.00  -0.00
  15   1    -0.00   0.00   0.00    -0.00  -0.00  -0.00    -0.00   0.00   0.00
