      -----------------------------------------------------------      
     |                   =====================                   |     
     |                           x T B                           |     
     |                   =====================                   |     
     |                         S. Grimme                         |     
     |          Mulliken Center for Theoretical Chemistry        |     
     |                    University of Bonn                     |     
      -----------------------------------------------------------      

   * xtb version 6.5.1 (fef0646) compiled by 'conda@b96dff2e9fd6' on 2023-01-04

   xtb is free software: you can redistribute it and/or modify it under
   the terms of the GNU Lesser General Public License as published by
   the Free Software Foundation, either version 3 of the License, or
   (at your option) any later version.
   
   xtb is distributed in the hope that it will be useful,
   but WITHOUT ANY WARRANTY; without even the implied warranty of
   MERCHANTABILITY or FITNESS FOR A PARTICULAR PURPOSE.  See the
   GNU Lesser General Public License for more details.
   
   Cite this work as:
   * C. Bannwarth, E. Caldeweyher, S. Ehlert, A. Hansen, P. Pracht,
     J. Seibert, S. Spicher, S. Grimme, WIREs Comput. Mol. Sci., 2020, 11,
     e01493. DOI: 10.1002/wcms.1493
   
   for GFN2-xTB:
   * C. Bannwarth, S. Ehlert and S. Grimme., J. Chem. Theory Comput., 2019,
     15, 1652-1671. DOI: 10.1021/acs.jctc.8b01176
   for GFN1-xTB:
   * S. Grimme, C. Bannwarth, P. Shushkov, J. Chem. Theory Comput., 2017,
     13, 1989-2009. DOI: 10.1021/acs.jctc.7b00118
   for GFN0-xTB:
   * P. Pracht, E. Caldeweyher, S. Ehlert, S. Grimme, ChemRxiv, 2019, preprint.
     DOI: 10.26434/chemrxiv.8326202.v1
   for GFN-FF:
   * S. Spicher and S. Grimme, Angew. Chem. Int. Ed., 2020, 59, 15665-15673.
     DOI: 10.1002/anie.202004239
   
   for ALPB and GBSA implicit solvation:
   * S. Ehlert, M. Stahn, S. Spicher, S. Grimme, J. Chem. Theory Comput.,
     2021, 17, 4250-4261. DOI: 10.1021/acs.jctc.1c00471
   
   for DFT-D4:
   * E. Caldeweyher, C. Bannwarth and S. Grimme, J. Chem. Phys., 2017,
     147, 034112. DOI: 10.1063/1.4993215
   * E. Caldeweyher, S. Ehlert, A. Hansen, H. Neugebauer, S. Spicher,
     C. Bannwarth and S. Grimme, J. Chem. Phys., 2019, 150, 154122.
     DOI: 10.1063/1.5090222
   * E. Caldeweyher, J.-M. Mewes, S. Ehlert and S. Grimme, Phys. Chem. Chem. Phys.
     2020, 22, 8499-8512. DOI: 10.1039/D0CP00502A
   
   for sTDA-xTB:
   * S. Grimme and C. Bannwarth, J. Chem. Phys., 2016, 145, 054103.
     DOI: 10.1063/1.4959605
   
   in the mass-spec context:
   * V. Asgeirsson, C. Bauer and S. Grimme, Chem. Sci., 2017, 8, 4879.
     DOI: 10.1039/c7sc00601b
   * J. Koopman and S. Grimme, ACS Omega 2019, 4, 12, 15120-15133.
     DOI: 10.1021/acsomega.9b02011
   
   for metadynamics refer to:
   * S. Grimme, J. Chem. Theory Comput., 2019, 155, 2847-2862
     DOI: 10.1021/acs.jctc.9b00143
   
   for SPH calculations refer to:
   * S. Spicher and S. Grimme, J. Chem. Theory Comput., 2021, 17, 1701-1714
     DOI: 10.1021/acs.jctc.0c01306
   
   with help from (in alphabetical order)
   P. Atkinson, C. Bannwarth, F. Bohle, G. Brandenburg, E. Caldeweyher
   M. Checinski, S. Dohm, S. Ehlert, S. Ehrlich, I. Gerasimov, C. Hölzer
   A. Katbashev, J. Koopman, C. Lavigne, S. Lehtola, F. März, M. Müller,
   F. Musil, H. Neugebauer, J. Pisarek, C. Plett, P. Pracht, F. Pultar,
   J. Seibert, P. Shushkov, S. Spicher, M. Stahn, M. Steiner, T. Strunk,
   J. Stückrath, T. Rose, and J. Unsleber
   
 * started run on 2023/01/23 at 13:55:38.197     

           -------------------------------------------------
          |                Calculation Setup                |
           -------------------------------------------------

          program call               : xtb init.xyz --opt -c 1 -u 0 -P 16
          hostname                   : gpg-woodward
          coordinate file            : init.xyz
          omp threads                :                    16

   ID    Z sym.   atoms
    1    7 N      1
    2    6 C      2-7, 9, 10
    3   35 Br     8
    4    1 H      11-21

           -------------------------------------------------
          |                 G F N 2 - x T B                 |
           -------------------------------------------------

        Reference                      10.1021/acs.jctc.8b01176
      * Hamiltonian:
        H0-scaling (s, p, d)           1.850000    2.230000    2.230000
        zeta-weighting                 0.500000
      * Dispersion:
        s8                             2.700000
        a1                             0.520000
        a2                             5.000000
        s9                             5.000000
      * Repulsion:
        kExp                           1.500000    1.000000
        rExp                           1.000000
      * Coulomb:
        alpha                          2.000000
        third order                    shell-resolved
        anisotropic                    true
        a3                             3.000000
        a5                             4.000000
        cn-shift                       1.200000
        cn-exp                         4.000000
        max-rad                        5.000000


          ...................................................
          :                      SETUP                      :
          :.................................................:
          :  # basis functions                  57          :
          :  # atomic orbitals                  56          :
          :  # shells                           32          :
          :  # electrons                        54          :
          :  max. iterations                   250          :
          :  Hamiltonian                  GFN2-xTB          :
          :  restarted?                      false          :
          :  GBSA solvation                  false          :
          :  PC potential                    false          :
          :  electronic temp.          300.0000000     K    :
          :  accuracy                    1.0000000          :
          :  -> integral cutoff          0.2500000E+02      :
          :  -> integral neglect         0.1000000E-07      :
          :  -> SCF convergence          0.1000000E-05 Eh   :
          :  -> wf. convergence          0.1000000E-03 e    :
          :  Broyden damping             0.4000000          :
          ...................................................

 iter      E             dE          RMSdq      gap      omega  full diag
   1    -29.5879620 -0.295880E+02  0.512E+00    4.29       0.0  T
   2    -29.7057327 -0.117771E+00  0.303E+00    3.71       1.0  T
   3    -29.7078635 -0.213072E-02  0.125E+00    3.63       1.0  T
   4    -29.7083808 -0.517360E-03  0.582E-01    3.47       1.0  T
   5    -29.7109950 -0.261423E-02  0.225E-01    3.54       1.0  T
   6    -29.7110700 -0.750088E-04  0.111E-01    3.56       1.0  T
   7    -29.7111757 -0.105634E-03  0.666E-02    3.54       1.0  T
   8    -29.7111847 -0.900232E-05  0.477E-02    3.55       1.0  T
   9    -29.7111933 -0.857983E-05  0.183E-02    3.55       1.2  T
  10    -29.7111952 -0.195788E-05  0.106E-02    3.55       2.1  T
  11    -29.7111958 -0.535417E-06  0.306E-03    3.55       7.1  T
  12    -29.7111958 -0.187633E-07  0.179E-03    3.55      12.2  T
  13    -29.7111958 -0.601642E-08  0.111E-03    3.55      19.6  T
  14    -29.7111958 -0.282535E-08  0.386E-04    3.55      56.6  T
  15    -29.7111958 -0.392319E-09  0.207E-04    3.55     105.3  T

   *** convergence criteria satisfied after 15 iterations ***

         #    Occupation            Energy/Eh            Energy/eV
      -------------------------------------------------------------
         1        2.0000           -0.9272929             -25.2329
       ...           ...                  ...                  ...
        21        2.0000           -0.6063362             -16.4992
        22        2.0000           -0.5625923             -15.3089
        23        2.0000           -0.5586001             -15.2003
        24        2.0000           -0.5532869             -15.0557
        25        2.0000           -0.5396373             -14.6843
        26        2.0000           -0.5025448             -13.6749
        27        2.0000           -0.4974312             -13.5358 (HOMO)
        28                         -0.3670407              -9.9877 (LUMO)
        29                         -0.3634090              -9.8889
        30                         -0.2935565              -7.9881
        31                         -0.2663374              -7.2474
        32                         -0.2444543              -6.6519
       ...                                ...                  ...
        56                          0.4940675              13.4443
      -------------------------------------------------------------
                  HL-Gap            0.1303905 Eh            3.5481 eV
             Fermi-level           -0.4322360 Eh          -11.7617 eV

 SCC (total)                   0 d,  0 h,  0 min,  0.036 sec
 SCC setup                      ...        0 min,  0.000 sec (  0.632%)
 Dispersion                     ...        0 min,  0.000 sec (  0.999%)
 classical contributions        ...        0 min,  0.000 sec (  0.259%)
 integral evaluation            ...        0 min,  0.001 sec (  4.056%)
 iterations                     ...        0 min,  0.030 sec ( 85.349%)
 molecular gradient             ...        0 min,  0.003 sec (  7.425%)
 printout                       ...        0 min,  0.000 sec (  0.524%)

         :::::::::::::::::::::::::::::::::::::::::::::::::::::
         ::                     SUMMARY                     ::
         :::::::::::::::::::::::::::::::::::::::::::::::::::::
         :: total energy             -29.293496400903 Eh    ::
         :: gradient norm              0.030257283491 Eh/a0 ::
         :: HOMO-LUMO gap              3.548105736379 eV    ::
         ::.................................................::
         :: SCC energy               -29.711195786839 Eh    ::
         :: -> isotropic ES            0.115982258283 Eh    ::
         :: -> anisotropic ES         -0.012114446446 Eh    ::
         :: -> anisotropic XC          0.019531076327 Eh    ::
         :: -> dispersion             -0.017061617434 Eh    ::
         :: repulsion energy           0.417618515438 Eh    ::
         :: add. restraining           0.000000000000 Eh    ::
         :: total charge               1.000000000000 e     ::
         :::::::::::::::::::::::::::::::::::::::::::::::::::::

      ----------------------------------------------------------- 
     |                   =====================                   |
     |                        A N C O P T                        |
     |                   =====================                   |
     |               Approximate Normal Coordinate               |
     |                Rational Function Optimizer                |
      ----------------------------------------------------------- 

          ...................................................
          :                      SETUP                      :
          :.................................................:
          :   optimization level            normal          :
          :   max. optcycles                   200          :
          :   ANC micro-cycles                  20          :
          :   degrees of freedom                57          :
          :.................................................:
          :   RF solver                   davidson          :
          :   write xtbopt.log                true          :
          :   linear?                        false          :
          :   energy convergence         0.5000000E-05 Eh   :
          :   grad. convergence          0.1000000E-02 Eh/α :
          :   maximium RF displ.         1.0000000          :
          :   Hlow (freq-cutoff)         0.1000000E-01      :
          :   Hmax (freq-cutoff)         5.0000000          :
          :   S6 in model hess.         20.0000000          :
          ...................................................

generating ANC from model Hessian ...
Using Lindh-Hessian (1995)
 Shifting diagonal of input Hessian by    8.6338386404587308E-003
 Lowest  eigenvalues of input Hessian
    0.000000    0.000000    0.000000    0.000000    0.000000    0.000000
    0.010000    0.010223    0.012588    0.013906    0.020466    0.022045
    0.022911    0.025084    0.028506    0.033000    0.038725    0.048444
 Highest eigenvalues
    1.433613    1.488513    1.516116    1.819626    1.888233    1.907626


........................................................................
.............................. CYCLE    1 ..............................
........................................................................
   1    -29.7111958 -0.297112E+02  0.446E-05    3.55       0.0  T
   2    -29.7111958 -0.790124E-11  0.243E-05    3.55     898.1  T
   3    -29.7111958 -0.287415E-11  0.162E-05    3.55    1347.8  T
     SCC iter.                  ...        0 min,  0.006 sec
     gradient                   ...        0 min,  0.002 sec
 * total energy  :   -29.2934964 Eh     change       -0.2126335E-09 Eh
   gradient norm :     0.0302565 Eh/α   predicted     0.0000000E+00 (-100.00%)
   displ. norm   :     0.1817796 α      lambda       -0.2946110E-02
   maximum displ.:     0.0842531 α      in ANC's #5, #4, #15, ...

........................................................................
.............................. CYCLE    2 ..............................
........................................................................
   1    -29.7288455 -0.297288E+02  0.144E-01    3.58       0.0  T
   2    -29.7288571 -0.116188E-04  0.860E-02    3.57       1.0  T
   3    -29.7288567  0.352420E-06  0.192E-02    3.57       1.1  T
   4    -29.7288589 -0.222192E-05  0.106E-02    3.57       2.1  T
   5    -29.7288593 -0.342699E-06  0.815E-03    3.57       2.7  T
   6    -29.7288595 -0.194585E-06  0.459E-03    3.57       4.8  T
   7    -29.7288595 -0.706668E-07  0.295E-03    3.57       7.4  T
   8    -29.7288596 -0.496194E-07  0.107E-03    3.57      20.4  T
   9    -29.7288596 -0.754505E-08  0.324E-04    3.57      67.4  T
  10    -29.7288596 -0.222730E-09  0.127E-04    3.57     172.4  T
     SCC iter.                  ...        0 min,  0.019 sec
     gradient                   ...        0 min,  0.002 sec
 * total energy  :   -29.2953533 Eh     change       -0.1856872E-02 Eh
   gradient norm :     0.0099976 Eh/α   predicted    -0.1521762E-02 ( -18.05%)
   displ. norm   :     0.1458885 α      lambda       -0.5302668E-03
   maximum displ.:     0.0982408 α      in ANC's #4, #1, #5, ...

........................................................................
.............................. CYCLE    3 ..............................
........................................................................
   1    -29.7346185 -0.297346E+02  0.656E-02    3.56       0.0  T
   2    -29.7346221 -0.355930E-05  0.379E-02    3.56       1.0  T
   3    -29.7346213  0.747206E-06  0.148E-02    3.56       1.5  T
   4    -29.7346231 -0.179524E-05  0.760E-03    3.56       2.9  T
   5    -29.7346233 -0.141627E-06  0.560E-03    3.56       3.9  T
   6    -29.7346233 -0.757030E-07  0.352E-03    3.56       6.2  T
   7    -29.7346234 -0.532159E-07  0.223E-03    3.56       9.8  T
   8    -29.7346234 -0.242846E-07  0.560E-04    3.56      39.0  T
   9    -29.7346234 -0.143994E-08  0.267E-04    3.56      81.9  T
     SCC iter.                  ...        0 min,  0.017 sec
     gradient                   ...        0 min,  0.002 sec
 * total energy  :   -29.2956899 Eh     change       -0.3365838E-03 Eh
   gradient norm :     0.0040512 Eh/α   predicted    -0.2712612E-03 ( -19.41%)
   displ. norm   :     0.1441445 α      lambda       -0.1992617E-03
   maximum displ.:     0.0887559 α      in ANC's #4, #1, #2, ...

........................................................................
.............................. CYCLE    4 ..............................
........................................................................
   1    -29.7350457 -0.297350E+02  0.462E-02    3.54       0.0  T
   2    -29.7350480 -0.227007E-05  0.264E-02    3.55       1.0  T
   3    -29.7350461  0.187547E-05  0.158E-02    3.55       1.4  T
   4    -29.7350494 -0.325552E-05  0.441E-03    3.55       4.9  T
   5    -29.7350494 -0.485105E-07  0.353E-03    3.55       6.2  T
   6    -29.7350495 -0.364938E-07  0.229E-03    3.55       9.5  T
   7    -29.7350495 -0.179904E-07  0.119E-03    3.55      18.3  T
   8    -29.7350495 -0.527414E-08  0.565E-04    3.55      38.6  T
   9    -29.7350495 -0.196822E-08  0.166E-04    3.55     131.2  T
     SCC iter.                  ...        0 min,  0.015 sec
     gradient                   ...        0 min,  0.002 sec
 * total energy  :   -29.2958371 Eh     change       -0.1472874E-03 Eh
   gradient norm :     0.0035510 Eh/α   predicted    -0.1017057E-03 ( -30.95%)
   displ. norm   :     0.2039313 α      lambda       -0.1877013E-03
   maximum displ.:     0.1158467 α      in ANC's #4, #1, #2, ...

........................................................................
.............................. CYCLE    5 ..............................
........................................................................
   1    -29.7336892 -0.297337E+02  0.654E-02    3.52       0.0  T
   2    -29.7336926 -0.348497E-05  0.374E-02    3.53       1.0  T
   3    -29.7336883  0.430497E-05  0.196E-02    3.53       1.1  T
   4    -29.7336947 -0.633973E-05  0.418E-03    3.53       5.2  T
   5    -29.7336947 -0.568349E-07  0.293E-03    3.53       7.5  T
   6    -29.7336948 -0.262956E-07  0.192E-03    3.53      11.3  T
   7    -29.7336948 -0.106468E-07  0.130E-03    3.53      16.8  T
   8    -29.7336948 -0.475572E-08  0.710E-04    3.53      30.7  T
   9    -29.7336948 -0.345271E-08  0.189E-04    3.53     115.7  T
     SCC iter.                  ...        0 min,  0.013 sec
     gradient                   ...        0 min,  0.002 sec
 * total energy  :   -29.2959736 Eh     change       -0.1364410E-03 Eh
   gradient norm :     0.0039692 Eh/α   predicted    -0.9775434E-04 ( -28.35%)
   displ. norm   :     0.2033873 α      lambda       -0.1444380E-03
   maximum displ.:     0.1176818 α      in ANC's #1, #2, #4, ...

........................................................................
.............................. CYCLE    6 ..............................
........................................................................
   1    -29.7322216 -0.297322E+02  0.646E-02    3.51       0.0  T
   2    -29.7322246 -0.301280E-05  0.378E-02    3.52       1.0  T
   3    -29.7322198  0.476590E-05  0.190E-02    3.52       1.1  T
   4    -29.7322263 -0.652739E-05  0.267E-03    3.52       8.2  T
   5    -29.7322264 -0.437048E-07  0.152E-03    3.52      14.4  T
   6    -29.7322264 -0.108588E-07  0.955E-04    3.52      22.8  T
   7    -29.7322264 -0.282545E-08  0.622E-04    3.52      35.1  T
     SCC iter.                  ...        0 min,  0.010 sec
     gradient                   ...        0 min,  0.001 sec
 * total energy  :   -29.2960888 Eh     change       -0.1152552E-03 Eh
   gradient norm :     0.0038853 Eh/α   predicted    -0.7521035E-04 ( -34.74%)
   displ. norm   :     0.2494335 α      lambda       -0.1721288E-03
   maximum displ.:     0.1498080 α      in ANC's #1, #2, #4, ...

........................................................................
.............................. CYCLE    7 ..............................
........................................................................
   1    -29.7310467 -0.297310E+02  0.827E-02    3.50       0.0  T
   2    -29.7310506 -0.390325E-05  0.479E-02    3.51       1.0  T
   3    -29.7310441  0.648293E-05  0.214E-02    3.51       1.0  T
   4    -29.7310527 -0.859641E-05  0.310E-03    3.51       7.0  T
   5    -29.7310527 -0.554351E-07  0.169E-03    3.51      12.9  T
   6    -29.7310528 -0.101007E-07  0.102E-03    3.51      21.3  T
   7    -29.7310528 -0.496523E-08  0.656E-04    3.51      33.3  T
   8    -29.7310528 -0.938940E-09  0.449E-04    3.51      48.6  T
     SCC iter.                  ...        0 min,  0.011 sec
     gradient                   ...        0 min,  0.002 sec
 * total energy  :   -29.2962313 Eh     change       -0.1424217E-03 Eh
   gradient norm :     0.0035553 Eh/α   predicted    -0.9142287E-04 ( -35.81%)
   displ. norm   :     0.3347971 α      lambda       -0.2201896E-03
   maximum displ.:     0.2086055 α      in ANC's #2, #1, #7, ...

........................................................................
.............................. CYCLE    8 ..............................
........................................................................
   1    -29.7300892 -0.297301E+02  0.119E-01    3.50       0.0  T
   2    -29.7300962 -0.699428E-05  0.672E-02    3.50       1.0  T
   3    -29.7300845  0.116824E-04  0.288E-02    3.50       1.0  T
   4    -29.7301003 -0.157671E-04  0.521E-03    3.50       4.2  T
   5    -29.7301003 -0.667824E-07  0.278E-03    3.50       7.9  T
   6    -29.7301004 -0.179353E-07  0.169E-03    3.50      12.9  T
   7    -29.7301004 -0.102065E-07  0.125E-03    3.50      17.5  T
   8    -29.7301004 -0.283875E-08  0.722E-04    3.50      30.2  T
   9    -29.7301004 -0.339023E-08  0.297E-04    3.50      73.5  T
     SCC iter.                  ...        0 min,  0.013 sec
     gradient                   ...        0 min,  0.001 sec
 * total energy  :   -29.2964067 Eh     change       -0.1754215E-03 Eh
   gradient norm :     0.0040017 Eh/α   predicted    -0.1224359E-03 ( -30.20%)
   displ. norm   :     0.3667751 α      lambda       -0.2164350E-03
   maximum displ.:     0.2394295 α      in ANC's #2, #1, #7, ...

........................................................................
.............................. CYCLE    9 ..............................
........................................................................
   1    -29.7298365 -0.297298E+02  0.140E-01    3.49       0.0  T
   2    -29.7298456 -0.914948E-05  0.780E-02    3.50       1.0  T
   3    -29.7298295  0.161611E-04  0.341E-02    3.50       1.0  T
   4    -29.7298517 -0.221988E-04  0.712E-03    3.50       3.1  T
   5    -29.7298517 -0.470498E-07  0.372E-03    3.50       5.9  T
   6    -29.7298518 -0.603375E-07  0.264E-03    3.50       8.3  T
   7    -29.7298518 -0.177837E-07  0.190E-03    3.50      11.5  T
   8    -29.7298518 -0.584830E-08  0.952E-04    3.50      22.9  T
   9    -29.7298518 -0.899351E-08  0.315E-04    3.50      69.2  T
     SCC iter.                  ...        0 min,  0.013 sec
     gradient                   ...        0 min,  0.002 sec
 * total energy  :   -29.2965695 Eh     change       -0.1628426E-03 Eh
   gradient norm :     0.0046364 Eh/α   predicted    -0.1227763E-03 ( -24.60%)
   displ. norm   :     0.2924563 α      lambda       -0.1596372E-03
   maximum displ.:     0.2081489 α      in ANC's #2, #1, #7, ...

........................................................................
.............................. CYCLE   10 ..............................
........................................................................
   1    -29.7311896 -0.297312E+02  0.121E-01    3.50       0.0  T
   2    -29.7311970 -0.741754E-05  0.669E-02    3.50       1.0  T
   3    -29.7311844  0.125466E-04  0.308E-02    3.50       1.0  T
   4    -29.7312022 -0.177436E-04  0.693E-03    3.50       3.2  T
   5    -29.7312022 -0.186927E-08  0.385E-03    3.50       5.7  T
   6    -29.7312023 -0.940838E-07  0.263E-03    3.50       8.3  T
   7    -29.7312023 -0.141045E-07  0.182E-03    3.50      12.0  T
   8    -29.7312023 -0.111243E-07  0.827E-04    3.50      26.4  T
   9    -29.7312023 -0.555633E-08  0.277E-04    3.50      78.9  T
     SCC iter.                  ...        0 min,  0.013 sec
     gradient                   ...        0 min,  0.001 sec
 * total energy  :   -29.2966882 Eh     change       -0.1187001E-03 Eh
   gradient norm :     0.0035446 Eh/α   predicted    -0.8664683E-04 ( -27.00%)
   displ. norm   :     0.3172651 α      lambda       -0.1181853E-03
   maximum displ.:     0.2412210 α      in ANC's #2, #1, #7, ...

........................................................................
.............................. CYCLE   11 ..............................
........................................................................
   1    -29.7308311 -0.297308E+02  0.123E-01    3.49       0.0  T
   2    -29.7308416 -0.105289E-04  0.694E-02    3.49       1.0  T
   3    -29.7308281  0.135318E-04  0.345E-02    3.49       1.0  T
   4    -29.7308485 -0.203728E-04  0.650E-03    3.49       3.4  T
   5    -29.7308485 -0.372392E-07  0.383E-03    3.49       5.7  T
   6    -29.7308486 -0.655089E-07  0.266E-03    3.49       8.2  T
   7    -29.7308486 -0.168283E-07  0.182E-03    3.49      12.0  T
   8    -29.7308486 -0.480275E-08  0.112E-03    3.49      19.5  T
   9    -29.7308486 -0.115106E-07  0.280E-04    3.49      77.9  T
  10    -29.7308486 -0.224688E-09  0.176E-04    3.49     123.6  T
     SCC iter.                  ...        0 min,  0.014 sec
     gradient                   ...        0 min,  0.001 sec
 * total energy  :   -29.2967690 Eh     change       -0.8077689E-04 Eh
   gradient norm :     0.0042657 Eh/α   predicted    -0.6504197E-04 ( -19.48%)
   displ. norm   :     0.1647855 α      lambda       -0.1176118E-03
   maximum displ.:     0.1482069 α      in ANC's #2, #4, #7, ...

........................................................................
.............................. CYCLE   12 ..............................
........................................................................
   1    -29.7340760 -0.297341E+02  0.729E-02    3.50       0.0  T
   2    -29.7340795 -0.351504E-05  0.413E-02    3.50       1.0  T
   3    -29.7340747  0.480394E-05  0.205E-02    3.50       1.1  T
   4    -29.7340819 -0.713351E-05  0.298E-03    3.50       7.3  T
   5    -29.7340819 -0.166068E-07  0.152E-03    3.50      14.4  T
   6    -29.7340819 -0.113112E-07  0.677E-04    3.50      32.3  T
   7    -29.7340819 -0.259570E-08  0.442E-04    3.50      49.4  T
     SCC iter.                  ...        0 min,  0.010 sec
     gradient                   ...        0 min,  0.001 sec
 * total energy  :   -29.2968335 Eh     change       -0.6448769E-04 Eh
   gradient norm :     0.0031875 Eh/α   predicted    -0.6040497E-04 (  -6.33%)
   displ. norm   :     0.2029409 α      lambda       -0.7950288E-04
   maximum displ.:     0.1837591 α      in ANC's #2, #1, #7, ...

........................................................................
.............................. CYCLE   13 ..............................
........................................................................
   1    -29.7331445 -0.297331E+02  0.799E-02    3.49       0.0  T
   2    -29.7331503 -0.573810E-05  0.458E-02    3.49       1.0  T
   3    -29.7331449  0.534650E-05  0.247E-02    3.49       1.0  T
   4    -29.7331540 -0.905466E-05  0.252E-03    3.49       8.7  T
   5    -29.7331540 -0.217409E-07  0.132E-03    3.49      16.5  T
   6    -29.7331540 -0.118751E-07  0.645E-04    3.49      33.8  T
   7    -29.7331540 -0.924544E-09  0.413E-04    3.49      52.9  T
     SCC iter.                  ...        0 min,  0.010 sec
     gradient                   ...        0 min,  0.001 sec
 * total energy  :   -29.2969093 Eh     change       -0.7580754E-04 Eh
   gradient norm :     0.0029653 Eh/α   predicted    -0.4142805E-04 ( -45.35%)
   displ. norm   :     0.1074182 α      lambda       -0.8100817E-04
   maximum displ.:     0.0942026 α      in ANC's #2, #4, #1, ...

........................................................................
.............................. CYCLE   14 ..............................
........................................................................
   1    -29.7323289 -0.297323E+02  0.470E-02    3.49       0.0  T
   2    -29.7323305 -0.152462E-05  0.270E-02    3.49       1.0  T
   3    -29.7323286  0.190109E-05  0.130E-02    3.50       1.7  T
   4    -29.7323314 -0.280147E-05  0.217E-03    3.50      10.1  T
   5    -29.7323314 -0.596085E-08  0.131E-03    3.49      16.6  T
   6    -29.7323314 -0.834367E-08  0.861E-04    3.49      25.3  T
   7    -29.7323314 -0.210927E-08  0.606E-04    3.49      36.0  T
     SCC iter.                  ...        0 min,  0.010 sec
     gradient                   ...        0 min,  0.001 sec
 * total energy  :   -29.2969811 Eh     change       -0.7182918E-04 Eh
   gradient norm :     0.0022709 Eh/α   predicted    -0.4097216E-04 ( -42.96%)
   displ. norm   :     0.1746309 α      lambda       -0.1179060E-03
   maximum displ.:     0.1341427 α      in ANC's #2, #1, #4, ...

........................................................................
.............................. CYCLE   15 ..............................
........................................................................
   1    -29.7312686 -0.297313E+02  0.767E-02    3.50       0.0  T
   2    -29.7312710 -0.244934E-05  0.435E-02    3.50       1.0  T
   3    -29.7312668  0.419351E-05  0.178E-02    3.50       1.2  T
   4    -29.7312725 -0.564554E-05  0.348E-03    3.50       6.3  T
   5    -29.7312725 -0.897793E-08  0.199E-03    3.50      11.0  T
   6    -29.7312725 -0.190564E-07  0.134E-03    3.50      16.3  T
   7    -29.7312725 -0.394300E-08  0.957E-04    3.50      22.8  T
   8    -29.7312725 -0.226415E-08  0.441E-04    3.50      49.5  T
     SCC iter.                  ...        0 min,  0.011 sec
     gradient                   ...        0 min,  0.001 sec
 * total energy  :   -29.2970818 Eh     change       -0.1006788E-03 Eh
   gradient norm :     0.0031928 Eh/α   predicted    -0.6075134E-04 ( -39.66%)
   displ. norm   :     0.2238989 α      lambda       -0.1243545E-03
   maximum displ.:     0.1739812 α      in ANC's #2, #1, #3, ...

........................................................................
.............................. CYCLE   16 ..............................
........................................................................
   1    -29.7304007 -0.297304E+02  0.949E-02    3.50       0.0  T
   2    -29.7304041 -0.337662E-05  0.542E-02    3.50       1.0  T
   3    -29.7303976  0.646401E-05  0.218E-02    3.50       1.0  T
   4    -29.7304062 -0.853210E-05  0.336E-03    3.50       6.5  T
   5    -29.7304062 -0.107600E-07  0.189E-03    3.50      11.5  T
   6    -29.7304062 -0.194971E-07  0.111E-03    3.50      19.7  T
   7    -29.7304062 -0.241038E-08  0.813E-04    3.50      26.8  T
   8    -29.7304062 -0.214296E-08  0.255E-04    3.50      85.7  T
     SCC iter.                  ...        0 min,  0.011 sec
     gradient                   ...        0 min,  0.001 sec
 * total energy  :   -29.2971848 Eh     change       -0.1030394E-03 Eh
   gradient norm :     0.0044514 Eh/α   predicted    -0.6529715E-04 ( -36.63%)
   displ. norm   :     0.2444577 α      lambda       -0.1228021E-03
   maximum displ.:     0.2048683 α      in ANC's #2, #1, #3, ...

........................................................................
.............................. CYCLE   17 ..............................
........................................................................
   1    -29.7299019 -0.297299E+02  0.102E-01    3.51       0.0  T
   2    -29.7299063 -0.441459E-05  0.588E-02    3.50       1.0  T
   3    -29.7298975  0.881952E-05  0.257E-02    3.51       1.0  T
   4    -29.7299092 -0.117563E-04  0.281E-03    3.51       7.8  T
   5    -29.7299093 -0.200165E-07  0.170E-03    3.51      12.8  T
   6    -29.7299093 -0.123484E-07  0.879E-04    3.51      24.8  T
   7    -29.7299093 -0.128986E-08  0.676E-04    3.51      32.3  T
     SCC iter.                  ...        0 min,  0.010 sec
     gradient                   ...        0 min,  0.001 sec
 * total energy  :   -29.2972871 Eh     change       -0.1022638E-03 Eh
   gradient norm :     0.0047729 Eh/α   predicted    -0.6507141E-04 ( -36.37%)
   displ. norm   :     0.3607166 α      lambda       -0.1731830E-03
   maximum displ.:     0.3224964 α      in ANC's #2, #1, #3, ...

........................................................................
.............................. CYCLE   18 ..............................
........................................................................
   1    -29.7294451 -0.297294E+02  0.152E-01    3.51       0.0  T
   2    -29.7294556 -0.105023E-04  0.875E-02    3.51       1.0  T
   3    -29.7294353  0.202753E-04  0.396E-02    3.51       1.0  T
   4    -29.7294627 -0.273351E-04  0.368E-03    3.51       5.9  T
   5    -29.7294627 -0.654086E-07  0.223E-03    3.51       9.8  T
   6    -29.7294627 -0.137989E-07  0.117E-03    3.51      18.7  T
   7    -29.7294627 -0.312216E-08  0.895E-04    3.51      24.4  T
   8    -29.7294627 -0.187981E-08  0.589E-04    3.51      37.1  T
     SCC iter.                  ...        0 min,  0.011 sec
     gradient                   ...        0 min,  0.001 sec
 * total energy  :   -29.2974188 Eh     change       -0.1316621E-03 Eh
   gradient norm :     0.0045367 Eh/α   predicted    -0.9786065E-04 ( -25.67%)
   displ. norm   :     0.3525043 α      lambda       -0.1637693E-03
   maximum displ.:     0.3305942 α      in ANC's #2, #1, #31, ...

........................................................................
.............................. CYCLE   19 ..............................
........................................................................
   1    -29.7299530 -0.297300E+02  0.152E-01    3.51       0.0  T
   2    -29.7299647 -0.117238E-04  0.875E-02    3.50       1.0  T
   3    -29.7299433  0.214450E-04  0.415E-02    3.51       1.0  T
   4    -29.7299728 -0.294920E-04  0.328E-03    3.50       6.7  T
   5    -29.7299729 -0.790571E-07  0.177E-03    3.50      12.3  T
   6    -29.7299729 -0.946883E-08  0.792E-04    3.50      27.6  T
   7    -29.7299729 -0.205618E-08  0.562E-04    3.50      38.8  T
     SCC iter.                  ...        0 min,  0.010 sec
     gradient                   ...        0 min,  0.001 sec
 * total energy  :   -29.2975359 Eh     change       -0.1170909E-03 Eh
   gradient norm :     0.0037296 Eh/α   predicted    -0.9206766E-04 ( -21.37%)
   displ. norm   :     0.2442178 α      lambda       -0.1210257E-03
   maximum displ.:     0.2306825 α      in ANC's #2, #31, #29, ...

........................................................................
.............................. CYCLE   20 ..............................
........................................................................
   1    -29.7322833 -0.297323E+02  0.110E-01    3.51       0.0  T
   2    -29.7322896 -0.624536E-05  0.637E-02    3.51       1.0  T
   3    -29.7322794  0.101196E-04  0.282E-02    3.51       1.0  T
   4    -29.7322931 -0.136715E-04  0.307E-03    3.51       7.1  T
   5    -29.7322932 -0.532740E-07  0.143E-03    3.51      15.3  T
   6    -29.7322932 -0.584267E-08  0.535E-04    3.51      40.8  T
   7    -29.7322932 -0.254838E-08  0.245E-04    3.51      89.0  T
     SCC iter.                  ...        0 min,  0.010 sec
     gradient                   ...        0 min,  0.001 sec
 * total energy  :   -29.2976112 Eh     change       -0.7533266E-04 Eh
   gradient norm :     0.0033803 Eh/α   predicted    -0.6412568E-04 ( -14.88%)
   displ. norm   :     0.2085872 α      lambda       -0.5711810E-04
   maximum displ.:     0.1986090 α      in ANC's #2, #31, #29, ...
 * RMSD in coord.:     0.8176692 α      energy gain  -0.4114795E-02 Eh

generating ANC from model Hessian ...
Using Lindh-Hessian (1995)
 Shifting diagonal of input Hessian by    8.4321691754668093E-003
 Lowest  eigenvalues of input Hessian
    0.000000    0.000000    0.000000    0.000000    0.000000    0.000000
    0.010000    0.010763    0.012118    0.014614    0.020357    0.022582
    0.023939    0.026497    0.026885    0.034416    0.037345    0.051517
 Highest eigenvalues
    1.439890    1.536803    1.555290    1.872747    1.945223    1.979591


........................................................................
.............................. CYCLE   21 ..............................
........................................................................
   1    -29.7326916 -0.297327E+02  0.934E-02    3.50       0.0  T
   2    -29.7326967 -0.508590E-05  0.540E-02    3.50       1.0  T
   3    -29.7326886  0.813614E-05  0.264E-02    3.50       1.0  T
   4    -29.7327001 -0.115310E-04  0.210E-03    3.50      10.4  T
   5    -29.7327002 -0.299961E-07  0.118E-03    3.50      18.6  T
   6    -29.7327002 -0.782860E-08  0.564E-04    3.50      38.7  T
   7    -29.7327002 -0.393690E-09  0.354E-04    3.50      61.6  T
     SCC iter.                  ...        0 min,  0.010 sec
     gradient                   ...        0 min,  0.001 sec
 * total energy  :   -29.2976410 Eh     change       -0.2981932E-04 Eh
   gradient norm :     0.0031778 Eh/α   predicted     0.0000000E+00 (-100.00%)
   displ. norm   :     0.0400751 α      lambda       -0.3792740E-04
   maximum displ.:     0.0242937 α      in ANC's #3, #7, #1, ...

........................................................................
.............................. CYCLE   22 ..............................
........................................................................
   1    -29.7326490 -0.297326E+02  0.190E-02    3.50       0.0  T
   2    -29.7326491 -0.511182E-07  0.110E-02    3.50       2.0  T
   3    -29.7326490  0.423222E-07  0.198E-03    3.50      11.0  T
   4    -29.7326491 -0.619343E-07  0.628E-04    3.50      34.7  T
   5    -29.7326491 -0.181593E-09  0.295E-04    3.50      73.9  T
     SCC iter.                  ...        0 min,  0.007 sec
     gradient                   ...        0 min,  0.001 sec
 * total energy  :   -29.2976707 Eh     change       -0.2973123E-04 Eh
   gradient norm :     0.0011818 Eh/α   predicted    -0.1928943E-04 ( -35.12%)
   displ. norm   :     0.1379895 α      lambda       -0.4805620E-04
   maximum displ.:     0.0886977 α      in ANC's #3, #4, #2, ...

........................................................................
.............................. CYCLE   23 ..............................
........................................................................
   1    -29.7321191 -0.297321E+02  0.537E-02    3.51       0.0  T
   2    -29.7321196 -0.461083E-06  0.303E-02    3.51       1.0  T
   3    -29.7321190  0.583770E-06  0.656E-03    3.51       3.3  T
   4    -29.7321198 -0.794792E-06  0.262E-03    3.51       8.3  T
   5    -29.7321198 -0.180414E-07  0.104E-03    3.51      21.0  T
   6    -29.7321198 -0.548216E-08  0.777E-04    3.51      28.1  T
   7    -29.7321198 -0.127940E-08  0.521E-04    3.51      41.9  T
     SCC iter.                  ...        0 min,  0.010 sec
     gradient                   ...        0 min,  0.001 sec
 * total energy  :   -29.2977023 Eh     change       -0.3151485E-04 Eh
   gradient norm :     0.0033009 Eh/α   predicted    -0.2423402E-04 ( -23.10%)
   displ. norm   :     0.0203381 α      lambda       -0.1435932E-04
   maximum displ.:     0.0133092 α      in ANC's #3, #2, #6, ...

........................................................................
.............................. CYCLE   24 ..............................
........................................................................
   1    -29.7322470 -0.297322E+02  0.885E-03    3.51       0.0  T
   2    -29.7322471 -0.503564E-07  0.522E-03    3.51       4.2  T
   3    -29.7322470  0.666495E-07  0.246E-03    3.51       8.9  T
   4    -29.7322471 -0.938057E-07  0.530E-04    3.51      41.2  T
   5    -29.7322471 -0.583025E-09  0.397E-04    3.51      55.0  T
     SCC iter.                  ...        0 min,  0.007 sec
     gradient                   ...        0 min,  0.001 sec
 * total energy  :   -29.2977140 Eh     change       -0.1170197E-04 Eh
   gradient norm :     0.0020191 Eh/α   predicted    -0.7186413E-05 ( -38.59%)
   displ. norm   :     0.0502395 α      lambda       -0.1905097E-04
   maximum displ.:     0.0328719 α      in ANC's #3, #2, #6, ...

........................................................................
.............................. CYCLE   25 ..............................
........................................................................
   1    -29.7324847 -0.297325E+02  0.212E-02    3.50       0.0  T
   2    -29.7324850 -0.288536E-06  0.117E-02    3.50       1.9  T
   3    -29.7324846  0.324763E-06  0.559E-03    3.50       3.9  T
   4    -29.7324851 -0.487394E-06  0.134E-03    3.50      16.3  T
   5    -29.7324851 -0.118874E-08  0.814E-04    3.50      26.8  T
   6    -29.7324851 -0.291523E-08  0.541E-04    3.50      40.3  T
     SCC iter.                  ...        0 min,  0.009 sec
     gradient                   ...        0 min,  0.002 sec
 * total energy  :   -29.2977245 Eh     change       -0.1051409E-04 Eh
   gradient norm :     0.0003968 Eh/α   predicted    -0.9549825E-05 (  -9.17%)
   displ. norm   :     0.0297910 α      lambda       -0.1728128E-05
   maximum displ.:     0.0210641 α      in ANC's #3, #2, #6, ...

........................................................................
.............................. CYCLE   26 ..............................
........................................................................
   1    -29.7324527 -0.297325E+02  0.111E-02    3.50       0.0  T
   2    -29.7324527 -0.534696E-07  0.644E-03    3.50       3.4  T
   3    -29.7324526  0.125094E-06  0.295E-03    3.50       7.4  T
   4    -29.7324528 -0.165001E-06  0.471E-04    3.50      46.3  T
   5    -29.7324528 -0.556597E-09  0.316E-04    3.50      69.0  T
     SCC iter.                  ...        0 min,  0.007 sec
     gradient                   ...        0 min,  0.002 sec
 * total energy  :   -29.2977259 Eh     change       -0.1417986E-05 Eh
   gradient norm :     0.0003557 Eh/α   predicted    -0.8649142E-06 ( -39.00%)
   displ. norm   :     0.0127216 α      lambda       -0.6716689E-06
   maximum displ.:     0.0081304 α      in ANC's #2, #3, #1, ...

   *** GEOMETRY OPTIMIZATION CONVERGED AFTER 26 ITERATIONS ***

------------------------------------------------------------------------
 total energy gain   :        -0.0042295 Eh       -2.6540 kcal/mol
 total RMSD          :         0.8371407 a0        0.4430 Å
 total power (kW/mol):        -0.4270975 (step)  -28.7483 (real)
------------------------------------------------------------------------

 ANCopt (total)                0 d,  0 h,  0 min,  0.386 sec
 optimizer setup                ...        0 min,  0.000 sec (  0.032%)
 model hessian                  ...        0 min,  0.015 sec (  3.773%)
 ANC generation                 ...        0 min,  0.002 sec (  0.627%)
 coordinate transformation      ...        0 min,  0.001 sec (  0.148%)
 single point calculation       ...        0 min,  0.361 sec ( 93.438%)
 optimization log               ...        0 min,  0.002 sec (  0.566%)
 hessian update                 ...        0 min,  0.001 sec (  0.197%)
 rational function              ...        0 min,  0.002 sec (  0.571%)

================
 final structure:
================
21
 xtb: 6.5.1 (fef0646)
N            2.99745375860538        0.62266216813993       -1.20276260989983
C            2.44323896730256        1.59583780380200       -0.21461658090381
C            2.91484261777631        1.17992240039134        1.17972102257630
C            4.42180954468291        1.13884408361717        1.19868356571841
C            5.15760541246880        2.28499074575698        1.48129758898716
C            6.53804303131967        2.27050569400742        1.42553285207752
C            7.20002999125339        1.10025771864568        1.07394148039628
Br           9.09977316594287        1.07778872557304        0.97633837605170
C            6.48487394254510       -0.05568106300099        0.79717339406029
C            5.10055640510400       -0.03071518026073        0.85305253597380
H            3.00390657301882        0.99250236358597       -2.15888963872878
H            2.46265372808949       -0.25371702986286       -1.18991209365883
H            3.97331103855664        0.41423450488082       -0.87994802651575
H            1.35601996665350        1.61329101723339       -0.28359340183194
H            2.83140394046160        2.58660054329611       -0.45438432197111
H            2.50011221993066        0.20560576473867        1.44198073792947
H            2.54697295661274        1.90494015061861        1.90404992183504
H            4.64749086610067        3.19370251239444        1.76197230147926
H            7.10261520684405        3.15913316385447        1.65764061588922
H            7.00547262669312       -0.96700470713077        0.55059397648690
H            4.56040404003728       -0.95755138028017        0.70688830404793

 Bond Distances (Angstroems)
 ---------------------------
N1-C2=1.4935         N1-H11=1.0252        N1-H12=1.0268        N1-H13=1.0488        C2-N1=1.4935         C2-C3=1.5296         
C2-H14=1.0895        C2-H15=1.0908        C3-C2=1.5296         C3-C4=1.5076         C3-H16=1.0909        C3-H17=1.0889        
C4-C3=1.5076         C4-C5=1.3910         C4-C10=1.3957        C5-C4=1.3910         C5-C6=1.3816         C5-H18=1.0792        
C6-C5=1.3816         C6-C7=1.3897         C6-H19=1.0781        C7-C6=1.3897         C7-Br8=1.9024        C7-C9=1.3872         
Br8-C7=1.9024        C9-C7=1.3872         C9-C10=1.3857        C9-H20=1.0781        C10-C4=1.3957        C10-C9=1.3857        
C10-H21=1.0827       H11-N1=1.0252        H12-N1=1.0268        H13-N1=1.0488        H14-C2=1.0895        H15-C2=1.0908        
H16-C3=1.0909        H17-C3=1.0889        H18-C5=1.0792        H19-C6=1.0781        H20-C9=1.0781        H21-C10=1.0827       
 C  H  Rav=1.0848 sigma=0.0054  Rmin=1.0781  Rmax=1.0909     8
 C  C  Rav=1.4210 sigma=0.0567  Rmin=1.3816  Rmax=1.5296     8
 N  H  Rav=1.0336 sigma=0.0108  Rmin=1.0252  Rmax=1.0488     3
 N  C  Rav=1.4935 sigma=0.0000  Rmin=1.4935  Rmax=1.4935     1
 Br C  Rav=1.9024 sigma=0.0000  Rmin=1.9024  Rmax=1.9024     1

 selected bond angles (degree)
 --------------------
H11-N1-C2=112.60               H12-N1-C2=110.77               H12-N1-H11=108.84              H13-N1-C2=105.73               
H13-N1-H11=110.66              H13-N1-H12=108.13              C3-C2-N1=108.15                H14-C2-N1=109.81               
H14-C2-C3=111.70               H15-C2-N1=108.32               H15-C2-C3=109.73               H15-C2-H14=109.06              
C4-C3-C2=109.09                H16-C3-C2=110.17               H16-C3-C4=110.65               H17-C3-C2=108.73               
H17-C3-C4=110.33               H17-C3-H16=107.84              C5-C4-C3=120.59                C10-C4-C3=120.38               
C10-C4-C5=118.92               C6-C5-C4=120.77                H18-C5-C4=119.77               H18-C5-C6=119.44               
C7-C6-C5=119.67                H19-C6-C5=120.39               H19-C6-C7=119.94               Br8-C7-C6=119.91               
C9-C7-C6=120.44                C9-C7-Br8=119.65               C10-C9-C7=119.47               H20-C9-C7=120.07               
H20-C9-C10=120.45              C9-C10-C4=120.72               H21-C10-C4=120.54              H21-C10-C9=118.53              

 selected dihedral angles (degree)
 ---------------------------------
C3-C2-N1-H11=199.56           C3-C2-N1-H12= 77.43           C3-C2-N1-H13=320.52           H14-C2-N1-H11= 77.45          
H14-C2-N1-H12=315.31          H14-C2-N1-H13=198.41          H15-C2-N1-H11=318.44          H15-C2-N1-H12=196.30          
H15-C2-N1-H13= 79.39          C4-C3-C2-N1= 57.52            C4-C3-C2-H14=178.47           C4-C3-C2-H15=299.55           
H16-C3-C2-N1=295.87           H16-C3-C2-H14= 56.82          H16-C3-C2-H15=177.90          H17-C3-C2-N1=177.89           
H17-C3-C2-H14=298.84          H17-C3-C2-H15= 59.92          C5-C4-C3-C2= 87.03            C5-C4-C3-H16=208.38           
C5-C4-C3-H17=327.64           C10-C4-C3-C2=270.94           C10-C4-C3-H16= 32.29          C10-C4-C3-H17=151.55          
C6-C5-C4-C3=183.69            C6-C5-C4-C10=359.84           H18-C5-C4-C3=  4.61           H18-C5-C4-C10=180.76          
C7-C6-C5-C4=  0.46            C7-C6-C5-H18=179.54           H19-C6-C5-C4=180.76           H19-C6-C5-H18=359.85          
Br8-C7-C6-C5=179.33           Br8-C7-C6-H19=359.02          C9-C7-C6-C5=359.11            C9-C7-C6-H19=178.81           
C10-C9-C7-C6=  1.02           C10-C9-C7-Br8=180.80          H20-C9-C7-C6=181.63           H20-C9-C7-Br8=  1.41          
C9-C10-C4-C3=176.45           C9-C10-C4-C5=  0.29           H21-C10-C4-C3=351.14          H21-C10-C4-C5=174.98          
C4-C10-C9-C7=359.28           C4-C10-C9-H20=178.67          H21-C10-C9-C7=184.49          H21-C10-C9-H20=  3.87         
           -------------------------------------------------
          |                Final Singlepoint                |
           -------------------------------------------------

          ...................................................
          :                      SETUP                      :
          :.................................................:
          :  # basis functions                  57          :
          :  # atomic orbitals                  56          :
          :  # shells                           32          :
          :  # electrons                        54          :
          :  max. iterations                   250          :
          :  Hamiltonian                  GFN2-xTB          :
          :  restarted?                      false          :
          :  GBSA solvation                  false          :
          :  PC potential                    false          :
          :  electronic temp.          300.0000000     K    :
          :  accuracy                    1.0000000          :
          :  -> integral cutoff          0.2500000E+02      :
          :  -> integral neglect         0.1000000E-07      :
          :  -> SCF convergence          0.1000000E-05 Eh   :
          :  -> wf. convergence          0.1000000E-03 e    :
          :  Broyden damping             0.4000000          :
          ...................................................

 iter      E             dE          RMSdq      gap      omega  full diag
   1    -29.7324528 -0.297325E+02  0.211E-04    3.50       0.0  T
   2    -29.7324528 -0.622755E-10  0.173E-04    3.50     125.9  T
   3    -29.7324528  0.743583E-11  0.142E-04    3.50     153.8  T

   *** convergence criteria satisfied after 3 iterations ***

         #    Occupation            Energy/Eh            Energy/eV
      -------------------------------------------------------------
         1        2.0000           -0.9333245             -25.3971
       ...           ...                  ...                  ...
        21        2.0000           -0.6137541             -16.7011
        22        2.0000           -0.5704937             -15.5239
        23        2.0000           -0.5674884             -15.4421
        24        2.0000           -0.5648128             -15.3693
        25        2.0000           -0.5530328             -15.0488
        26        2.0000           -0.5090586             -13.8522
        27        2.0000           -0.5051343             -13.7454 (HOMO)
        28                         -0.3765609             -10.2467 (LUMO)
        29                         -0.3735822             -10.1657
        30                         -0.3036023              -8.2614
        31                         -0.2561518              -6.9702
        32                         -0.2503784              -6.8131
       ...                                ...                  ...
        56                          0.5051913              13.7470
      -------------------------------------------------------------
                  HL-Gap            0.1285734 Eh            3.4987 eV
             Fermi-level           -0.4408476 Eh          -11.9961 eV

 SCC (total)                   0 d,  0 h,  0 min,  0.007 sec
 SCC setup                      ...        0 min,  0.000 sec (  0.997%)
 Dispersion                     ...        0 min,  0.000 sec (  1.896%)
 classical contributions        ...        0 min,  0.000 sec (  0.364%)
 integral evaluation            ...        0 min,  0.001 sec ( 11.011%)
 iterations                     ...        0 min,  0.004 sec ( 61.138%)
 molecular gradient             ...        0 min,  0.002 sec ( 21.669%)
 printout                       ...        0 min,  0.000 sec (  1.281%)

         :::::::::::::::::::::::::::::::::::::::::::::::::::::
         ::                     SUMMARY                     ::
         :::::::::::::::::::::::::::::::::::::::::::::::::::::
         :: total energy             -29.297725895683 Eh    ::
         :: gradient norm              0.000355565918 Eh/a0 ::
         :: HOMO-LUMO gap              3.498659654700 eV    ::
         ::.................................................::
         :: SCC energy               -29.732452775718 Eh    ::
         :: -> isotropic ES            0.112688915082 Eh    ::
         :: -> anisotropic ES         -0.014952185718 Eh    ::
         :: -> anisotropic XC          0.019173751042 Eh    ::
         :: -> dispersion             -0.017480734440 Eh    ::
         :: repulsion energy           0.434642518421 Eh    ::
         :: add. restraining           0.000000000000 Eh    ::
         :: total charge               1.000000000000 e     ::
         :::::::::::::::::::::::::::::::::::::::::::::::::::::

           -------------------------------------------------
          |                Property Printout                |
           -------------------------------------------------

    * Orbital Energies and Occupations

         #    Occupation            Energy/Eh            Energy/eV
      -------------------------------------------------------------
         1        2.0000           -0.9333245             -25.3971
       ...           ...                  ...                  ...
        15        2.0000           -0.6598392             -17.9551
        16        2.0000           -0.6506628             -17.7054
        17        2.0000           -0.6365146             -17.3204
        18        2.0000           -0.6263676             -17.0443
        19        2.0000           -0.6229017             -16.9500
        20        2.0000           -0.6173745             -16.7996
        21        2.0000           -0.6137541             -16.7011
        22        2.0000           -0.5704937             -15.5239
        23        2.0000           -0.5674884             -15.4421
        24        2.0000           -0.5648128             -15.3693
        25        2.0000           -0.5530328             -15.0488
        26        2.0000           -0.5090586             -13.8522
        27        2.0000           -0.5051343             -13.7454 (HOMO)
        28                         -0.3765609             -10.2467 (LUMO)
        29                         -0.3735822             -10.1657
        30                         -0.3036023              -8.2614
        31                         -0.2561518              -6.9702
        32                         -0.2503784              -6.8131
        33                         -0.1536524              -4.1811
        34                         -0.0995739              -2.7095
        35                         -0.0918014              -2.4980
        36                         -0.0700849              -1.9071
        37                         -0.0644600              -1.7540
        38                         -0.0565693              -1.5393
       ...                                ...                  ...
        56                          0.5051913              13.7470
      -------------------------------------------------------------
                  HL-Gap            0.1285734 Eh            3.4987 eV
             Fermi-level           -0.4408476 Eh          -11.9961 eV

     #   Z          covCN         q      C6AA      α(0)
     1   7 N        3.483    -0.140    24.011     7.278
     2   6 C        3.734    -0.031    21.213     6.574
     3   6 C        3.809    -0.092    22.255     6.715
     4   6 C        2.970    -0.007    28.188     8.709
     5   6 C        2.923    -0.036    28.892     8.815
     6   6 C        2.985    -0.028    28.687     8.786
     7   6 C        2.913     0.091    25.977     8.358
     8  35 Br       1.060    -0.118   188.291    22.125
     9   6 C        2.987    -0.035    28.866     8.813
    10   6 C        2.923    -0.061    29.528     8.911
    11   1 H        0.859     0.265     0.829     1.426
    12   1 H        0.859     0.266     0.823     1.421
    13   1 H        0.857     0.278     0.783     1.386
    14   1 H        0.925     0.107     1.722     2.052
    15   1 H        0.924     0.106     1.728     2.056
    16   1 H        0.924     0.075     2.036     2.232
    17   1 H        0.925     0.099     1.798     2.097
    18   1 H        0.926     0.062     2.171     2.304
    19   1 H        0.926     0.081     1.972     2.196
    20   1 H        0.926     0.074     2.037     2.232
    21   1 H        0.925     0.044     2.395     2.420

 Mol. C6AA /au·bohr⁶  :       5440.192595
 Mol. C8AA /au·bohr⁸  :     161709.891156
 Mol. α(0) /au        :        116.904659


Wiberg/Mayer (AO) data.
largest (>0.10) Wiberg bond orders for each atom

 ---------------------------------------------------------------------------
     #   Z sym  total        # sym  WBO       # sym  WBO       # sym  WBO
 ---------------------------------------------------------------------------
     1   7 N    3.668 --     2 C    0.933    11 H    0.916    12 H    0.914
                            13 H    0.854
     2   6 C    3.896 --     3 C    0.995    15 H    0.968    14 H    0.967
                             1 N    0.933
     3   6 C    3.979 --     4 C    1.006     2 C    0.995    16 H    0.968
                            17 H    0.959
     4   6 C    3.987 --     5 C    1.401    10 C    1.389     3 C    1.006
     5   6 C    3.990 --     6 C    1.455     4 C    1.401    18 H    0.965
                             9 C    0.107
     6   6 C    3.987 --     5 C    1.455     7 C    1.391    19 H    0.964
                            10 C    0.103
     7   6 C    3.949 --     9 C    1.403     6 C    1.391     8 Br   1.025
     8  35 Br   1.182 --     7 C    1.025
     9   6 C    3.987 --    10 C    1.433     7 C    1.403    20 H    0.965
                             5 C    0.107
    10   6 C    3.990 --     9 C    1.433     4 C    1.389    21 H    0.960
                             6 C    0.103
    11   1 H    0.930 --     1 N    0.916
    12   1 H    0.929 --     1 N    0.914
    13   1 H    0.923 --     1 N    0.854
    14   1 H    0.987 --     2 C    0.967
    15   1 H    0.989 --     2 C    0.968
    16   1 H    0.994 --     3 C    0.968
    17   1 H    0.990 --     3 C    0.959
    18   1 H    0.996 --     5 C    0.965
    19   1 H    0.993 --     6 C    0.964
    20   1 H    0.994 --     9 C    0.965
    21   1 H    0.998 --    10 C    0.960
 ---------------------------------------------------------------------------

Topologies differ in total number of bonds
Writing topology from bond orders to xtbtopo.mol

molecular dipole:
                 x           y           z       tot (Debye)
 q only:        5.485       1.662      -1.388
   full:        5.461       1.540      -1.442      14.880
molecular quadrupole (traceless):
                xx          xy          yy          xz          yz          zz
 q only:       19.437      14.270      -8.852     -11.646       0.395     -10.584
  q+dip:       17.835      14.005      -6.215     -10.048       1.281     -11.620
   full:       17.735      13.653      -8.218     -10.108       0.500      -9.516

           -------------------------------------------------
          |                Geometry Summary                 |
           -------------------------------------------------

      molecular mass/u    :      201.0834664
   center of mass at/Å    :        6.4399953       1.0977338       0.7850866
  moments of inertia/u·Å² :        0.1771044E+03   0.1361494E+04   0.1428449E+04
rotational constants/cm⁻¹ :        0.9518470E-01   0.1238171E-01   0.1180135E-01

 * 20 selected distances

     #   Z          #   Z                                           value/Å
     1   7 N        2   6 C                                       1.4935387
     2   6 C        3   6 C                                       1.5295664
     4   6 C        5   6 C                                       1.3910136
     5   6 C        6   6 C                                       1.3816396
     6   6 C        7   6 C                                       1.3897208
     7   6 C        8  35 Br                                      1.9023817 (max)
     7   6 C        9   6 C                                       1.3871711
     4   6 C       10   6 C                                       1.3957175
     9   6 C       10   6 C                                       1.3856699
     1   7 N       11   1 H                                       1.0251841 (min)
     1   7 N       12   1 H                                       1.0267507
     1   7 N       13   1 H                                       1.0487845
     2   6 C       14   1 H                                       1.0895448
     2   6 C       15   1 H                                       1.0907665
     3   6 C       16   1 H                                       1.0909054
     3   6 C       17   1 H                                       1.0888670
     5   6 C       18   1 H                                       1.0792370
     6   6 C       19   1 H                                       1.0780885
     9   6 C       20   1 H                                       1.0781166
    10   6 C       21   1 H                                       1.0826607

 * 5 distinct bonds (by element types)

   Z      Z             #   av. dist./Å        max./Å        min./Å
   1 H    6 C           8     1.0847733     1.0909054     1.0780885
   6 C    6 C           7     1.4086427     1.5295664     1.3816396
   1 H    7 N           3     1.0335731     1.0487845     1.0251841
   6 C    7 N           1     1.4935387     1.4935387     1.4935387
   6 C   35 Br          1     1.9023817     1.9023817     1.9023817


optimized geometry written to: xtbopt.xyz


           -------------------------------------------------
          | TOTAL ENERGY              -29.297725895683 Eh   |
          | GRADIENT NORM               0.000355565918 Eh/α |
          | HOMO-LUMO GAP               3.498659654700 eV   |
           -------------------------------------------------

------------------------------------------------------------------------
 * finished run on 2023/01/23 at 13:55:38.646     
------------------------------------------------------------------------
 total:
 * wall-time:     0 d,  0 h,  0 min,  0.449 sec
 *  cpu-time:     0 d,  0 h,  0 min, 40.805 sec
 * ratio c/w:    90.784 speedup
 SCF:
 * wall-time:     0 d,  0 h,  0 min,  0.036 sec
 *  cpu-time:     0 d,  0 h,  0 min,  5.005 sec
 * ratio c/w:   139.904 speedup
 ANC optimizer:
 * wall-time:     0 d,  0 h,  0 min,  0.394 sec
 *  cpu-time:     0 d,  0 h,  0 min, 33.369 sec
 * ratio c/w:    84.613 speedup

