19
 energy: -24.348942764894 gnorm: 0.000735769092 xtb: 6.5.1 (fef0646)
N            1.91420871253282       -0.04178058955071        0.18168781746230
C            0.71445755802099        0.09253940260038       -0.67816698841367
C           -0.13138856979171       -1.18619268130240       -0.61552223455050
C           -1.26222365284039       -0.84926024512696        0.35405830364212
C           -1.57695285960092        0.60031747103701        0.00202976421029
C           -0.18650796779338        1.22109050674645       -0.14710095571470
Cl           1.42064338883901       -0.59505291750928        3.14928214538282
H            2.51897832916267       -0.80258158550628       -0.13726472202285
H            1.64523159574647       -0.25723267733136        1.17750635196038
H            2.45072037654072        0.82904736339960        0.20632577853258
H            1.05202633741443        0.29248976922685       -1.69661045231558
H            0.44761786657029       -2.04213210540832       -0.27847154796024
H           -0.54603380102075       -1.40990884459844       -1.59733613088376
H           -0.89994190767318       -0.91058444585787        1.38152039339444
H           -2.12075704669556       -1.50940432886334        0.25028625331798
H           -2.17147602455403        1.09907581268922        0.76450367570574
H           -2.12008539204419        0.64189108600401       -0.94297740264164
H            0.16651853646258        1.52152001286461        0.83903186991406
H           -0.19539547927606        2.09245899648663       -0.79700191901968
