27
 energy: -35.933210839182 gnorm: 0.000959662941 xtb: 6.5.1 (fef0646)
N            0.93555871654463        0.26621515337214       -0.09832672151352
C            2.41325739166930        0.07186727690450        0.02793941168328
C            2.87687687932122       -1.08834505224484       -0.85318153778400
C            2.33065039838224       -2.43046588005736       -0.35971760495793
C            2.79126498256041       -3.55813638203589       -1.28006325865783
C            4.31528170418269       -3.62361243118773       -1.38211927856910
C            4.69611028254181       -4.62770883448820       -2.47573534994490
O            5.85051087944071       -5.27362604574798       -2.30397371913306
O            4.02404112853547       -4.79374265180467       -3.44986156930679
C            4.88098797810332       -2.26011743101010       -1.80388134784086
C            4.40761650162347       -1.14845454129733       -0.87080742111930
H            0.58486836955211        0.97326848567304        0.55781144190136
H            0.47531770739304       -0.63640327794145        0.09106274334015
H            0.69895834894644        0.55264364955154       -1.05679057917153
H            2.64466571495111       -0.13516220200445        1.07406522533456
H            2.91163683216178        0.99745490735300       -0.26343627834617
H            2.53414833537166       -0.91739390104248       -1.87953882883342
H            1.23597534184453       -2.44100687448547       -0.33746599566477
H            2.69156440435746       -2.61836356341046        0.65400538688299
H            2.38952396922914       -3.41282877522206       -2.28424206099404
H            2.41054148495780       -4.51087282516094       -0.91085287778510
H            4.74283056079708       -3.92148414932624       -0.41860008486657
H            6.30520076216005       -5.06800849048082       -1.47647706634955
H            4.55225349497020       -2.04724267421630       -2.82306675180270
H            5.97150482281667       -2.28924739227138       -1.80668068783339
H            4.81757552863425       -0.19665071717007       -1.21104291183889
H            4.77601747895218       -1.33307538024686        0.13994772317044
