      -----------------------------------------------------------      
     |                   =====================                   |     
     |                           x T B                           |     
     |                   =====================                   |     
     |                         S. Grimme                         |     
     |          Mulliken Center for Theoretical Chemistry        |     
     |                    University of Bonn                     |     
      -----------------------------------------------------------      

   * xtb version 6.5.1 (fef0646) compiled by 'conda@b96dff2e9fd6' on 2023-01-04

   xtb is free software: you can redistribute it and/or modify it under
   the terms of the GNU Lesser General Public License as published by
   the Free Software Foundation, either version 3 of the License, or
   (at your option) any later version.
   
   xtb is distributed in the hope that it will be useful,
   but WITHOUT ANY WARRANTY; without even the implied warranty of
   MERCHANTABILITY or FITNESS FOR A PARTICULAR PURPOSE.  See the
   GNU Lesser General Public License for more details.
   
   Cite this work as:
   * C. Bannwarth, E. Caldeweyher, S. Ehlert, A. Hansen, P. Pracht,
     J. Seibert, S. Spicher, S. Grimme, WIREs Comput. Mol. Sci., 2020, 11,
     e01493. DOI: 10.1002/wcms.1493
   
   for GFN2-xTB:
   * C. Bannwarth, S. Ehlert and S. Grimme., J. Chem. Theory Comput., 2019,
     15, 1652-1671. DOI: 10.1021/acs.jctc.8b01176
   for GFN1-xTB:
   * S. Grimme, C. Bannwarth, P. Shushkov, J. Chem. Theory Comput., 2017,
     13, 1989-2009. DOI: 10.1021/acs.jctc.7b00118
   for GFN0-xTB:
   * P. Pracht, E. Caldeweyher, S. Ehlert, S. Grimme, ChemRxiv, 2019, preprint.
     DOI: 10.26434/chemrxiv.8326202.v1
   for GFN-FF:
   * S. Spicher and S. Grimme, Angew. Chem. Int. Ed., 2020, 59, 15665-15673.
     DOI: 10.1002/anie.202004239
   
   for ALPB and GBSA implicit solvation:
   * S. Ehlert, M. Stahn, S. Spicher, S. Grimme, J. Chem. Theory Comput.,
     2021, 17, 4250-4261. DOI: 10.1021/acs.jctc.1c00471
   
   for DFT-D4:
   * E. Caldeweyher, C. Bannwarth and S. Grimme, J. Chem. Phys., 2017,
     147, 034112. DOI: 10.1063/1.4993215
   * E. Caldeweyher, S. Ehlert, A. Hansen, H. Neugebauer, S. Spicher,
     C. Bannwarth and S. Grimme, J. Chem. Phys., 2019, 150, 154122.
     DOI: 10.1063/1.5090222
   * E. Caldeweyher, J.-M. Mewes, S. Ehlert and S. Grimme, Phys. Chem. Chem. Phys.
     2020, 22, 8499-8512. DOI: 10.1039/D0CP00502A
   
   for sTDA-xTB:
   * S. Grimme and C. Bannwarth, J. Chem. Phys., 2016, 145, 054103.
     DOI: 10.1063/1.4959605
   
   in the mass-spec context:
   * V. Asgeirsson, C. Bauer and S. Grimme, Chem. Sci., 2017, 8, 4879.
     DOI: 10.1039/c7sc00601b
   * J. Koopman and S. Grimme, ACS Omega 2019, 4, 12, 15120-15133.
     DOI: 10.1021/acsomega.9b02011
   
   for metadynamics refer to:
   * S. Grimme, J. Chem. Theory Comput., 2019, 155, 2847-2862
     DOI: 10.1021/acs.jctc.9b00143
   
   for SPH calculations refer to:
   * S. Spicher and S. Grimme, J. Chem. Theory Comput., 2021, 17, 1701-1714
     DOI: 10.1021/acs.jctc.0c01306
   
   with help from (in alphabetical order)
   P. Atkinson, C. Bannwarth, F. Bohle, G. Brandenburg, E. Caldeweyher
   M. Checinski, S. Dohm, S. Ehlert, S. Ehrlich, I. Gerasimov, C. Hölzer
   A. Katbashev, J. Koopman, C. Lavigne, S. Lehtola, F. März, M. Müller,
   F. Musil, H. Neugebauer, J. Pisarek, C. Plett, P. Pracht, F. Pultar,
   J. Seibert, P. Shushkov, S. Spicher, M. Stahn, M. Steiner, T. Strunk,
   J. Stückrath, T. Rose, and J. Unsleber
   
 * started run on 2023/01/23 at 18:52:50.383     

           -------------------------------------------------
          |                Calculation Setup                |
           -------------------------------------------------

          program call               : xtb init.xyz --opt -c 0 -u 0 -P 16 --input xtb.inp
          hostname                   : gpg-woodward
          coordinate file            : init.xyz
          omp threads                :                    16

   ID    Z sym.   atoms
    1    7 N      1
    2    6 C      2-6
    3   16 S      7
    4   17 Cl     8
    5    1 H      9-16

molecular fragmentation (1/2 indicates fragments):
1111111211111111
# atoms in fragment 1/2:    15     1
 fragment masses (1/2) :      114.19       35.45
CMA distance (Bohr)    :   8.788
constraining FC (au)   :  0.0500

           -------------------------------------------------
          |                 G F N 2 - x T B                 |
           -------------------------------------------------

        Reference                      10.1021/acs.jctc.8b01176
      * Hamiltonian:
        H0-scaling (s, p, d)           1.850000    2.230000    2.230000
        zeta-weighting                 0.500000
      * Dispersion:
        s8                             2.700000
        a1                             0.520000
        a2                             5.000000
        s9                             5.000000
      * Repulsion:
        kExp                           1.500000    1.000000
        rExp                           1.000000
      * Coulomb:
        alpha                          2.000000
        third order                    shell-resolved
        anisotropic                    true
        a3                             3.000000
        a5                             4.000000
        cn-shift                       1.200000
        cn-exp                         4.000000
        max-rad                        5.000000


          ...................................................
          :                      SETUP                      :
          :.................................................:
          :  # basis functions                  52          :
          :  # atomic orbitals                  50          :
          :  # shells                           26          :
          :  # electrons                        46          :
          :  max. iterations                   250          :
          :  Hamiltonian                  GFN2-xTB          :
          :  restarted?                      false          :
          :  GBSA solvation                  false          :
          :  PC potential                    false          :
          :  electronic temp.          300.0000000     K    :
          :  accuracy                    1.0000000          :
          :  -> integral cutoff          0.2500000E+02      :
          :  -> integral neglect         0.1000000E-07      :
          :  -> SCF convergence          0.1000000E-05 Eh   :
          :  -> wf. convergence          0.1000000E-03 e    :
          :  Broyden damping             0.4000000          :
          ...................................................

 iter      E             dE          RMSdq      gap      omega  full diag
   1    -25.6167798 -0.256168E+02  0.468E+00    3.83       0.0  T
   2    -25.7301817 -0.113402E+00  0.276E+00    3.04       1.0  T
   3    -25.7322150 -0.203327E-02  0.150E+00    2.32       1.0  T
   4    -25.7311300  0.108498E-02  0.112E+00    1.83       1.0  T
   5    -25.7402477 -0.911765E-02  0.364E-01    1.65       1.0  T
   6    -25.7404229 -0.175232E-03  0.290E-01    1.69       1.0  T
   7    -25.7409479 -0.524991E-03  0.159E-01    1.71       1.0  T
   8    -25.7410967 -0.148834E-03  0.624E-02    1.70       1.0  T
   9    -25.7411174 -0.207143E-04  0.202E-02    1.71       1.2  T
  10    -25.7411183 -0.905477E-06  0.859E-03    1.71       2.9  T
  11    -25.7411186 -0.259559E-06  0.376E-03    1.71       6.6  T
  12    -25.7411187 -0.453965E-07  0.160E-03    1.71      15.6  T
  13    -25.7411187 -0.683644E-08  0.571E-04    1.71      43.8  T
  14    -25.7411187 -0.691287E-09  0.272E-04    1.71      91.8  T

   *** convergence criteria satisfied after 14 iterations ***

         #    Occupation            Energy/Eh            Energy/eV
      -------------------------------------------------------------
         1        2.0000           -0.9502803             -25.8584
       ...           ...                  ...                  ...
        17        2.0000           -0.4810379             -13.0897
        18        2.0000           -0.4758646             -12.9489
        19        2.0000           -0.4242257             -11.5438
        20        2.0000           -0.4191096             -11.4046
        21        2.0000           -0.3503168              -9.5326
        22        2.0000           -0.3401771              -9.2567
        23        2.0000           -0.3397773              -9.2458 (HOMO)
        24                         -0.2770878              -7.5399 (LUMO)
        25                         -0.2291968              -6.2368
        26                         -0.2028573              -5.5200
        27                         -0.1450644              -3.9474
        28                         -0.0650306              -1.7696
       ...                                ...                  ...
        50                          0.6505082              17.7012
      -------------------------------------------------------------
                  HL-Gap            0.0626895 Eh            1.7059 eV
             Fermi-level           -0.3081617 Eh           -8.3855 eV

 SCC (total)                   0 d,  0 h,  0 min,  0.044 sec
 SCC setup                      ...        0 min,  0.000 sec (  0.941%)
 Dispersion                     ...        0 min,  0.000 sec (  1.022%)
 classical contributions        ...        0 min,  0.000 sec (  0.357%)
 integral evaluation            ...        0 min,  0.003 sec (  7.333%)
 iterations                     ...        0 min,  0.035 sec ( 79.724%)
 molecular gradient             ...        0 min,  0.004 sec (  9.901%)
 printout                       ...        0 min,  0.000 sec (  0.404%)

         :::::::::::::::::::::::::::::::::::::::::::::::::::::
         ::                     SUMMARY                     ::
         :::::::::::::::::::::::::::::::::::::::::::::::::::::
         :: total energy             -25.450465946061 Eh    ::
         :: gradient norm              0.060895782561 Eh/a0 ::
         :: HOMO-LUMO gap              1.705867984099 eV    ::
         ::.................................................::
         :: SCC energy               -25.741118661193 Eh    ::
         :: -> isotropic ES            0.090548776515 Eh    ::
         :: -> anisotropic ES         -0.023087177026 Eh    ::
         :: -> anisotropic XC          0.002665480762 Eh    ::
         :: -> dispersion             -0.012625920120 Eh    ::
         :: repulsion energy           0.290610798422 Eh    ::
         :: add. restraining           0.000000000000 Eh    ::
         :: total charge               0.000000000000 e     ::
         :::::::::::::::::::::::::::::::::::::::::::::::::::::

      ----------------------------------------------------------- 
     |                   =====================                   |
     |                        A N C O P T                        |
     |                   =====================                   |
     |               Approximate Normal Coordinate               |
     |                Rational Function Optimizer                |
      ----------------------------------------------------------- 

          ...................................................
          :                      SETUP                      :
          :.................................................:
          :   optimization level            normal          :
          :   max. optcycles                   200          :
          :   ANC micro-cycles                  20          :
          :   degrees of freedom                42          :
          :.................................................:
          :   RF solver                   davidson          :
          :   write xtbopt.log                true          :
          :   linear?                        false          :
          :   energy convergence         0.5000000E-05 Eh   :
          :   grad. convergence          0.1000000E-02 Eh/α :
          :   maximium RF displ.         1.0000000          :
          :   Hlow (freq-cutoff)         0.1000000E-01      :
          :   Hmax (freq-cutoff)         5.0000000          :
          :   S6 in model hess.         20.0000000          :
          ...................................................

generating ANC from model Hessian ...
Using Lindh-Hessian (1995)
 Shifting diagonal of input Hessian by    9.5688775562299874E-003
 Lowest  eigenvalues of input Hessian
    0.000000    0.000000    0.000000    0.000000    0.000000    0.000000
    0.010000    0.010696    0.013246    0.014273    0.021800    0.024998
    0.029418    0.036560    0.048592    0.052106    0.058666    0.073206
 Highest eigenvalues
    1.460273    1.534312    1.594127    1.625303    1.808148    1.816783


........................................................................
.............................. CYCLE    1 ..............................
........................................................................
   1    -25.7411187 -0.257411E+02  0.166E-04    1.71       0.0  T
   2    -25.7411187 -0.564420E-10  0.125E-04    1.71     199.3  T
   3    -25.7411187 -0.236788E-10  0.101E-04    1.71     246.6  T
     SCC iter.                  ...        0 min,  0.008 sec
     gradient                   ...        0 min,  0.004 sec
 * total energy  :   -25.4504659 Eh     change       -0.3229239E-09 Eh
   gradient norm :     0.0608935 Eh/α   predicted     0.0000000E+00 (-100.00%)
   displ. norm   :     0.2777313 α      lambda       -0.1055397E-01
   maximum displ.:     0.1508956 α      in ANC's #9, #14, #25, ...

........................................................................
.............................. CYCLE    2 ..............................
........................................................................
   1    -25.7544032 -0.257544E+02  0.337E-01    1.93       0.0  T
   2    -25.7546802 -0.277027E-03  0.203E-01    2.01       1.0  T
   3    -25.7546898 -0.957253E-05  0.886E-02    2.09       1.0  T
   4    -25.7546973 -0.756205E-05  0.524E-02    2.13       1.0  T
   5    -25.7547196 -0.222604E-04  0.277E-02    2.13       1.0  T
   6    -25.7547218 -0.226501E-05  0.199E-02    2.13       1.3  T
   7    -25.7547240 -0.210989E-05  0.106E-02    2.13       2.4  T
   8    -25.7547245 -0.554790E-06  0.542E-03    2.13       4.6  T
   9    -25.7547247 -0.214204E-06  0.201E-03    2.13      12.4  T
  10    -25.7547248 -0.342261E-07  0.774E-04    2.13      32.3  T
  11    -25.7547248 -0.231012E-08  0.211E-04    2.13     118.3  T
     SCC iter.                  ...        0 min,  0.034 sec
     gradient                   ...        0 min,  0.003 sec
 * total energy  :   -25.4577391 Eh     change       -0.7273135E-02 Eh
   gradient norm :     0.0442256 Eh/α   predicted    -0.5684018E-02 ( -21.85%)
   displ. norm   :     0.4373913 α      lambda       -0.8519785E-02
   maximum displ.:     0.2418541 α      in ANC's #2, #5, #8, ...

........................................................................
.............................. CYCLE    3 ..............................
........................................................................
   1    -25.7647207 -0.257647E+02  0.351E-01    2.21       0.0  T
   2    -25.7650571 -0.336392E-03  0.218E-01    2.28       1.0  T
   3    -25.7650595 -0.241481E-05  0.114E-01    2.36       1.0  T
   4    -25.7651053 -0.458129E-04  0.637E-02    2.41       1.0  T
   5    -25.7651339 -0.285254E-04  0.327E-02    2.42       1.0  T
   6    -25.7651361 -0.226267E-05  0.249E-02    2.41       1.0  T
   7    -25.7651390 -0.290117E-05  0.160E-02    2.42       1.6  T
   8    -25.7651406 -0.154959E-05  0.765E-03    2.41       3.3  T
   9    -25.7651409 -0.330027E-06  0.207E-03    2.41      12.1  T
  10    -25.7651409 -0.192839E-07  0.118E-03    2.41      21.1  T
  11    -25.7651409 -0.526975E-08  0.735E-04    2.41      34.0  T
  12    -25.7651409 -0.215864E-08  0.483E-04    2.41      51.8  T
     SCC iter.                  ...        0 min,  0.018 sec
     gradient                   ...        0 min,  0.004 sec
 * total energy  :   -25.4634231 Eh     change       -0.5684032E-02 Eh
   gradient norm :     0.0378600 Eh/α   predicted    -0.5074865E-02 ( -10.72%)
   displ. norm   :     0.3173350 α      lambda       -0.4121624E-02
   maximum displ.:     0.1711841 α      in ANC's #2, #5, #25, ...

........................................................................
.............................. CYCLE    4 ..............................
........................................................................
   1    -25.7635967 -0.257636E+02  0.313E-01    2.49       0.0  T
   2    -25.7639554 -0.358728E-03  0.187E-01    2.61       1.0  T
   3    -25.7639723 -0.169481E-04  0.102E-01    2.71       1.0  T
   4    -25.7640018 -0.294706E-04  0.673E-02    2.76       1.0  T
   5    -25.7640303 -0.285058E-04  0.415E-02    2.78       1.0  T
   6    -25.7640347 -0.436016E-05  0.319E-02    2.77       1.0  T
   7    -25.7640412 -0.655002E-05  0.166E-02    2.77       1.5  T
   8    -25.7640433 -0.212252E-05  0.744E-03    2.77       3.4  T
   9    -25.7640437 -0.340215E-06  0.243E-03    2.77      10.3  T
  10    -25.7640437 -0.190500E-07  0.160E-03    2.77      15.7  T
  11    -25.7640437 -0.104816E-07  0.103E-03    2.77      24.2  T
  12    -25.7640437 -0.578275E-08  0.384E-04    2.77      65.1  T
  13    -25.7640437 -0.742034E-09  0.178E-04    2.77     140.4  T
     SCC iter.                  ...        0 min,  0.025 sec
     gradient                   ...        0 min,  0.002 sec
 * total energy  :   -25.4665202 Eh     change       -0.3097040E-02 Eh
   gradient norm :     0.0367088 Eh/α   predicted    -0.2268335E-02 ( -26.76%)
   displ. norm   :     0.2925967 α      lambda       -0.3799694E-02
   maximum displ.:     0.1544921 α      in ANC's #2, #5, #25, ...

........................................................................
.............................. CYCLE    5 ..............................
........................................................................
   1    -25.7623415 -0.257623E+02  0.338E-01    2.83       0.0  T
   2    -25.7627437 -0.402232E-03  0.195E-01    2.99       1.0  T
   3    -25.7627559 -0.121851E-04  0.101E-01    3.11       1.0  T
   4    -25.7627834 -0.275200E-04  0.676E-02    3.17       1.0  T
   5    -25.7628161 -0.326954E-04  0.383E-02    3.18       1.0  T
   6    -25.7628198 -0.366469E-05  0.302E-02    3.18       1.0  T
   7    -25.7628260 -0.621306E-05  0.165E-02    3.18       1.5  T
   8    -25.7628281 -0.212220E-05  0.834E-03    3.18       3.0  T
   9    -25.7628286 -0.509586E-06  0.276E-03    3.18       9.1  T
  10    -25.7628287 -0.280525E-07  0.161E-03    3.18      15.5  T
  11    -25.7628287 -0.915392E-08  0.119E-03    3.18      21.0  T
  12    -25.7628287 -0.839206E-08  0.376E-04    3.18      66.4  T
  13    -25.7628287 -0.535799E-09  0.188E-04    3.18     132.8  T
     SCC iter.                  ...        0 min,  0.025 sec
     gradient                   ...        0 min,  0.002 sec
 * total energy  :   -25.4693344 Eh     change       -0.2814286E-02 Eh
   gradient norm :     0.0262991 Eh/α   predicted    -0.2062499E-02 ( -26.71%)
   displ. norm   :     0.2695287 α      lambda       -0.2826971E-02
   maximum displ.:     0.1107555 α      in ANC's #5, #35, #24, ...

........................................................................
.............................. CYCLE    6 ..............................
........................................................................
   1    -25.7634376 -0.257634E+02  0.316E-01    3.25       0.0  T
   2    -25.7638208 -0.383233E-03  0.180E-01    3.42       1.0  T
   3    -25.7638482 -0.273290E-04  0.892E-02    3.56       1.0  T
   4    -25.7638481  0.622458E-07  0.669E-02    3.62       1.0  T
   5    -25.7638835 -0.353977E-04  0.378E-02    3.63       1.0  T
   6    -25.7638882 -0.465959E-05  0.288E-02    3.63       1.0  T
   7    -25.7638946 -0.646875E-05  0.165E-02    3.63       1.5  T
   8    -25.7638970 -0.232085E-05  0.858E-03    3.63       2.9  T
   9    -25.7638976 -0.630961E-06  0.249E-03    3.63      10.0  T
  10    -25.7638976 -0.217843E-07  0.123E-03    3.63      20.3  T
  11    -25.7638976 -0.413050E-08  0.850E-04    3.63      29.4  T
  12    -25.7638976 -0.370566E-08  0.365E-04    3.63      68.4  T
     SCC iter.                  ...        0 min,  0.012 sec
     gradient                   ...        0 min,  0.003 sec
 * total energy  :   -25.4711555 Eh     change       -0.1821059E-02 Eh
   gradient norm :     0.0176331 Eh/α   predicted    -0.1516170E-02 ( -16.74%)
   displ. norm   :     0.2085626 α      lambda       -0.1527858E-02
   maximum displ.:     0.1171849 α      in ANC's #2, #5, #1, ...

........................................................................
.............................. CYCLE    7 ..............................
........................................................................
   1    -25.7637831 -0.257638E+02  0.160E-01    3.63       0.0  T
   2    -25.7638275 -0.443500E-04  0.911E-02    3.67       1.0  T
   3    -25.7638322 -0.470991E-05  0.315E-02    3.70       1.0  T
   4    -25.7638317  0.535854E-06  0.205E-02    3.71       1.2  T
   5    -25.7638351 -0.342489E-05  0.116E-02    3.71       2.1  T
   6    -25.7638357 -0.594672E-06  0.840E-03    3.71       3.0  T
   7    -25.7638360 -0.330581E-06  0.648E-03    3.71       3.9  T
   8    -25.7638363 -0.334879E-06  0.292E-03    3.71       8.6  T
   9    -25.7638364 -0.904092E-07  0.100E-03    3.71      24.9  T
  10    -25.7638364 -0.424690E-08  0.693E-04    3.71      36.1  T
  11    -25.7638364 -0.228341E-08  0.392E-04    3.71      63.7  T
     SCC iter.                  ...        0 min,  0.011 sec
     gradient                   ...        0 min,  0.002 sec
 * total energy  :   -25.4718097 Eh     change       -0.6541567E-03 Eh
   gradient norm :     0.0130119 Eh/α   predicted    -0.7971609E-03 (  21.86%)
   displ. norm   :     0.1584219 α      lambda       -0.1049761E-02
   maximum displ.:     0.0742743 α      in ANC's #2, #4, #3, ...

........................................................................
.............................. CYCLE    8 ..............................
........................................................................
   1    -25.7672477 -0.257672E+02  0.165E-01    3.76       0.0  T
   2    -25.7673046 -0.568264E-04  0.955E-02    3.83       1.0  T
   3    -25.7673112 -0.660939E-05  0.453E-02    3.88       1.0  T
   4    -25.7673141 -0.293278E-05  0.301E-02    3.89       1.0  T
   5    -25.7673199 -0.574811E-05  0.211E-02    3.89       1.2  T
   6    -25.7673219 -0.202216E-05  0.135E-02    3.89       1.9  T
   7    -25.7673233 -0.140143E-05  0.715E-03    3.89       3.5  T
   8    -25.7673237 -0.392292E-06  0.393E-03    3.89       6.4  T
   9    -25.7673238 -0.103325E-06  0.212E-03    3.89      11.8  T
  10    -25.7673238 -0.198997E-07  0.159E-03    3.89      15.7  T
  11    -25.7673238 -0.166383E-07  0.787E-04    3.89      31.8  T
  12    -25.7673238 -0.360135E-08  0.234E-04    3.89     106.9  T
     SCC iter.                  ...        0 min,  0.012 sec
     gradient                   ...        0 min,  0.003 sec
 * total energy  :   -25.4723270 Eh     change       -0.5173331E-03 Eh
   gradient norm :     0.0070001 Eh/α   predicted    -0.5380550E-03 (   4.01%)
   displ. norm   :     0.0822598 α      lambda       -0.2284638E-03
   maximum displ.:     0.0532567 α      in ANC's #5, #9, #12, ...

........................................................................
.............................. CYCLE    9 ..............................
........................................................................
   1    -25.7681599 -0.257682E+02  0.708E-02    3.89       0.0  T
   2    -25.7681659 -0.599347E-05  0.426E-02    3.88       1.0  T
   3    -25.7681666 -0.703431E-06  0.181E-02    3.85       1.4  T
   4    -25.7681678 -0.123939E-05  0.126E-02    3.85       2.0  T
   5    -25.7681686 -0.799336E-06  0.930E-03    3.85       2.7  T
   6    -25.7681690 -0.406834E-06  0.582E-03    3.85       4.3  T
   7    -25.7681693 -0.244436E-06  0.288E-03    3.85       8.7  T
   8    -25.7681693 -0.750117E-07  0.150E-03    3.85      16.7  T
   9    -25.7681694 -0.129050E-07  0.937E-04    3.85      26.7  T
  10    -25.7681694 -0.362382E-08  0.713E-04    3.85      35.1  T
     SCC iter.                  ...        0 min,  0.010 sec
     gradient                   ...        0 min,  0.002 sec
 * total energy  :   -25.4724694 Eh     change       -0.1424507E-03 Eh
   gradient norm :     0.0039996 Eh/α   predicted    -0.1150045E-03 ( -19.27%)
   displ. norm   :     0.0572836 α      lambda       -0.7469585E-04
   maximum displ.:     0.0410321 α      in ANC's #5, #2, #8, ...

........................................................................
.............................. CYCLE   10 ..............................
........................................................................
   1    -25.7683889 -0.257684E+02  0.259E-02    3.85       0.0  T
   2    -25.7683891 -0.230053E-06  0.152E-02    3.85       1.6  T
   3    -25.7683891  0.237381E-07  0.458E-03    3.85       5.5  T
   4    -25.7683892 -0.115871E-06  0.295E-03    3.85       8.5  T
   5    -25.7683893 -0.403304E-07  0.210E-03    3.85      11.9  T
   6    -25.7683893 -0.176105E-07  0.120E-03    3.85      20.8  T
   7    -25.7683893 -0.769947E-08  0.573E-04    3.85      43.6  T
   8    -25.7683893 -0.209280E-08  0.288E-04    3.85      86.7  T
     SCC iter.                  ...        0 min,  0.008 sec
     gradient                   ...        0 min,  0.002 sec
 * total energy  :   -25.4725288 Eh     change       -0.5934578E-04 Eh
   gradient norm :     0.0023834 Eh/α   predicted    -0.3746915E-04 ( -36.86%)
   displ. norm   :     0.1818526 α      lambda       -0.1635764E-03
   maximum displ.:     0.1175995 α      in ANC's #2, #5, #8, ...

........................................................................
.............................. CYCLE   11 ..............................
........................................................................
   1    -25.7685324 -0.257685E+02  0.476E-02    3.85       0.0  T
   2    -25.7685328 -0.408068E-06  0.281E-02    3.85       1.0  T
   3    -25.7685305  0.235054E-05  0.148E-02    3.86       1.7  T
   4    -25.7685333 -0.281176E-05  0.248E-03    3.86      10.1  T
   5    -25.7685333 -0.321573E-08  0.182E-03    3.86      13.7  T
   6    -25.7685333 -0.182849E-07  0.854E-04    3.86      29.3  T
   7    -25.7685333 -0.274370E-08  0.592E-04    3.86      42.2  T
     SCC iter.                  ...        0 min,  0.007 sec
     gradient                   ...        0 min,  0.003 sec
 * total energy  :   -25.4726540 Eh     change       -0.1251754E-03 Eh
   gradient norm :     0.0042130 Eh/α   predicted    -0.8449447E-04 ( -32.50%)
   displ. norm   :     0.3256637 α      lambda       -0.2273626E-03
   maximum displ.:     0.2404638 α      in ANC's #2, #5, #8, ...

........................................................................
.............................. CYCLE   12 ..............................
........................................................................
   1    -25.7676914 -0.257677E+02  0.823E-02    3.87       0.0  T
   2    -25.7676937 -0.221718E-05  0.495E-02    3.88       1.0  T
   3    -25.7676868  0.680677E-05  0.271E-02    3.89       1.0  T
   4    -25.7676957 -0.887458E-05  0.706E-03    3.90       3.5  T
   5    -25.7676958 -0.653533E-07  0.559E-03    3.90       4.5  T
   6    -25.7676959 -0.133921E-06  0.363E-03    3.90       6.9  T
   7    -25.7676960 -0.668952E-07  0.221E-03    3.90      11.3  T
   8    -25.7676960 -0.307117E-07  0.961E-04    3.90      26.0  T
   9    -25.7676960 -0.472052E-08  0.454E-04    3.90      55.1  T
     SCC iter.                  ...        0 min,  0.009 sec
     gradient                   ...        0 min,  0.002 sec
 * total energy  :   -25.4728161 Eh     change       -0.1621553E-03 Eh
   gradient norm :     0.0084852 Eh/α   predicted    -0.1257376E-03 ( -22.46%)
   displ. norm   :     0.3040582 α      lambda       -0.2158977E-03
   maximum displ.:     0.2405955 α      in ANC's #2, #5, #8, ...

........................................................................
.............................. CYCLE   13 ..............................
........................................................................
   1    -25.7669775 -0.257670E+02  0.919E-02    3.91       0.0  T
   2    -25.7669810 -0.347212E-05  0.556E-02    3.92       1.0  T
   3    -25.7669753  0.565605E-05  0.273E-02    3.92       1.0  T
   4    -25.7669836 -0.827227E-05  0.106E-02    3.92       2.4  T
   5    -25.7669838 -0.248607E-06  0.818E-03    3.92       3.1  T
   6    -25.7669840 -0.198226E-06  0.574E-03    3.92       4.4  T
   7    -25.7669842 -0.208643E-06  0.254E-03    3.92       9.9  T
   8    -25.7669843 -0.326486E-07  0.102E-03    3.92      24.6  T
   9    -25.7669843 -0.377823E-08  0.439E-04    3.92      57.0  T
  10    -25.7669843 -0.574019E-09  0.277E-04    3.92      90.4  T
     SCC iter.                  ...        0 min,  0.010 sec
     gradient                   ...        0 min,  0.002 sec
 * total energy  :   -25.4729783 Eh     change       -0.1621494E-03 Eh
   gradient norm :     0.0091364 Eh/α   predicted    -0.1179293E-03 ( -27.27%)
   displ. norm   :     0.2649106 α      lambda       -0.2915223E-03
   maximum displ.:     0.2181866 α      in ANC's #2, #3, #5, ...

........................................................................
.............................. CYCLE   14 ..............................
........................................................................
   1    -25.7675924 -0.257676E+02  0.115E-01    3.93       0.0  T
   2    -25.7675963 -0.393506E-05  0.690E-02    3.93       1.0  T
   3    -25.7675943  0.197997E-05  0.245E-02    3.93       1.0  T
   4    -25.7675996 -0.523987E-05  0.143E-02    3.93       1.7  T
   5    -25.7676002 -0.632294E-06  0.106E-02    3.93       2.4  T
   6    -25.7676005 -0.319700E-06  0.636E-03    3.93       3.9  T
   7    -25.7676009 -0.331882E-06  0.224E-03    3.93      11.2  T
   8    -25.7676009 -0.233104E-07  0.868E-04    3.93      28.8  T
   9    -25.7676009 -0.160906E-08  0.283E-04    3.93      88.3  T
     SCC iter.                  ...        0 min,  0.009 sec
     gradient                   ...        0 min,  0.002 sec
 * total energy  :   -25.4731573 Eh     change       -0.1789996E-03 Eh
   gradient norm :     0.0033727 Eh/α   predicted    -0.1559912E-03 ( -12.85%)
   displ. norm   :     0.1448090 α      lambda       -0.7125772E-04
   maximum displ.:     0.1005531 α      in ANC's #2, #5, #8, ...

........................................................................
.............................. CYCLE   15 ..............................
........................................................................
   1    -25.7677526 -0.257678E+02  0.485E-02    3.93       0.0  T
   2    -25.7677532 -0.638917E-06  0.293E-02    3.93       1.0  T
   3    -25.7677534 -0.192769E-06  0.692E-03    3.93       3.6  T
   4    -25.7677536 -0.190525E-06  0.523E-03    3.93       4.8  T
   5    -25.7677537 -0.100954E-06  0.371E-03    3.93       6.7  T
   6    -25.7677538 -0.512873E-07  0.200E-03    3.93      12.5  T
   7    -25.7677538 -0.241143E-07  0.102E-03    3.93      24.5  T
   8    -25.7677538 -0.646430E-08  0.424E-04    3.93      59.0  T
   9    -25.7677538 -0.669722E-09  0.144E-04    3.93     174.1  T
     SCC iter.                  ...        0 min,  0.008 sec
     gradient                   ...        0 min,  0.002 sec
 * total energy  :   -25.4732100 Eh     change       -0.5278417E-04 Eh
   gradient norm :     0.0028489 Eh/α   predicted    -0.3637596E-04 ( -31.09%)
   displ. norm   :     0.1145843 α      lambda       -0.6376936E-04
   maximum displ.:     0.0658241 α      in ANC's #2, #5, #8, ...

........................................................................
.............................. CYCLE   16 ..............................
........................................................................
   1    -25.7686741 -0.257687E+02  0.416E-02    3.93       0.0  T
   2    -25.7686755 -0.132896E-05  0.250E-02    3.93       1.0  T
   3    -25.7686754  0.106955E-06  0.772E-03    3.93       3.2  T
   4    -25.7686757 -0.301486E-06  0.508E-03    3.93       4.9  T
   5    -25.7686758 -0.176920E-06  0.285E-03    3.93       8.8  T
   6    -25.7686759 -0.228558E-07  0.202E-03    3.93      12.4  T
   7    -25.7686759 -0.155474E-07  0.127E-03    3.93      19.6  T
   8    -25.7686759 -0.908177E-08  0.635E-04    3.93      39.4  T
   9    -25.7686759 -0.234898E-08  0.185E-04    3.93     135.1  T
     SCC iter.                  ...        0 min,  0.008 sec
     gradient                   ...        0 min,  0.002 sec
 * total energy  :   -25.4732479 Eh     change       -0.3785936E-04 Eh
   gradient norm :     0.0024901 Eh/α   predicted    -0.3230376E-04 ( -14.67%)
   displ. norm   :     0.1648157 α      lambda       -0.3240688E-04
   maximum displ.:     0.1202012 α      in ANC's #2, #5, #8, ...

........................................................................
.............................. CYCLE   17 ..............................
........................................................................
   1    -25.7680566 -0.257681E+02  0.489E-02    3.93       0.0  T
   2    -25.7680575 -0.858889E-06  0.290E-02    3.93       1.0  T
   3    -25.7680568  0.651732E-06  0.107E-02    3.93       2.3  T
   4    -25.7680579 -0.109715E-05  0.510E-03    3.93       4.9  T
   5    -25.7680580 -0.832843E-07  0.384E-03    3.93       6.5  T
   6    -25.7680580 -0.323879E-07  0.280E-03    3.93       8.9  T
   7    -25.7680581 -0.566311E-07  0.988E-04    3.93      25.3  T
   8    -25.7680581 -0.443661E-08  0.510E-04    3.93      49.0  T
     SCC iter.                  ...        0 min,  0.007 sec
     gradient                   ...        0 min,  0.002 sec
 * total energy  :   -25.4732621 Eh     change       -0.1418149E-04 Eh
   gradient norm :     0.0030551 Eh/α   predicted    -0.1664484E-04 (  17.37%)
   displ. norm   :     0.0285614 α      lambda       -0.2505328E-04
   maximum displ.:     0.0188429 α      in ANC's #2, #9, #23, ...

........................................................................
.............................. CYCLE   18 ..............................
........................................................................
   1    -25.7687885 -0.257688E+02  0.139E-02    3.93       0.0  T
   2    -25.7687886 -0.763258E-07  0.810E-03    3.93       3.1  T
   3    -25.7687885  0.648730E-08  0.210E-03    3.93      11.9  T
   4    -25.7687886 -0.258504E-07  0.121E-03    3.93      20.7  T
   5    -25.7687886 -0.808158E-08  0.761E-04    3.93      32.9  T
   6    -25.7687886 -0.161705E-08  0.527E-04    3.93      47.4  T
     SCC iter.                  ...        0 min,  0.005 sec
     gradient                   ...        0 min,  0.003 sec
 * total energy  :   -25.4732810 Eh     change       -0.1892930E-04 Eh
   gradient norm :     0.0017768 Eh/α   predicted    -0.1253758E-04 ( -33.77%)
   displ. norm   :     0.1108569 α      lambda       -0.3088097E-04
   maximum displ.:     0.0864169 α      in ANC's #2, #23, #9, ...

........................................................................
.............................. CYCLE   19 ..............................
........................................................................
   1    -25.7696111 -0.257696E+02  0.399E-02    3.93       0.0  T
   2    -25.7696113 -0.268666E-06  0.232E-02    3.93       1.1  T
   3    -25.7696102  0.116770E-05  0.110E-02    3.93       2.3  T
   4    -25.7696116 -0.148924E-05  0.307E-03    3.93       8.1  T
   5    -25.7696117 -0.156721E-07  0.244E-03    3.93      10.2  T
   6    -25.7696117 -0.252152E-07  0.158E-03    3.93      15.9  T
   7    -25.7696117 -0.124644E-07  0.825E-04    3.93      30.3  T
   8    -25.7696117 -0.345169E-08  0.226E-04    3.93     110.4  T
     SCC iter.                  ...        0 min,  0.007 sec
     gradient                   ...        0 min,  0.002 sec
 * total energy  :   -25.4733063 Eh     change       -0.2526092E-04 Eh
   gradient norm :     0.0031146 Eh/α   predicted    -0.1552493E-04 ( -38.54%)
   displ. norm   :     0.0300399 α      lambda       -0.1325200E-04
   maximum displ.:     0.0204067 α      in ANC's #2, #1, #23, ...

........................................................................
.............................. CYCLE   20 ..............................
........................................................................
   1    -25.7693813 -0.257694E+02  0.132E-02    3.93       0.0  T
   2    -25.7693813 -0.411062E-07  0.774E-03    3.93       3.2  T
   3    -25.7693812  0.153320E-06  0.411E-03    3.93       6.1  T
   4    -25.7693814 -0.196563E-06  0.116E-03    3.93      21.5  T
   5    -25.7693814 -0.369008E-08  0.878E-04    3.93      28.5  T
   6    -25.7693814 -0.224784E-08  0.614E-04    3.93      40.7  T
     SCC iter.                  ...        0 min,  0.006 sec
     gradient                   ...        0 min,  0.002 sec
 * total energy  :   -25.4733177 Eh     change       -0.1145025E-04 Eh
   gradient norm :     0.0024433 Eh/α   predicted    -0.6632456E-05 ( -42.08%)
   displ. norm   :     0.0732557 α      lambda       -0.3135170E-04
   maximum displ.:     0.0434495 α      in ANC's #1, #2, #23, ...
 * RMSD in coord.:     0.5989465 α      energy gain  -0.2285178E-01 Eh

generating ANC from model Hessian ...
Using Lindh-Hessian (1995)
 Shifting diagonal of input Hessian by    9.6402815319251503E-003
 Lowest  eigenvalues of input Hessian
    0.000000    0.000000    0.000000    0.000000    0.000000    0.000000
    0.010000    0.010969    0.012793    0.013767    0.018135    0.022408
    0.027135    0.029776    0.032496    0.046193    0.048925    0.053983
 Highest eigenvalues
    1.381300    1.419019    1.548155    1.664630    1.895818    1.909746


........................................................................
.............................. CYCLE   21 ..............................
........................................................................
   1    -25.7686984 -0.257687E+02  0.338E-02    3.93       0.0  T
   2    -25.7686986 -0.243731E-06  0.195E-02    3.93       1.3  T
   3    -25.7686979  0.717640E-06  0.896E-03    3.93       2.8  T
   4    -25.7686988 -0.893719E-06  0.281E-03    3.93       8.9  T
   5    -25.7686988 -0.292488E-07  0.188E-03    3.93      13.3  T
   6    -25.7686988 -0.824264E-08  0.133E-03    3.93      18.7  T
   7    -25.7686989 -0.955655E-08  0.834E-04    3.93      30.0  T
   8    -25.7686989 -0.395103E-08  0.239E-04    3.93     104.4  T
     SCC iter.                  ...        0 min,  0.008 sec
     gradient                   ...        0 min,  0.002 sec
 * total energy  :   -25.4733339 Eh     change       -0.1621153E-04 Eh
   gradient norm :     0.0005762 Eh/α   predicted     0.0000000E+00 (-100.00%)
   displ. norm   :     0.0170616 α      lambda       -0.2849407E-05
   maximum displ.:     0.0137252 α      in ANC's #3, #6, #5, ...

........................................................................
.............................. CYCLE   22 ..............................
........................................................................
   1    -25.7687268 -0.257687E+02  0.105E-02    3.93       0.0  T
   2    -25.7687268 -0.330221E-07  0.640E-03    3.93       3.9  T
   3    -25.7687267  0.812519E-07  0.344E-03    3.93       7.3  T
   4    -25.7687268 -0.120596E-06  0.146E-03    3.93      17.2  T
   5    -25.7687268 -0.544909E-08  0.109E-03    3.93      23.0  T
   6    -25.7687268 -0.536511E-08  0.566E-04    3.93      44.2  T
   7    -25.7687268 -0.130495E-08  0.266E-04    3.93      93.9  T
     SCC iter.                  ...        0 min,  0.007 sec
     gradient                   ...        0 min,  0.002 sec
 * total energy  :   -25.4733359 Eh     change       -0.1949292E-05 Eh
   gradient norm :     0.0003049 Eh/α   predicted    -0.1424955E-05 ( -26.90%)
   displ. norm   :     0.0278498 α      lambda       -0.2913162E-05
   maximum displ.:     0.0222435 α      in ANC's #1, #3, #2, ...

   *** GEOMETRY OPTIMIZATION CONVERGED AFTER 22 ITERATIONS ***

------------------------------------------------------------------------
 total energy gain   :        -0.0228699 Eh      -14.3511 kcal/mol
 total RMSD          :         0.5988926 a0        0.3169 Å
 total power (kW/mol):        -2.7293197 (step) -164.4580 (real)
------------------------------------------------------------------------

 ANCopt (total)                0 d,  0 h,  0 min,  0.365 sec
 optimizer setup                ...        0 min,  0.000 sec (  0.032%)
 model hessian                  ...        0 min,  0.010 sec (  2.792%)
 ANC generation                 ...        0 min,  0.002 sec (  0.414%)
 coordinate transformation      ...        0 min,  0.000 sec (  0.080%)
 single point calculation       ...        0 min,  0.345 sec ( 94.544%)
 optimization log               ...        0 min,  0.002 sec (  0.522%)
 hessian update                 ...        0 min,  0.001 sec (  0.338%)
 rational function              ...        0 min,  0.003 sec (  0.815%)

================
 final structure:
================
16
 xtb: 6.5.1 (fef0646)
N            1.30814456003637       -0.37788814557547       -0.35453949635086
C            2.75135665066476       -0.11266670878092       -0.28559279692360
C            3.06498026111792        1.16297297703478       -0.99247907540190
C            2.99365603278917        2.43292025876090       -0.51231521300738
C            3.31369474465178        3.40817079260077       -1.48312772654403
C            3.61727634368477        2.86638292033362       -2.68846333094250
S            3.51988469681659        1.15164221290760       -2.66782377238049
Cl          -0.14343826863171        1.69467424577952        1.14899837680888
H            1.08128025503245       -1.26424011380025        0.08315611636193
H            0.99644686655967       -0.39997606332944       -1.32048499637024
H            0.52978157979848        0.75257961854723        0.43221287780081
H            3.34045146087901       -0.92974810758638       -0.72441077152982
H            3.01398468290594       -0.01882858585150        0.77138229632821
H            2.71485898764697        2.66233313187553        0.49935247416202
H            3.31581006981836        4.46561417126746       -1.28985707697127
H            3.89533107622952        3.36333739581619       -3.59651788503969

 Bond Distances (Angstroems)
 ---------------------------
N1-C2=1.4690         N1-H9=1.0142         N1-H10=1.0152        C2-N1=1.4690         C2-C3=1.4917         C2-H12=1.0987        
C2-H13=1.0931        C3-C2=1.4917         C3-C4=1.3596         C3-S7=1.7360         C4-C3=1.3596         C4-C5=1.4128         
C4-H14=1.0742        C5-C4=1.4128         C5-C6=1.3559         C5-H15=1.0750        C6-C5=1.3559         C6-S7=1.7176         
C6-H16=1.0718        S7-C3=1.7360         S7-C6=1.7176         Cl8-H11=1.3618       H9-N1=1.0142         H10-N1=1.0152        
H11-Cl8=1.3618       H12-C2=1.0987        H13-C2=1.0931        H14-C4=1.0742        H15-C5=1.0750        H16-C6=1.0718        
 C  H  Rav=1.0826 sigma=0.0111  Rmin=1.0718  Rmax=1.0987     5
 C  C  Rav=1.4050 sigma=0.0549  Rmin=1.3559  Rmax=1.4917     4
 N  H  Rav=1.0147 sigma=0.0005  Rmin=1.0142  Rmax=1.0152     2
 N  C  Rav=1.4690 sigma=0.0000  Rmin=1.4690  Rmax=1.4690     1
 S  C  Rav=1.7268 sigma=0.0092  Rmin=1.7176  Rmax=1.7360     2
 Cl H  Rav=1.3618 sigma=0.0000  Rmin=1.3618  Rmax=1.3618     1

 selected bond angles (degree)
 --------------------
H9-N1-C2=110.93                H10-N1-C2=110.50               H10-N1-H9=108.84               C3-C2-N1=109.80                
H12-C2-N1=111.95               H12-C2-C3=109.51               H13-C2-N1=107.27               H13-C2-C3=109.53               
H13-C2-H12=108.74              C4-C3-C2=128.34                S7-C3-C2=120.45                S7-C3-C4=111.14                
C5-C4-C3=112.97                H14-C4-C3=123.08               H14-C4-C5=123.95               C6-C5-C4=112.69                
H15-C5-C4=123.78               H15-C5-C6=123.53               S7-C6-C5=112.06                H16-C6-C5=128.75               
H16-C6-S7=119.19               C6-S7-C3= 91.14                

 selected dihedral angles (degree)
 ---------------------------------
C3-C2-N1-H9=177.31            C3-C2-N1-H10= 56.51           H12-C2-N1-H9= 55.46           H12-C2-N1-H10=294.66          
H13-C2-N1-H9=296.26           H13-C2-N1-H10=175.45          C4-C3-C2-N1= 84.05            C4-C3-C2-H12=207.35           
C4-C3-C2-H13=326.51           S7-C3-C2-N1=267.22            S7-C3-C2-H12= 30.52           S7-C3-C2-H13=149.67           
C5-C4-C3-C2=182.48            C5-C4-C3-S7=359.55            H14-C4-C3-C2=  2.04           H14-C4-C3-S7=179.11           
C6-C5-C4-C3=  0.30            C6-C5-C4-H14=180.74           H15-C5-C4-C3=180.23           H15-C5-C4-H14=  0.67          
S7-C6-C5-C4=  0.00            S7-C6-C5-H15=180.07           H16-C6-C5-C4=180.06           H16-C6-C5-H15=  0.13          
C6-S7-C3-C2=177.72            C6-S7-C3-C4=  0.38            C3-S7-C6-C5=359.79            C3-S7-C6-H16=179.73           

 CMA Distance (Angstroems)
 ---------------------------
R(CMA):  4.0785
           -------------------------------------------------
          |                Final Singlepoint                |
           -------------------------------------------------

          ...................................................
          :                      SETUP                      :
          :.................................................:
          :  # basis functions                  52          :
          :  # atomic orbitals                  50          :
          :  # shells                           26          :
          :  # electrons                        46          :
          :  max. iterations                   250          :
          :  Hamiltonian                  GFN2-xTB          :
          :  restarted?                      false          :
          :  GBSA solvation                  false          :
          :  PC potential                    false          :
          :  electronic temp.          300.0000000     K    :
          :  accuracy                    1.0000000          :
          :  -> integral cutoff          0.2500000E+02      :
          :  -> integral neglect         0.1000000E-07      :
          :  -> SCF convergence          0.1000000E-05 Eh   :
          :  -> wf. convergence          0.1000000E-03 e    :
          :  Broyden damping             0.4000000          :
          ...................................................

 iter      E             dE          RMSdq      gap      omega  full diag
   1    -25.7687268 -0.257687E+02  0.933E-05    3.93       0.0  T
   2    -25.7687268 -0.304112E-10  0.639E-05    3.93     391.0  T
   3    -25.7687268 -0.384333E-10  0.372E-05    3.93     672.8  T

   *** convergence criteria satisfied after 3 iterations ***

         #    Occupation            Energy/Eh            Energy/eV
      -------------------------------------------------------------
         1        2.0000           -1.0202372             -27.7621
       ...           ...                  ...                  ...
        17        2.0000           -0.4602825             -12.5249
        18        2.0000           -0.4531899             -12.3319
        19        2.0000           -0.4053420             -11.0299
        20        2.0000           -0.4022468             -10.9457
        21        2.0000           -0.3974334             -10.8147
        22        2.0000           -0.3973132             -10.8114
        23        2.0000           -0.3958618             -10.7719 (HOMO)
        24                         -0.2516072              -6.8466 (LUMO)
        25                         -0.2095090              -5.7010
        26                         -0.1736310              -4.7247
        27                         -0.1235089              -3.3608
        28                         -0.0582396              -1.5848
       ...                                ...                  ...
        50                          0.6946323              18.9019
      -------------------------------------------------------------
                  HL-Gap            0.1442547 Eh            3.9254 eV
             Fermi-level           -0.3237345 Eh           -8.8093 eV

 SCC (total)                   0 d,  0 h,  0 min,  0.007 sec
 SCC setup                      ...        0 min,  0.000 sec (  1.771%)
 Dispersion                     ...        0 min,  0.000 sec (  1.636%)
 classical contributions        ...        0 min,  0.000 sec (  0.611%)
 integral evaluation            ...        0 min,  0.001 sec ( 14.620%)
 iterations                     ...        0 min,  0.003 sec ( 45.427%)
 molecular gradient             ...        0 min,  0.002 sec ( 33.261%)
 printout                       ...        0 min,  0.000 sec (  1.533%)

         :::::::::::::::::::::::::::::::::::::::::::::::::::::
         ::                     SUMMARY                     ::
         :::::::::::::::::::::::::::::::::::::::::::::::::::::
         :: total energy             -25.473335891849 Eh    ::
         :: gradient norm              0.000305283798 Eh/a0 ::
         :: HOMO-LUMO gap              3.925368867833 eV    ::
         ::.................................................::
         :: SCC energy               -25.768726842020 Eh    ::
         :: -> isotropic ES            0.026681035384 Eh    ::
         :: -> anisotropic ES         -0.005025998152 Eh    ::
         :: -> anisotropic XC          0.010243236567 Eh    ::
         :: -> dispersion             -0.013693880196 Eh    ::
         :: repulsion energy           0.295329465204 Eh    ::
         :: add. restraining           0.000000000000 Eh    ::
         :: total charge               0.000000000000 e     ::
         :::::::::::::::::::::::::::::::::::::::::::::::::::::

           -------------------------------------------------
          |                Property Printout                |
           -------------------------------------------------

    * Orbital Energies and Occupations

         #    Occupation            Energy/Eh            Energy/eV
      -------------------------------------------------------------
         1        2.0000           -1.0202372             -27.7621
       ...           ...                  ...                  ...
        11        2.0000           -0.5375683             -14.6280
        12        2.0000           -0.5146221             -14.0036
        13        2.0000           -0.4924449             -13.4001
        14        2.0000           -0.4836536             -13.1609
        15        2.0000           -0.4739136             -12.8958
        16        2.0000           -0.4709103             -12.8141
        17        2.0000           -0.4602825             -12.5249
        18        2.0000           -0.4531899             -12.3319
        19        2.0000           -0.4053420             -11.0299
        20        2.0000           -0.4022468             -10.9457
        21        2.0000           -0.3974334             -10.8147
        22        2.0000           -0.3973132             -10.8114
        23        2.0000           -0.3958618             -10.7719 (HOMO)
        24                         -0.2516072              -6.8466 (LUMO)
        25                         -0.2095090              -5.7010
        26                         -0.1736310              -4.7247
        27                         -0.1235089              -3.3608
        28                         -0.0582396              -1.5848
        29                         -0.0123328              -0.3356
        30                          0.0070514               0.1919
        31                          0.0269406               0.7331
        32                          0.0414479               1.1279
        33                          0.0631279               1.7178
        34                          0.0633472               1.7238
       ...                                ...                  ...
        50                          0.6946323              18.9019
      -------------------------------------------------------------
                  HL-Gap            0.1442547 Eh            3.9254 eV
             Fermi-level           -0.3237345 Eh           -8.8093 eV

     #   Z          covCN         q      C6AA      α(0)
     1   7 N        2.677    -0.309    27.962     7.854
     2   6 C        3.755     0.008    20.504     6.457
     3   6 C        2.991     0.009    27.803     8.650
     4   6 C        3.117    -0.047    29.000     8.820
     5   6 C        3.118    -0.041    28.846     8.797
     6   6 C        2.940    -0.019    28.490     8.754
     7  16 S        2.332    -0.040   142.725    20.107
     8  17 Cl       0.839    -0.474   114.722    16.386
     9   1 H        0.860     0.168     1.284     1.775
    10   1 H        0.860     0.170     1.272     1.767
    11   1 H        0.884     0.332     0.623     1.236
    12   1 H        0.923     0.037     2.492     2.469
    13   1 H        0.924     0.062     2.181     2.309
    14   1 H        0.926     0.058     2.225     2.332
    15   1 H        0.926     0.043     2.407     2.426
    16   1 H        0.926     0.045     2.386     2.415

 Mol. C6AA /au·bohr⁶  :       4153.744354
 Mol. C8AA /au·bohr⁸  :     125039.551014
 Mol. α(0) /au        :        102.552779


Wiberg/Mayer (AO) data.
largest (>0.10) Wiberg bond orders for each atom

 ---------------------------------------------------------------------------
     #   Z sym  total        # sym  WBO       # sym  WBO       # sym  WBO
 ---------------------------------------------------------------------------
     1   7 N    3.220 --     2 C    0.993     9 H    0.957    10 H    0.957
                            11 H    0.190
     2   6 C    3.978 --     3 C    1.020     1 N    0.993    12 H    0.969
                            13 H    0.966
     3   6 C    3.946 --     4 C    1.606     7 S    1.158     2 C    1.020
                             6 C    0.118
     4   6 C    3.988 --     3 C    1.606     5 C    1.270    14 H    0.961
     5   6 C    3.989 --     6 C    1.634     4 C    1.270    15 H    0.964
     6   6 C    3.948 --     5 C    1.634     7 S    1.190    16 H    0.971
                             3 C    0.118
     7  16 S    2.612 --     6 C    1.190     3 C    1.158
     8  17 Cl   0.778 --    11 H    0.696
     9   1 H    0.971 --     1 N    0.957
    10   1 H    0.971 --     1 N    0.957
    11   1 H    0.890 --     8 Cl   0.696     1 N    0.190
    12   1 H    0.998 --     2 C    0.969
    13   1 H    0.996 --     2 C    0.966
    14   1 H    0.997 --     4 C    0.961
    15   1 H    0.998 --     5 C    0.964
    16   1 H    0.998 --     6 C    0.971
 ---------------------------------------------------------------------------

Topologies differ in total number of bonds
Writing topology from bond orders to xtbtopo.mol

molecular dipole:
                 x           y           z       tot (Debye)
 q only:        1.006      -1.138      -0.822
   full:        0.839      -0.927      -0.655       3.587
molecular quadrupole (traceless):
                xx          xy          yy          xz          yz          zz
 q only:        3.821       2.599      -1.821       1.163      -5.053      -1.999
  q+dip:       -0.056       2.542       2.590       0.787      -4.172      -2.535
   full:        1.136       2.628       2.103       1.116      -4.503      -3.238

           -------------------------------------------------
          |                Geometry Summary                 |
           -------------------------------------------------

      molecular mass/u    :      149.6416337
   center of mass at/Å    :        2.2333381       1.4542285      -0.8458043
  moments of inertia/u·Å² :        0.2241753E+03   0.6584105E+03   0.8115931E+03
rotational constants/cm⁻¹ :        0.7519844E-01   0.2560353E-01   0.2077104E-01

 * 13 selected distances

     #   Z          #   Z                                           value/Å
     1   7 N        2   6 C                                       1.4689988
     3   6 C        4   6 C                                       1.3595628
     4   6 C        5   6 C                                       1.4128042
     5   6 C        6   6 C                                       1.3559241
     3   6 C        7  16 S                                       1.7360434 (max)
     6   6 C        7  16 S                                       1.7176284
     1   7 N        9   1 H                                       1.0142312 (min)
     1   7 N       10   1 H                                       1.0152311
     2   6 C       12   1 H                                       1.0987339
     2   6 C       13   1 H                                       1.0931494
     4   6 C       14   1 H                                       1.0741647
     5   6 C       15   1 H                                       1.0749627
     6   6 C       16   1 H                                       1.0718402

 * 5 distinct bonds (by element types)

   Z      Z             #   av. dist./Å        max./Å        min./Å
   1 H    6 C           5     1.0825702     1.0987339     1.0718402
   6 C    6 C           3     1.3760970     1.4128042     1.3559241
   1 H    7 N           2     1.0147311     1.0152311     1.0142312
   6 C    7 N           1     1.4689988     1.4689988     1.4689988
   6 C   16 S           2     1.7268359     1.7360434     1.7176284


optimized geometry written to: xtbopt.xyz


           -------------------------------------------------
          | TOTAL ENERGY              -25.473335891849 Eh   |
          | GRADIENT NORM               0.000305283798 Eh/α |
          | HOMO-LUMO GAP               3.925368867833 eV   |
           -------------------------------------------------

------------------------------------------------------------------------
 * finished run on 2023/01/23 at 18:52:50.824     
------------------------------------------------------------------------
 total:
 * wall-time:     0 d,  0 h,  0 min,  0.441 sec
 *  cpu-time:     0 d,  0 h,  0 min, 35.054 sec
 * ratio c/w:    79.455 speedup
 SCF:
 * wall-time:     0 d,  0 h,  0 min,  0.044 sec
 *  cpu-time:     0 d,  0 h,  0 min,  5.605 sec
 * ratio c/w:   127.060 speedup
 ANC optimizer:
 * wall-time:     0 d,  0 h,  0 min,  0.373 sec
 *  cpu-time:     0 d,  0 h,  0 min, 26.509 sec
 * ratio c/w:    71.143 speedup

