28
 energy: -39.489547415182 gnorm: 0.000294141812 xtb: 6.5.1 (fef0646)
N            3.86137321736402        0.10625191521946        1.54646460290186
C            2.83248933725883        0.49332615377351        0.55466504374741
C            3.34451017628184        1.67364482998796       -0.26309235074929
O            4.53922375252740        1.21900531830488       -0.89432779844361
C            5.20194992639506        2.05034711084077       -1.74501979650556
C            4.84951220921546        3.35397161076687       -1.98869325406357
C            5.61994174673587        4.14360327148425       -2.85630400519236
C            6.73045806397877        3.63890847231781       -3.46775898688694
C            7.11607672631889        2.29888429346021       -3.24859114312809
C            8.25122111246896        1.73865240760500       -3.87039852974616
C            8.60006185229514        0.43420769754957       -3.65489725420846
C            7.82331319230395       -0.37399030940598       -2.81229203494268
C            6.71926362120694        0.14009113226342       -2.19054641807664
C            6.34294843860962        1.48405728362278       -2.38442843835610
H            3.61786169475417       -0.77482010657953        2.01198310423227
H            3.98153417808432        0.83830499272601        2.25641286812405
H            4.75417206456070       -0.00742838673264        1.04849261321494
H            1.90384325247996        0.76464206448493        1.05374337321880
H            2.65185144412314       -0.34535553461237       -0.11755955002240
H            3.56308789015369        2.53686943389295        0.37599447681113
H            2.60029017492457        1.96588028838981       -1.01002356559053
H            3.98442411047212        3.80184438215813       -1.52800325999527
H            5.32038261026653        5.16643570886910       -3.02952802506401
H            7.32591999232526        4.25135378846143       -4.12858130211298
H            8.84076906747652        2.36367301855526       -4.52611409002923
H            9.47181651509939        0.01765705036505       -4.13795127023488
H            8.10528157123203       -1.40526959138605       -2.66320874787440
H            6.11182206108685       -0.48511829638254       -1.55763626102750
