22
 energy: -34.283750848425 gnorm: 0.000707231182 xtb: 6.5.1 (fef0646)
N            1.10266552238623       -0.07322004147916       -0.31566141476173
C            2.56074146434755       -0.04951298745729       -0.22049445402893
C            3.01062043172545        1.17458819831819        0.58368382550846
C            4.49162758437131        1.12397632450401        0.82376646815646
C            5.37911181500799        1.73425957702032       -0.05364188272824
C            6.74538595528379        1.65803566550100        0.14884786262715
C            7.22411865436659        0.95854917716687        1.24235690765053
Br           9.10648132311800        0.84866958732549        1.53151656911848
C            6.36162528788502        0.33941371652996        2.13055966639231
C            4.99900437556978        0.42557174239723        1.91332016105461
Cl           0.04177451539407       -0.23812227000333        2.41948449445986
H            0.78134933708478       -0.88585603125061       -0.83009763353880
H            0.75528046321290        0.76364355807971       -0.77324976072107
H            0.52136970893521       -0.15629810380188        1.14091506282109
H            3.04520184650616       -0.03796709725472       -1.20722860073771
H            2.87139393539102       -0.95850025696664        0.29983762134590
H            2.47558769127524        1.17538431853461        1.53314990516726
H            2.74962240653334        2.08237205605527        0.03652738734780
H            5.00198508859781        2.28236371539881       -0.90474313490776
H            7.43128009760216        2.13641972771940       -0.53318874410644
H            6.75103701795587       -0.19981976900001        2.98023240951854
H            4.31865547745608       -0.05101080733629        2.60294728436061
