 Entering Gaussian System
 *********************************************
 Gaussian 98:
 frequency output generated by the xtb code
 *********************************************
                         Standard orientation:
 --------------------------------------------------------------------
  Center     Atomic     Atomic              Coordinates (Angstroms)
  Number     Number      Type              X           Y           Z
 --------------------------------------------------------------------
    1          7             0       -1.693116    0.333180    0.710175
    2          6             0       -1.402485   -0.761733   -0.259474
    3          6             0       -0.198228   -1.603279    0.146694
    4          6             0        1.118747   -0.814195    0.273428
    5          6             0        1.552776   -0.160400   -1.060745
    6          6             0        2.866710    0.625113   -0.904501
    7          6             0        3.988998   -0.272762   -0.356193
    8          6             0        3.571209   -0.925547    0.972069
    9          6             0        2.261034   -1.712941    0.809565
   10         17             0       -4.598030    2.045554   -0.183158
   11          1             0       -2.556084    0.852294    0.461427
   12          1             0       -0.921982    1.020316    0.748252
   13          1             0       -1.818495   -0.042098    1.665127
   14          1             0       -1.248476   -0.336036   -1.255675
   15          1             0       -2.290559   -1.401119   -0.356120
   16          1             0       -0.047665   -2.419371   -0.571086
   17          1             0       -0.410757   -2.094676    1.103805
   18          1             0        0.969334   -0.004953    1.005477
   19          1             0        0.757778    0.489204   -1.448164
   20          1             0        1.679839   -0.947652   -1.813014
   21          1             0        2.706627    1.466036   -0.217572
   22          1             0        3.163599    1.081300   -1.859433
   23          1             0        4.921291    0.296344   -0.235758
   24          1             0        4.218081   -1.056364   -1.089713
   25          1             0        3.434226   -0.146165    1.732588
   26          1             0        4.370767   -1.573311    1.358418
   27          1             0        1.962105   -2.184107    1.755207
   28          1             0        2.414427   -2.541083    0.107636
 --------------------------------------------------------------------
     1 basis functions        1 primitive gaussians
     1 alpha electrons        1 beta electrons

 Harmonic frequencies (cm**-1), IR intensities (km*mol⁻¹),
 Raman scattering activities (A**4/amu), Raman depolarization ratios,
 reduced masses (AMU), force constants (mDyne/A) and normal coordinates:
                      1                      2                      3
                        a                      a                      a 
 Frequencies --  -119.1349                68.8000                92.7285
 Red. masses --    27.2853                16.5833                12.5763
 Frc consts  --     0.0000                 0.0000                 0.0000
 IR Inten    --   131.9645                10.7024                 7.9714
 Raman Activ --     0.0000                 0.0000                 0.0000
 Depolar     --     0.0000                 0.0000                 0.0000
 Atom AN      X      Y      Z        X      Y      Z        X      Y      Z
   1   7    -0.30   0.17  -0.18    -0.04   0.21  -0.08    -0.02   0.22   0.03
   2   6    -0.12   0.11  -0.07     0.04   0.28  -0.15     0.03   0.14   0.11
   3   6    -0.12   0.13   0.03    -0.01   0.22  -0.12    -0.01   0.14   0.20
   4   6    -0.09   0.09   0.01     0.05   0.11  -0.08     0.04   0.06   0.18
   5   6    -0.06   0.04  -0.01     0.22  -0.07  -0.12    -0.08   0.27   0.24
   6   6    -0.03   0.01  -0.01     0.29  -0.19  -0.09     0.05   0.08   0.16
   7   6    -0.06  -0.01   0.00     0.16  -0.24   0.08     0.03  -0.16  -0.19
   8   6    -0.08   0.01   0.01    -0.01  -0.06   0.12     0.17  -0.32  -0.23
   9   6    -0.11   0.06   0.02    -0.08   0.06   0.10     0.04  -0.13  -0.13
  10  17     0.69  -0.42   0.15    -0.41  -0.23   0.23    -0.16  -0.22  -0.24
  11   1    -0.11   0.03  -0.08    -0.06   0.00   0.02    -0.02   0.03  -0.02
  12   1    -0.10   0.06  -0.04    -0.05   0.10  -0.04    -0.02   0.07  -0.01
  13   1    -0.10   0.06  -0.04     0.05   0.04  -0.02    -0.00   0.08   0.02
  14   1    -0.02   0.02  -0.02     0.03   0.10  -0.03     0.02   0.02   0.03
  15   1    -0.02   0.02  -0.03     0.01   0.08  -0.07     0.01   0.04   0.04
  16   1    -0.04   0.02   0.02    -0.01   0.06  -0.03    -0.01   0.03   0.07
  17   1    -0.04   0.06   0.02    -0.02   0.07  -0.04    -0.01   0.06   0.06
  18   1    -0.02   0.03  -0.00     0.01   0.06  -0.05     0.05  -0.02   0.10
  19   1    -0.01   0.02  -0.01     0.09  -0.01  -0.07    -0.02   0.13   0.14
  20   1    -0.02   0.00   0.00     0.06  -0.05  -0.01    -0.09   0.11   0.02
  21   1    -0.00   0.01  -0.01     0.09  -0.03  -0.05     0.08  -0.01   0.10
  22   1    -0.01  -0.00  -0.01     0.12  -0.09  -0.03    -0.02   0.06   0.05
  23   1    -0.01  -0.01   0.00     0.06  -0.09   0.03     0.04  -0.09  -0.07
  24   1    -0.02  -0.01   0.00     0.04  -0.10   0.05    -0.06  -0.02  -0.11
  25   1    -0.02   0.01  -0.00     0.00   0.01   0.01     0.11  -0.12  -0.03
  26   1    -0.03  -0.00   0.00    -0.03  -0.03   0.07     0.04  -0.14  -0.13
  27   1    -0.04   0.02   0.01    -0.06   0.06   0.04     0.04  -0.07  -0.05
  28   1    -0.04   0.01   0.01    -0.03  -0.01   0.06    -0.05  -0.01  -0.08
                      4                      5                      6
                        a                      a                      a 
 Frequencies --   122.3697               133.3707               180.6791
 Red. masses --    12.1256                11.9745                 9.0253
 Frc consts  --     0.0000                 0.0000                 0.0000
 IR Inten    --    27.3294                20.9177                12.9181
 Raman Activ --     0.0000                 0.0000                 0.0000
 Depolar     --     0.0000                 0.0000                 0.0000
 Atom AN      X      Y      Z        X      Y      Z        X      Y      Z
   1   7     0.23   0.22  -0.63     0.48   0.34   0.19     0.35  -0.12   0.07
   2   6     0.08  -0.17  -0.20    -0.01   0.23   0.14     0.01  -0.05  -0.09
   3   6     0.02  -0.11   0.10    -0.11  -0.02  -0.09     0.03  -0.08  -0.27
   4   6    -0.01  -0.08   0.11    -0.04  -0.14  -0.11    -0.13   0.12   0.07
   5   6    -0.08  -0.02   0.12    -0.03  -0.12  -0.10    -0.14   0.28   0.14
   6   6    -0.10   0.02   0.08    -0.14   0.03   0.03     0.04  -0.00  -0.02
   7   6    -0.06   0.05   0.02    -0.10   0.15   0.14    -0.12  -0.27  -0.16
   8   6     0.02   0.01   0.03    -0.15  -0.02   0.05    -0.08   0.09   0.03
   9   6     0.04  -0.04   0.06    -0.05  -0.15  -0.14    -0.16   0.19   0.24
  10  17    -0.11   0.07   0.26     0.06  -0.26  -0.10     0.11  -0.09  -0.01
  11   1     0.01  -0.00  -0.12     0.10   0.07   0.12     0.08  -0.03   0.10
  12   1     0.03   0.10  -0.31     0.13   0.09  -0.05     0.10  -0.04  -0.04
  13   1     0.17   0.15  -0.12     0.23   0.11   0.07     0.18  -0.05   0.02
  14   1     0.03  -0.16  -0.11    -0.04   0.05   0.03    -0.04   0.00  -0.02
  15   1     0.01  -0.04   0.02    -0.05   0.12   0.10    -0.01   0.01   0.01
  16   1     0.03  -0.07   0.08    -0.08   0.02  -0.06     0.06   0.05  -0.14
  17   1    -0.03   0.02   0.05    -0.02  -0.03  -0.04     0.00  -0.11  -0.13
  18   1    -0.01  -0.03   0.04     0.01  -0.04  -0.03    -0.09   0.01   0.03
  19   1    -0.03  -0.01   0.05    -0.02  -0.06  -0.05    -0.02   0.14   0.10
  20   1    -0.02   0.00   0.03     0.04  -0.03  -0.02    -0.12   0.10  -0.00
  21   1    -0.03   0.00   0.03    -0.09   0.00   0.01     0.09   0.01   0.00
  22   1    -0.05   0.01   0.02    -0.02   0.02   0.02     0.00  -0.02  -0.02
  23   1    -0.02   0.02  -0.00    -0.06   0.08   0.08     0.02  -0.16  -0.12
  24   1    -0.02   0.02  -0.00     0.03   0.06   0.03    -0.15  -0.13  -0.02
  25   1     0.00   0.00   0.01    -0.09  -0.03   0.03     0.01   0.08  -0.04
  26   1     0.02   0.01  -0.00    -0.03   0.02   0.02    -0.04   0.02   0.04
  27   1     0.03  -0.02   0.02    -0.03  -0.08  -0.06    -0.06   0.13   0.10
  28   1     0.02  -0.01   0.01     0.02  -0.02  -0.06    -0.07   0.00   0.13
                      7                      8                      9
                        a                      a                      a 
 Frequencies --   234.3831               259.5163               302.4534
 Red. masses --     7.6047                 6.2583                 6.1830
 Frc consts  --     0.0000                 0.0000                 0.0000
 IR Inten    --     0.1020                 0.1475                16.7580
 Raman Activ --     0.0000                 0.0000                 0.0000
 Depolar     --     0.0000                 0.0000                 0.0000
 Atom AN      X      Y      Z        X      Y      Z        X      Y      Z
   1   7    -0.02   0.02  -0.04    -0.02   0.02   0.01     0.26  -0.10  -0.07
   2   6    -0.29  -0.35   0.30    -0.12  -0.06   0.06     0.12  -0.08  -0.07
   3   6     0.05   0.00   0.03     0.00   0.01  -0.11     0.04   0.08   0.28
   4   6    -0.02   0.16  -0.18    -0.02   0.07  -0.10    -0.04   0.22  -0.14
   5   6     0.09   0.22  -0.12     0.18  -0.19  -0.14    -0.01   0.07  -0.21
   6   6     0.23   0.01  -0.01    -0.10   0.17   0.27    -0.01   0.05   0.03
   7   6     0.12  -0.06   0.14    -0.02   0.06  -0.11    -0.10  -0.04   0.08
   8   6    -0.09  -0.05   0.08     0.18  -0.20  -0.16    -0.11  -0.15   0.02
   9   6    -0.09   0.05  -0.21    -0.11   0.15   0.27    -0.22   0.10  -0.05
  10  17     0.01   0.02  -0.01     0.01   0.01  -0.02    -0.01  -0.07   0.05
  11   1    -0.06  -0.06   0.03    -0.04  -0.04   0.04     0.25   0.20  -0.16
  12   1    -0.03   0.05  -0.20    -0.03   0.04  -0.08     0.25  -0.24   0.21
  13   1     0.14   0.12   0.05     0.09   0.03   0.03    -0.24  -0.07  -0.07
  14   1    -0.24  -0.21   0.02    -0.10  -0.04  -0.00     0.10  -0.04  -0.02
  15   1    -0.06  -0.16   0.28    -0.03  -0.04   0.08     0.02   0.00  -0.05
  16   1     0.01  -0.00   0.01     0.00   0.03  -0.06     0.02  -0.09   0.21
  17   1     0.11  -0.00   0.03     0.03  -0.03  -0.04     0.02   0.17   0.16
  18   1     0.00   0.04  -0.04    -0.04   0.07  -0.09     0.03   0.10  -0.07
  19   1     0.04   0.10  -0.02     0.03  -0.16  -0.17     0.01   0.02  -0.09
  20   1    -0.00   0.08  -0.06     0.21  -0.10   0.03     0.02   0.01  -0.04
  21   1     0.08   0.02  -0.02    -0.10  -0.06   0.19    -0.03  -0.01   0.03
  22   1     0.11  -0.02  -0.00    -0.04   0.20   0.15     0.04   0.04   0.03
  23   1     0.04  -0.03   0.07     0.01  -0.00  -0.03    -0.02  -0.02   0.05
  24   1     0.05  -0.02   0.05    -0.05   0.07  -0.10    -0.02   0.00   0.01
  25   1    -0.05  -0.02   0.02     0.20  -0.09   0.02     0.01  -0.07   0.04
  26   1    -0.05  -0.03   0.05     0.04  -0.15  -0.17    -0.05  -0.10  -0.04
  27   1    -0.06  -0.03  -0.09    -0.03   0.20   0.15    -0.11   0.05  -0.02
  28   1    -0.01   0.05  -0.10    -0.11  -0.07   0.19    -0.09   0.01  -0.00
                     10                     11                     12
                        a                      a                      a 
 Frequencies --   319.8109               341.6947               393.0356
 Red. masses --     4.9357                 6.2066                 9.0847
 Frc consts  --     0.0000                 0.0000                 0.0000
 IR Inten    --     5.5946                 1.4064                 7.2947
 Raman Activ --     0.0000                 0.0000                 0.0000
 Depolar     --     0.0000                 0.0000                 0.0000
 Atom AN      X      Y      Z        X      Y      Z        X      Y      Z
   1   7     0.04  -0.27   0.10     0.07  -0.00  -0.03     0.14  -0.12   0.03
   2   6     0.18   0.03  -0.16    -0.13  -0.03  -0.03    -0.24   0.00  -0.17
   3   6     0.05   0.12   0.21    -0.04   0.02  -0.14    -0.37  -0.03   0.12
   4   6    -0.01   0.17   0.03    -0.10   0.10   0.21    -0.27  -0.01   0.09
   5   6    -0.07   0.01  -0.06    -0.08  -0.01   0.17     0.11  -0.11   0.16
   6   6    -0.07  -0.01  -0.10     0.04  -0.10  -0.28     0.16  -0.08   0.18
   7   6    -0.08   0.07   0.08     0.16   0.28   0.14     0.36   0.02  -0.12
   8   6    -0.06  -0.15  -0.01     0.13  -0.24  -0.09     0.03   0.19  -0.17
   9   6    -0.12   0.02  -0.05    -0.10   0.05   0.10    -0.02   0.16  -0.16
  10  17     0.07   0.04  -0.04    -0.01  -0.02   0.01     0.02  -0.02  -0.01
  11   1    -0.20  -0.31   0.28     0.08   0.08  -0.04     0.05   0.02   0.11
  12   1    -0.19   0.17  -0.20     0.09  -0.08   0.04     0.08  -0.08  -0.02
  13   1     0.42  -0.13   0.06    -0.06  -0.00  -0.02     0.10  -0.08  -0.00
  14   1     0.12   0.06  -0.01    -0.08  -0.02  -0.02    -0.02   0.01  -0.04
  15   1     0.06   0.01  -0.14    -0.04  -0.01   0.04    -0.10   0.05  -0.08
  16   1     0.04  -0.05   0.16     0.04   0.07  -0.11    -0.09  -0.08   0.12
  17   1    -0.03   0.14   0.11    -0.03  -0.09  -0.09    -0.15   0.09   0.08
  18   1     0.03   0.07  -0.01    -0.05   0.01   0.07    -0.08  -0.01   0.03
  19   1    -0.01   0.00  -0.03    -0.01   0.01   0.05     0.07  -0.03  -0.04
  20   1    -0.03  -0.02   0.00    -0.09  -0.04   0.08     0.07  -0.06   0.09
  21   1    -0.03   0.03  -0.07     0.03   0.10  -0.23     0.06  -0.07   0.11
  22   1     0.01  -0.04  -0.04     0.00  -0.20  -0.16    -0.03   0.05   0.06
  23   1    -0.05   0.05   0.07    -0.05   0.21   0.18     0.09   0.03  -0.01
  24   1     0.04   0.04   0.02     0.25   0.15   0.02     0.13   0.02  -0.04
  25   1     0.02  -0.09   0.05     0.15  -0.16   0.09    -0.02   0.10  -0.10
  26   1    -0.02  -0.08  -0.06     0.03  -0.17  -0.17    -0.04   0.05   0.05
  27   1    -0.05  -0.01  -0.03     0.01   0.04   0.06     0.07  -0.02  -0.06
  28   1    -0.07   0.02  -0.04    -0.11  -0.01   0.04    -0.00   0.09  -0.10
                     13                     14                     15
                        a                      a                      a 
 Frequencies --   429.8438               445.3889               482.9644
 Red. masses --     9.0394                 6.9297                 8.3322
 Frc consts  --     0.0000                 0.0000                 0.0000
 IR Inten    --     0.6106                 2.2726                 7.3226
 Raman Activ --     0.0000                 0.0000                 0.0000
 Depolar     --     0.0000                 0.0000                 0.0000
 Atom AN      X      Y      Z        X      Y      Z        X      Y      Z
   1   7     0.02  -0.05  -0.02     0.04  -0.04  -0.03    -0.07   0.14   0.00
   2   6    -0.01  -0.05   0.01    -0.01  -0.03  -0.01     0.40  -0.02   0.22
   3   6     0.06   0.10   0.03     0.19   0.23  -0.12     0.15  -0.36   0.03
   4   6     0.08   0.00   0.20     0.00   0.34   0.27    -0.22   0.07   0.02
   5   6     0.35  -0.05   0.21    -0.03  -0.24   0.09    -0.01  -0.04   0.04
   6   6     0.16   0.32  -0.15    -0.18  -0.14   0.09     0.05  -0.08   0.07
   7   6    -0.11   0.07  -0.13    -0.12  -0.12   0.01     0.16   0.01  -0.04
   8   6    -0.38   0.01  -0.20     0.03   0.02   0.09    -0.19   0.01  -0.17
   9   6    -0.19  -0.29   0.07     0.04   0.13  -0.25    -0.25   0.18  -0.12
  10  17     0.00  -0.00   0.00     0.00  -0.00   0.00    -0.01   0.01   0.01
  11   1     0.02   0.00  -0.00     0.03   0.02  -0.02    -0.06  -0.08  -0.13
  12   1     0.02  -0.03  -0.01     0.04  -0.04   0.00    -0.11   0.14   0.02
  13   1    -0.00  -0.01  -0.00    -0.02  -0.01  -0.01    -0.08   0.11   0.02
  14   1    -0.03  -0.03  -0.01    -0.09  -0.02  -0.02     0.25   0.02   0.09
  15   1     0.01  -0.04   0.03     0.03  -0.07   0.06     0.08   0.06  -0.06
  16   1     0.05   0.04   0.01     0.16   0.17  -0.13     0.05  -0.01  -0.10
  17   1     0.01   0.01   0.00     0.04  -0.08  -0.11     0.09  -0.22  -0.04
  18   1     0.05  -0.01   0.08     0.03   0.10   0.07    -0.14   0.01  -0.00
  19   1     0.05  -0.14  -0.05    -0.01  -0.17  -0.14     0.05   0.01  -0.05
  20   1     0.22  -0.08   0.14     0.07  -0.19   0.17     0.01  -0.04   0.04
  21   1     0.08   0.14  -0.10    -0.07  -0.06   0.05     0.02  -0.05   0.06
  22   1     0.01   0.01  -0.09    -0.05  -0.01   0.04    -0.02   0.02   0.03
  23   1     0.02  -0.07   0.03    -0.02  -0.05  -0.08     0.01   0.04   0.07
  24   1    -0.07   0.03  -0.06    -0.09  -0.07   0.02     0.13   0.04  -0.02
  25   1    -0.20   0.03  -0.10     0.01  -0.00   0.03    -0.06   0.03  -0.07
  26   1    -0.06   0.10   0.01    -0.00  -0.01   0.02    -0.10  -0.02   0.00
  27   1    -0.01  -0.06   0.05     0.03  -0.19  -0.17    -0.04   0.04  -0.03
  28   1    -0.10  -0.10   0.02     0.02   0.20  -0.26    -0.12   0.06  -0.05
                     16                     17                     18
                        a                      a                      a 
 Frequencies --   555.3078               782.4342               820.8824
 Red. masses --     5.9453                 5.7222                 4.4622
 Frc consts  --     0.0000                 0.0000                 0.0000
 IR Inten    --     1.6502                17.3881                 0.8207
 Raman Activ --     0.0000                 0.0000                 0.0000
 Depolar     --     0.0000                 0.0000                 0.0000
 Atom AN      X      Y      Z        X      Y      Z        X      Y      Z
   1   7     0.01  -0.05  -0.02     0.02   0.04   0.05    -0.02  -0.01  -0.00
   2   6    -0.00  -0.00  -0.03     0.16   0.07  -0.07    -0.02  -0.01   0.01
   3   6     0.19   0.30  -0.04     0.17   0.06  -0.21     0.01   0.00   0.00
   4   6     0.17   0.05   0.01     0.01  -0.18  -0.19    -0.04   0.11  -0.14
   5   6    -0.16  -0.04  -0.04     0.05  -0.12   0.32    -0.19   0.15   0.08
   6   6    -0.11  -0.27   0.13    -0.05  -0.11   0.14    -0.15   0.00   0.21
   7   6     0.21   0.02  -0.07    -0.03   0.04   0.04     0.03  -0.09   0.12
   8   6    -0.18   0.03  -0.19    -0.08   0.08  -0.08     0.19  -0.13  -0.06
   9   6    -0.07  -0.17   0.07    -0.09   0.20  -0.13     0.15  -0.03  -0.22
  10  17     0.00  -0.00   0.00     0.00   0.00   0.00    -0.00   0.00   0.00
  11   1     0.01   0.01   0.01    -0.03  -0.07  -0.05     0.01   0.03   0.01
  12   1     0.02  -0.03   0.00    -0.09   0.11   0.15     0.02  -0.03  -0.04
  13   1     0.01  -0.03  -0.01    -0.07  -0.07  -0.03     0.01   0.03   0.02
  14   1    -0.11  -0.02  -0.03    -0.26  -0.06  -0.10     0.06   0.03   0.03
  15   1     0.05  -0.08   0.08     0.09  -0.09   0.28    -0.01   0.01  -0.07
  16   1     0.08   0.09  -0.02    -0.06  -0.21   0.17    -0.00   0.00  -0.01
  17   1     0.05   0.06  -0.02     0.02   0.31   0.09     0.04  -0.00   0.01
  18   1     0.12   0.03   0.00    -0.09  -0.08  -0.04     0.02  -0.04   0.04
  19   1    -0.03   0.09   0.12    -0.00  -0.02   0.14    -0.05  -0.12  -0.25
  20   1    -0.18   0.04  -0.08     0.01   0.01   0.04     0.21  -0.07   0.17
  21   1    -0.07  -0.20   0.18     0.04   0.07  -0.08     0.08   0.21  -0.17
  22   1    -0.07   0.11   0.12    -0.08  -0.18  -0.05     0.00  -0.30  -0.07
  23   1    -0.05   0.16   0.14     0.02  -0.03  -0.04    -0.00   0.00  -0.01
  24   1     0.28   0.08  -0.03    -0.08  -0.01   0.01    -0.02   0.03  -0.03
  25   1    -0.20   0.10  -0.17     0.07  -0.03   0.04    -0.21   0.07  -0.16
  26   1    -0.04   0.13   0.13    -0.07  -0.09  -0.10     0.06   0.13   0.24
  27   1    -0.01   0.10   0.09    -0.04   0.10  -0.02    -0.01   0.29   0.08
  28   1    -0.08  -0.14   0.12     0.01   0.01   0.02    -0.08  -0.22   0.17
                     19                     20                     21
                        a                      a                      a 
 Frequencies --   839.9874               872.1609               889.5297
 Red. masses --     5.3829                 5.7167                 6.1183
 Frc consts  --     0.0000                 0.0000                 0.0000
 IR Inten    --    12.1756                12.6054                 7.2436
 Raman Activ --     0.0000                 0.0000                 0.0000
 Depolar     --     0.0000                 0.0000                 0.0000
 Atom AN      X      Y      Z        X      Y      Z        X      Y      Z
   1   7     0.04   0.08   0.06    -0.10   0.10   0.14    -0.03  -0.05   0.09
   2   6     0.12   0.05  -0.10    -0.15  -0.11  -0.08    -0.02  -0.09   0.04
   3   6     0.01  -0.14  -0.11     0.13  -0.13  -0.16     0.10   0.09  -0.17
   4   6    -0.13   0.08   0.09     0.11   0.06  -0.05    -0.00  -0.01  -0.10
   5   6    -0.15   0.17  -0.13     0.17   0.12   0.13    -0.11  -0.10   0.12
   6   6    -0.03   0.18  -0.17    -0.04  -0.14   0.01    -0.11   0.15  -0.10
   7   6     0.11  -0.13  -0.12    -0.33  -0.17  -0.07     0.36   0.10  -0.14
   8   6     0.13  -0.15   0.17    -0.06  -0.02  -0.07     0.09  -0.06   0.27
   9   6     0.02  -0.12   0.19     0.11   0.11   0.10    -0.22  -0.11   0.03
  10  17     0.00   0.00   0.00    -0.00  -0.00  -0.00    -0.00  -0.00   0.00
  11   1    -0.04  -0.09  -0.04     0.03   0.12   0.03     0.05   0.02  -0.11
  12   1    -0.11   0.15   0.20     0.09  -0.09  -0.17     0.08  -0.10  -0.23
  13   1    -0.07  -0.11  -0.05     0.02   0.22   0.12    -0.02   0.31   0.15
  14   1    -0.20  -0.09  -0.10     0.07   0.15   0.07     0.06   0.19   0.11
  15   1     0.02  -0.01   0.23    -0.04   0.00  -0.22     0.04  -0.05  -0.20
  16   1     0.00  -0.16   0.11     0.03  -0.19   0.13    -0.00  -0.09   0.09
  17   1    -0.08   0.13   0.04     0.07   0.17   0.07     0.05   0.18   0.04
  18   1    -0.15  -0.02   0.04    -0.07  -0.02   0.00    -0.02  -0.01  -0.02
  19   1    -0.09  -0.12  -0.21     0.04  -0.00  -0.01    -0.07  -0.05   0.07
  20   1     0.11  -0.06   0.10     0.10   0.01   0.06    -0.05  -0.02   0.02
  21   1     0.04  -0.03   0.06     0.09  -0.06   0.05    -0.04   0.02  -0.01
  22   1    -0.01   0.16   0.00    -0.00  -0.02   0.01    -0.17   0.08  -0.05
  23   1    -0.05   0.07   0.09    -0.25   0.18   0.21     0.17  -0.06  -0.18
  24   1     0.21   0.04  -0.05     0.24   0.07  -0.03    -0.06  -0.03  -0.02
  25   1    -0.04   0.08  -0.09     0.06   0.06  -0.07    -0.00  -0.01   0.06
  26   1     0.05   0.07   0.20     0.02   0.02  -0.05    -0.03  -0.04   0.14
  27   1    -0.02  -0.19  -0.03     0.02  -0.08  -0.03    -0.16  -0.08  -0.05
  28   1     0.01   0.08  -0.08     0.09   0.11  -0.06    -0.03   0.01  -0.03
                     22                     23                     24
                        a                      a                      a 
 Frequencies --   909.3035               923.5150               928.8948
 Red. masses --     7.7360                 5.5853                 4.0024
 Frc consts  --     0.0000                 0.0000                 0.0000
 IR Inten    --     4.8903                 9.9808                 1.5601
 Raman Activ --     0.0000                 0.0000                 0.0000
 Depolar     --     0.0000                 0.0000                 0.0000
 Atom AN      X      Y      Z        X      Y      Z        X      Y      Z
   1   7     0.17  -0.35  -0.19     0.11  -0.04   0.13    -0.02   0.06  -0.04
   2   6     0.13   0.12   0.32     0.02  -0.08  -0.03    -0.02  -0.01  -0.00
   3   6    -0.22   0.32  -0.00    -0.06  -0.03  -0.17     0.01  -0.03   0.06
   4   6    -0.10  -0.10  -0.12    -0.17   0.21   0.14    -0.00   0.05  -0.10
   5   6     0.05   0.10   0.06     0.10  -0.01  -0.16     0.20  -0.14   0.01
   6   6    -0.04  -0.06   0.05     0.10  -0.18   0.10    -0.13  -0.00   0.21
   7   6    -0.11  -0.08  -0.10    -0.13   0.19   0.12    -0.02   0.05  -0.11
   8   6     0.04   0.05   0.04     0.12   0.04  -0.16     0.18  -0.16   0.02
   9   6    -0.01  -0.03   0.10     0.06  -0.21   0.07    -0.14   0.01   0.19
  10  17     0.00   0.00   0.01     0.00   0.00   0.01     0.00  -0.00  -0.00
  11   1     0.03  -0.24  -0.29     0.02  -0.18  -0.26    -0.02   0.05   0.10
  12   1    -0.05   0.01  -0.09    -0.09   0.12  -0.02     0.00   0.00   0.07
  13   1    -0.07   0.10   0.01    -0.13   0.22   0.10     0.04  -0.13  -0.06
  14   1     0.04   0.05   0.09    -0.06   0.09   0.03     0.06  -0.08  -0.02
  15   1     0.07  -0.01   0.05    -0.01   0.00  -0.00    -0.04   0.04   0.01
  16   1    -0.21   0.15  -0.10     0.05  -0.12   0.10     0.01   0.04  -0.04
  17   1    -0.01   0.02  -0.03    -0.10   0.15   0.02     0.06  -0.07  -0.01
  18   1    -0.02  -0.03  -0.02    -0.10   0.06   0.01    -0.04   0.16  -0.20
  19   1     0.02  -0.01  -0.06     0.14   0.16  -0.02     0.07   0.11   0.22
  20   1     0.14   0.04   0.02    -0.15  -0.03  -0.04    -0.03   0.15  -0.20
  21   1     0.12   0.02   0.00    -0.13  -0.03  -0.03    -0.06   0.18  -0.18
  22   1    -0.04  -0.07  -0.02     0.16  -0.07   0.06    -0.04  -0.25  -0.07
  23   1    -0.13   0.12   0.06     0.04  -0.04  -0.11    -0.02   0.04  -0.02
  24   1     0.15   0.04  -0.03    -0.21   0.01   0.02    -0.04   0.17  -0.20
  25   1     0.11   0.06  -0.02    -0.13  -0.03  -0.03    -0.05   0.15  -0.20
  26   1     0.02  -0.00  -0.03     0.16   0.17  -0.04     0.05   0.10   0.23
  27   1    -0.04  -0.10  -0.03     0.14  -0.06   0.06    -0.06  -0.24  -0.07
  28   1     0.11   0.06  -0.02    -0.15  -0.05  -0.02    -0.06   0.17  -0.16
                     25                     26                     27
                        a                      a                      a 
 Frequencies --   952.5771               962.9488               999.8942
 Red. masses --     6.6684                 6.8856                 5.3462
 Frc consts  --     0.0000                 0.0000                 0.0000
 IR Inten    --     1.5617                16.1592                 7.7667
 Raman Activ --     0.0000                 0.0000                 0.0000
 Depolar     --     0.0000                 0.0000                 0.0000
 Atom AN      X      Y      Z        X      Y      Z        X      Y      Z
   1   7     0.01  -0.09   0.04    -0.13   0.08   0.03    -0.18  -0.11  -0.19
   2   6     0.03   0.05  -0.01     0.10  -0.02  -0.04     0.18   0.24   0.23
   3   6     0.00   0.05  -0.02     0.16   0.08   0.02     0.08   0.01  -0.08
   4   6     0.06  -0.16   0.15    -0.18  -0.09  -0.02    -0.21  -0.06   0.03
   5   6    -0.22  -0.16  -0.18    -0.21   0.15  -0.19     0.07  -0.03   0.02
   6   6     0.05   0.28   0.06     0.05  -0.13   0.26     0.09   0.01  -0.14
   7   6     0.09  -0.18   0.20     0.13   0.08  -0.02    -0.13   0.04   0.08
   8   6    -0.14  -0.11  -0.23    -0.09   0.23  -0.13     0.14  -0.10  -0.02
   9   6     0.15   0.26   0.08    -0.08  -0.24   0.24     0.02   0.04  -0.03
  10  17    -0.00   0.00   0.00    -0.00  -0.00  -0.00    -0.00  -0.00  -0.01
  11   1     0.03  -0.03  -0.11     0.01   0.18   0.17     0.02   0.24   0.22
  12   1     0.03  -0.04  -0.12     0.10  -0.12  -0.07     0.17  -0.26  -0.17
  13   1    -0.03   0.17   0.08     0.08  -0.02   0.01     0.16  -0.09  -0.04
  14   1    -0.11   0.12   0.03    -0.02  -0.00  -0.01    -0.06   0.03   0.03
  15   1     0.07  -0.07  -0.01     0.11  -0.12   0.00     0.19  -0.13   0.10
  16   1     0.01  -0.00   0.01     0.06   0.02   0.00    -0.21  -0.06   0.01
  17   1    -0.13   0.03  -0.02     0.03   0.01   0.00     0.07   0.09   0.04
  18   1    -0.00   0.03  -0.04    -0.04  -0.03  -0.00    -0.23  -0.08   0.04
  19   1    -0.15  -0.08   0.08    -0.01  -0.02  -0.25     0.07   0.06   0.01
  20   1    -0.08   0.02  -0.12     0.14   0.01   0.01    -0.13  -0.06   0.04
  21   1    -0.06   0.15  -0.10     0.12   0.09  -0.07    -0.11  -0.09   0.05
  22   1     0.15  -0.04   0.01     0.05  -0.22  -0.01     0.09   0.13   0.05
  23   1     0.09  -0.19   0.25     0.07  -0.02  -0.07    -0.02  -0.01   0.00
  24   1    -0.02   0.08  -0.09    -0.04  -0.02   0.01    -0.06   0.01   0.01
  25   1     0.02   0.09  -0.17     0.17  -0.00   0.06    -0.13  -0.00  -0.05
  26   1    -0.13  -0.07   0.06    -0.01  -0.04  -0.23     0.10   0.10   0.09
  27   1     0.18  -0.03   0.01     0.05  -0.25  -0.00     0.08   0.03   0.02
  28   1     0.06   0.14  -0.06     0.11   0.06  -0.05    -0.14   0.00  -0.03
                     28                     29                     30
                        a                      a                      a 
 Frequencies --  1026.6618              1054.5858              1069.3412
 Red. masses --     6.1760                 8.7113                 3.4984
 Frc consts  --     0.0000                 0.0000                 0.0000
 IR Inten    --     4.7932                 5.9408                 0.5508
 Raman Activ --     0.0000                 0.0000                 0.0000
 Depolar     --     0.0000                 0.0000                 0.0000
 Atom AN      X      Y      Z        X      Y      Z        X      Y      Z
   1   7     0.09  -0.08  -0.22    -0.02  -0.20  -0.15     0.02   0.00  -0.02
   2   6    -0.25   0.12   0.25    -0.13   0.38   0.11    -0.06  -0.00   0.03
   3   6     0.11  -0.06  -0.17     0.07  -0.33   0.03     0.03  -0.01  -0.02
   4   6     0.09   0.20  -0.11     0.32   0.01   0.22     0.10  -0.04   0.01
   5   6    -0.14  -0.02   0.08     0.11   0.18  -0.17    -0.15  -0.08   0.00
   6   6    -0.02   0.01   0.00    -0.12  -0.16   0.09     0.26   0.00   0.07
   7   6     0.13  -0.00   0.10     0.09   0.11  -0.11    -0.14   0.07  -0.06
   8   6    -0.14   0.01  -0.14    -0.11  -0.04   0.06     0.13   0.07   0.05
   9   6     0.14  -0.08   0.18    -0.08   0.08  -0.01    -0.22  -0.03  -0.07
  10  17    -0.00   0.00  -0.00    -0.00   0.00   0.00     0.00   0.00  -0.00
  11   1    -0.03  -0.07   0.01     0.01  -0.03  -0.05    -0.01  -0.02  -0.00
  12   1    -0.05   0.05   0.10     0.03  -0.08  -0.10    -0.02   0.02   0.03
  13   1     0.01  -0.20  -0.13     0.01   0.01  -0.01    -0.01  -0.03  -0.02
  14   1     0.19  -0.02   0.08    -0.22   0.17   0.03     0.04  -0.01   0.01
  15   1    -0.22   0.26  -0.08    -0.04   0.09   0.10    -0.05   0.05  -0.02
  16   1    -0.11  -0.12   0.05     0.06  -0.13   0.07     0.00  -0.02   0.02
  17   1     0.33   0.13   0.10    -0.16  -0.04  -0.00     0.03   0.02   0.01
  18   1    -0.09   0.03  -0.03     0.11  -0.02   0.09     0.11  -0.18   0.21
  19   1    -0.05  -0.04  -0.02     0.03   0.02  -0.09     0.02   0.01  -0.06
  20   1    -0.08  -0.09   0.10     0.09   0.04  -0.02    -0.22  -0.21   0.16
  21   1    -0.06   0.00  -0.01    -0.03   0.01  -0.05    -0.13   0.01  -0.03
  22   1    -0.03   0.01  -0.00     0.00  -0.11  -0.00     0.34  -0.01   0.10
  23   1     0.11  -0.14   0.07     0.01   0.09  -0.18    -0.03  -0.01   0.07
  24   1    -0.06  -0.03   0.02    -0.05   0.01  -0.04    -0.07   0.21  -0.23
  25   1    -0.01  -0.03   0.00    -0.03  -0.03   0.03     0.22   0.19  -0.13
  26   1    -0.01  -0.00  -0.09    -0.13  -0.10   0.06     0.01   0.00   0.03
  27   1     0.11  -0.11   0.02    -0.06   0.02  -0.01    -0.37   0.02  -0.10
  28   1     0.04   0.05  -0.04    -0.05   0.03  -0.02     0.19  -0.03   0.07
                     31                     32                     33
                        a                      a                      a 
 Frequencies --  1072.5523              1105.9852              1115.6230
 Red. masses --     5.3634                 7.7193                 6.1057
 Frc consts  --     0.0000                 0.0000                 0.0000
 IR Inten    --     2.2687                 1.6001                 0.6014
 Raman Activ --     0.0000                 0.0000                 0.0000
 Depolar     --     0.0000                 0.0000                 0.0000
 Atom AN      X      Y      Z        X      Y      Z        X      Y      Z
   1   7    -0.01   0.07   0.06    -0.01  -0.09  -0.03    -0.03  -0.05  -0.02
   2   6     0.07  -0.14  -0.03    -0.04   0.22  -0.03     0.02   0.14  -0.00
   3   6    -0.07   0.13  -0.03     0.12  -0.12   0.13     0.02  -0.13   0.07
   4   6    -0.12  -0.00   0.03    -0.28   0.18  -0.20    -0.10   0.13  -0.06
   5   6     0.22   0.17  -0.05    -0.12  -0.21   0.11     0.19   0.04   0.05
   6   6    -0.20  -0.11  -0.05     0.23   0.06   0.08    -0.28   0.08  -0.09
   7   6     0.11   0.06  -0.08    -0.08   0.09  -0.22     0.10  -0.25   0.23
   8   6    -0.24  -0.18   0.08    -0.17  -0.12   0.17     0.14   0.21  -0.13
   9   6     0.25   0.07   0.05     0.29  -0.07   0.01    -0.10  -0.18  -0.05
  10  17     0.00  -0.00  -0.00    -0.00   0.00   0.00    -0.00   0.00   0.00
  11   1    -0.01   0.02   0.03     0.01  -0.01  -0.04     0.01   0.01  -0.01
  12   1    -0.00   0.02   0.03     0.01  -0.04  -0.06     0.02  -0.04  -0.05
  13   1    -0.00  -0.01   0.00    -0.00   0.05   0.02     0.01   0.03   0.01
  14   1     0.09  -0.08  -0.02    -0.17   0.11  -0.01    -0.11   0.06  -0.01
  15   1     0.03  -0.06  -0.00     0.01   0.01   0.07     0.02   0.01   0.08
  16   1    -0.07   0.03  -0.02     0.26   0.02   0.03     0.15  -0.02   0.03
  17   1     0.02   0.03  -0.00    -0.04  -0.08  -0.01    -0.08  -0.05  -0.01
  18   1    -0.04  -0.15   0.16    -0.00   0.15  -0.15     0.08   0.00   0.04
  19   1     0.25   0.21  -0.15     0.09   0.08   0.00     0.14   0.12   0.00
  20   1    -0.07  -0.07   0.08    -0.12  -0.04   0.00    -0.03   0.02  -0.00
  21   1    -0.29  -0.01  -0.08     0.17   0.02   0.03    -0.23   0.02  -0.06
  22   1    -0.10  -0.02  -0.03    -0.12  -0.00  -0.05    -0.24   0.04  -0.07
  23   1     0.08  -0.08  -0.00    -0.01  -0.03   0.09     0.09  -0.21   0.29
  24   1    -0.10   0.12  -0.17     0.01   0.10  -0.13     0.06  -0.05   0.06
  25   1     0.03   0.02  -0.03    -0.06  -0.08   0.09     0.23   0.13  -0.08
  26   1    -0.25  -0.20   0.14     0.03   0.01  -0.03     0.12   0.09  -0.15
  27   1     0.09   0.03   0.03    -0.05   0.05  -0.00    -0.17  -0.00  -0.04
  28   1     0.27  -0.01   0.09     0.24  -0.07   0.10     0.10  -0.08   0.05
                     34                     35                     36
                        a                      a                      a 
 Frequencies --  1121.4237              1154.7351              1192.9131
 Red. masses --     7.6636                 7.7848                 4.1416
 Frc consts  --     0.0000                 0.0000                 0.0000
 IR Inten    --     4.2578                 5.2672                 0.5645
 Raman Activ --     0.0000                 0.0000                 0.0000
 Depolar     --     0.0000                 0.0000                 0.0000
 Atom AN      X      Y      Z        X      Y      Z        X      Y      Z
   1   7    -0.09   0.02   0.06    -0.06   0.04  -0.08     0.03   0.06  -0.06
   2   6     0.27  -0.09  -0.02     0.15  -0.11   0.23    -0.06  -0.11   0.13
   3   6    -0.37  -0.15  -0.07    -0.17  -0.02  -0.31     0.05   0.12  -0.12
   4   6     0.38   0.31  -0.13    -0.05   0.22   0.22     0.05  -0.21   0.21
   5   6    -0.11   0.02   0.11     0.04  -0.19  -0.15    -0.05  -0.04  -0.19
   6   6     0.04  -0.07   0.04    -0.03   0.19   0.16     0.06  -0.04   0.07
   7   6     0.04   0.09  -0.00     0.02  -0.18  -0.16    -0.03   0.08  -0.08
   8   6    -0.12  -0.05  -0.06    -0.04   0.17   0.16    -0.00  -0.09   0.05
   9   6     0.09   0.01   0.13     0.05  -0.16  -0.17    -0.00   0.21  -0.01
  10  17    -0.00  -0.00  -0.00    -0.00  -0.00  -0.00     0.00   0.00  -0.00
  11   1     0.01   0.08   0.04    -0.02   0.07   0.10    -0.03  -0.01   0.04
  12   1     0.05  -0.07  -0.05     0.03  -0.04   0.03    -0.01   0.03   0.08
  13   1     0.04   0.05   0.04     0.06  -0.09  -0.05     0.00  -0.09  -0.06
  14   1    -0.02  -0.09  -0.05     0.13  -0.05   0.07     0.10   0.03   0.08
  15   1     0.11  -0.10   0.09     0.00   0.03   0.02    -0.01  -0.01  -0.07
  16   1    -0.33  -0.04  -0.07     0.01  -0.14   0.09     0.06  -0.03   0.05
  17   1    -0.19  -0.04  -0.04    -0.13   0.17  -0.00    -0.14   0.09  -0.03
  18   1     0.11   0.14  -0.09     0.11   0.09   0.04     0.00  -0.13   0.14
  19   1    -0.03  -0.03  -0.03    -0.01   0.03   0.12     0.14   0.12  -0.13
  20   1    -0.06  -0.10   0.13    -0.08   0.04  -0.14     0.04   0.05  -0.10
  21   1     0.02  -0.03   0.02     0.06   0.15  -0.07     0.19   0.01   0.03
  22   1    -0.08  -0.01  -0.01     0.05  -0.10  -0.01    -0.36  -0.03  -0.11
  23   1     0.08  -0.11   0.06    -0.10   0.11   0.01     0.09  -0.21   0.24
  24   1    -0.06   0.02  -0.02     0.16   0.00  -0.04    -0.02   0.03  -0.04
  25   1    -0.06  -0.04   0.01     0.12  -0.01   0.11    -0.16  -0.10   0.06
  26   1     0.09   0.09  -0.10    -0.10  -0.11  -0.03     0.27   0.23  -0.12
  27   1    -0.17  -0.05  -0.06     0.09   0.11   0.06    -0.23   0.05  -0.07
  28   1     0.03   0.06  -0.04    -0.01  -0.14   0.08    -0.05   0.06  -0.02
                     37                     38                     39
                        a                      a                      a 
 Frequencies --  1202.5398              1232.3441              1240.0759
 Red. masses --     4.6790                 3.1499                 2.9483
 Frc consts  --     0.0000                 0.0000                 0.0000
 IR Inten    --     3.1633                13.7904                 4.4227
 Raman Activ --     0.0000                 0.0000                 0.0000
 Depolar     --     0.0000                 0.0000                 0.0000
 Atom AN      X      Y      Z        X      Y      Z        X      Y      Z
   1   7     0.02  -0.05   0.12    -0.15  -0.16   0.15    -0.05  -0.06   0.04
   2   6    -0.08   0.11  -0.25     0.11   0.15  -0.09     0.04   0.04   0.01
   3   6     0.12  -0.04   0.16    -0.02   0.03  -0.10    -0.00   0.06  -0.01
   4   6     0.10   0.02   0.06    -0.01  -0.02   0.07    -0.09  -0.01  -0.00
   5   6     0.02  -0.07  -0.13    -0.06  -0.06  -0.06     0.09  -0.01   0.00
   6   6    -0.03   0.13   0.16     0.07  -0.01  -0.02    -0.13   0.10   0.06
   7   6     0.04  -0.16  -0.19    -0.08   0.09   0.09     0.15  -0.11  -0.07
   8   6    -0.04   0.13   0.16     0.06  -0.04  -0.03    -0.11  -0.11  -0.12
   9   6     0.01  -0.03  -0.06    -0.06   0.02  -0.01     0.10   0.13   0.10
  10  17     0.00  -0.00   0.00    -0.00  -0.00   0.00    -0.00  -0.00   0.00
  11   1     0.03  -0.03  -0.09     0.05   0.06  -0.07     0.02   0.03  -0.01
  12   1    -0.01   0.01  -0.08     0.04  -0.12  -0.19     0.01  -0.04  -0.06
  13   1    -0.05   0.10   0.07     0.02   0.17   0.13     0.01   0.05   0.04
  14   1    -0.06  -0.08  -0.12     0.21  -0.45  -0.21     0.10  -0.17  -0.06
  15   1    -0.00  -0.02   0.03    -0.22   0.35   0.25    -0.08   0.13   0.08
  16   1    -0.40   0.05  -0.12     0.06  -0.02   0.02     0.14   0.02   0.03
  17   1     0.31  -0.08   0.06     0.12   0.06   0.02    -0.05   0.02  -0.01
  18   1    -0.20  -0.11   0.10     0.12  -0.03   0.07    -0.10  -0.09   0.08
  19   1     0.10   0.10  -0.03     0.05   0.05  -0.04    -0.07  -0.06   0.11
  20   1    -0.17  -0.10   0.02     0.04   0.03  -0.06    -0.01   0.01  -0.02
  21   1    -0.05   0.12  -0.08     0.20  -0.03   0.07    -0.20   0.08  -0.09
  22   1    -0.03  -0.09  -0.03    -0.19   0.03  -0.05     0.31  -0.06   0.08
  23   1    -0.03  -0.01   0.12     0.01  -0.02   0.01    -0.04   0.13  -0.18
  24   1     0.14   0.02  -0.07    -0.06  -0.00   0.04     0.13  -0.17   0.16
  25   1    -0.03  -0.10   0.17     0.06   0.09  -0.10    -0.25  -0.19   0.09
  26   1     0.09   0.05  -0.13    -0.06  -0.05   0.09     0.20   0.17  -0.16
  27   1     0.05   0.04   0.03     0.06  -0.01   0.01    -0.33  -0.00  -0.10
  28   1    -0.25  -0.03  -0.04     0.03   0.01   0.01     0.25   0.06   0.05
                     40                     41                     42
                        a                      a                      a 
 Frequencies --  1244.4793              1259.8208              1295.6274
 Red. masses --     3.2779                 3.6109                 2.9783
 Frc consts  --     0.0000                 0.0000                 0.0000
 IR Inten    --     1.0335                 2.7421                 1.2839
 Raman Activ --     0.0000                 0.0000                 0.0000
 Depolar     --     0.0000                 0.0000                 0.0000
 Atom AN      X      Y      Z        X      Y      Z        X      Y      Z
   1   7     0.04   0.04  -0.02     0.04   0.01   0.01     0.01  -0.04   0.00
   2   6    -0.04  -0.02  -0.01    -0.03   0.03  -0.07    -0.07  -0.03   0.03
   3   6     0.02  -0.04   0.03     0.03  -0.07   0.03     0.19   0.10   0.05
   4   6     0.05   0.05  -0.03    -0.12   0.25   0.23     0.13  -0.05   0.10
   5   6    -0.01  -0.16  -0.09     0.08  -0.08  -0.14    -0.04  -0.00   0.02
   6   6     0.02   0.24   0.10    -0.02  -0.11  -0.04     0.01   0.02  -0.02
   7   6    -0.05  -0.01   0.13    -0.00   0.13   0.08    -0.02   0.01   0.05
   8   6     0.05  -0.10  -0.21    -0.04  -0.08  -0.05    -0.02   0.09  -0.05
   9   6    -0.04   0.02   0.10     0.08  -0.07  -0.07     0.23  -0.15  -0.05
  10  17     0.00   0.00   0.00     0.00  -0.00   0.00    -0.00  -0.00  -0.00
  11   1    -0.02  -0.03   0.00     0.01  -0.00  -0.00     0.02   0.04   0.02
  12   1    -0.01   0.03   0.04    -0.02   0.03  -0.00    -0.02   0.02  -0.02
  13   1    -0.01  -0.04  -0.03    -0.03  -0.00  -0.00    -0.02   0.02   0.01
  14   1    -0.06   0.11   0.04    -0.08   0.06  -0.01     0.11  -0.09  -0.01
  15   1     0.06  -0.11  -0.04     0.08  -0.11  -0.07    -0.09   0.09   0.01
  16   1    -0.11  -0.01  -0.02    -0.30  -0.01  -0.06    -0.07   0.03  -0.02
  17   1     0.02  -0.03   0.00     0.24  -0.00   0.07    -0.36   0.01  -0.08
  18   1     0.07  -0.09   0.11    -0.15  -0.05   0.16    -0.55   0.13  -0.25
  19   1     0.23   0.20  -0.10    -0.22  -0.17   0.21     0.08   0.07  -0.06
  20   1    -0.27  -0.16   0.06     0.20   0.22  -0.24     0.01  -0.00   0.01
  21   1     0.24   0.10   0.03     0.19  -0.06   0.07     0.01  -0.01   0.01
  22   1    -0.20  -0.00  -0.07    -0.05  -0.01  -0.01    -0.01   0.01  -0.00
  23   1    -0.11   0.22  -0.25     0.05  -0.04  -0.01    -0.01   0.03  -0.03
  24   1     0.08  -0.26   0.34    -0.09   0.01   0.01    -0.01  -0.02   0.04
  25   1    -0.01   0.06  -0.14     0.09   0.10  -0.11     0.13   0.09  -0.07
  26   1    -0.11  -0.08   0.11    -0.01  -0.00   0.01    -0.17  -0.15   0.04
  27   1    -0.07  -0.06  -0.03    -0.25   0.06  -0.06    -0.34   0.05  -0.09
  28   1     0.15   0.05   0.01     0.28  -0.08   0.11    -0.16  -0.08  -0.01
                     43                     44                     45
                        a                      a                      a 
 Frequencies --  1313.5433              1323.4151              1336.0877
 Red. masses --     3.5473                 3.5015                 3.9784
 Frc consts  --     0.0000                 0.0000                 0.0000
 IR Inten    --     3.1580                 6.5152                 1.2780
 Raman Activ --     0.0000                 0.0000                 0.0000
 Depolar     --     0.0000                 0.0000                 0.0000
 Atom AN      X      Y      Z        X      Y      Z        X      Y      Z
   1   7    -0.04  -0.04  -0.07     0.06   0.05   0.10     0.01  -0.03   0.01
   2   6     0.17  -0.17   0.01    -0.23   0.29   0.09    -0.04   0.00   0.00
   3   6    -0.02   0.08   0.12    -0.11  -0.05  -0.03     0.09   0.01  -0.02
   4   6     0.07   0.13  -0.23     0.09   0.08  -0.12     0.03  -0.12   0.19
   5   6     0.17   0.05  -0.15     0.08   0.04  -0.08     0.06   0.15  -0.08
   6   6     0.04  -0.03   0.08     0.03  -0.01   0.04     0.08   0.01   0.01
   7   6    -0.01  -0.00   0.03    -0.00  -0.01   0.03     0.09  -0.16   0.20
   8   6     0.01   0.01   0.02     0.00   0.03   0.00    -0.11  -0.10   0.06
   9   6    -0.05  -0.02   0.02    -0.00  -0.02   0.02    -0.21   0.03  -0.15
  10  17    -0.00  -0.00  -0.00     0.00   0.00   0.00    -0.00  -0.00  -0.00
  11   1     0.01   0.08   0.08    -0.00  -0.10  -0.13     0.04   0.06  -0.00
  12   1    -0.02  -0.00   0.02     0.04  -0.01  -0.06    -0.05   0.05  -0.00
  13   1     0.01   0.04   0.01    -0.01  -0.08  -0.02     0.00   0.01   0.01
  14   1    -0.14   0.17   0.06     0.27  -0.35  -0.10     0.04  -0.04  -0.01
  15   1    -0.19   0.27   0.06     0.31  -0.41  -0.13    -0.01   0.00  -0.02
  16   1     0.12   0.08  -0.01     0.28  -0.03   0.07    -0.13  -0.02  -0.01
  17   1    -0.19  -0.04  -0.05    -0.08  -0.02  -0.02    -0.04   0.01  -0.01
  18   1    -0.29  -0.30   0.25    -0.17  -0.14   0.10    -0.06   0.25  -0.28
  19   1    -0.26  -0.21   0.19    -0.15  -0.12   0.11    -0.07  -0.06  -0.00
  20   1    -0.20  -0.13   0.06    -0.11  -0.08   0.05    -0.14  -0.13   0.13
  21   1     0.10  -0.00   0.03     0.05  -0.00   0.01    -0.02   0.01  -0.01
  22   1    -0.19  -0.05  -0.06    -0.11  -0.03  -0.04    -0.21   0.04  -0.06
  23   1    -0.01   0.01   0.00    -0.01   0.01  -0.01    -0.08   0.19  -0.24
  24   1    -0.04   0.05  -0.06    -0.03   0.04  -0.04    -0.07   0.16  -0.19
  25   1     0.00   0.00   0.01     0.01   0.00   0.01     0.04   0.04  -0.05
  26   1     0.00  -0.00   0.00    -0.02  -0.02   0.00     0.23   0.18  -0.16
  27   1     0.16  -0.03   0.04     0.05  -0.01   0.01     0.17   0.05   0.05
  28   1    -0.01   0.01  -0.02    -0.05   0.00  -0.02     0.33  -0.04   0.10
                     46                     47                     48
                        a                      a                      a 
 Frequencies --  1341.6367              1354.6704              1356.6266
 Red. masses --     4.0827                 4.4707                 4.6272
 Frc consts  --     0.0000                 0.0000                 0.0000
 IR Inten    --     0.6097                 4.2772                 1.2734
 Raman Activ --     0.0000                 0.0000                 0.0000
 Depolar     --     0.0000                 0.0000                 0.0000
 Atom AN      X      Y      Z        X      Y      Z        X      Y      Z
   1   7    -0.01   0.01   0.00    -0.03   0.02  -0.00    -0.00   0.03   0.02
   2   6     0.01  -0.01   0.00     0.08  -0.02  -0.02    -0.07   0.00   0.01
   3   6    -0.01  -0.01   0.00    -0.17   0.00  -0.03     0.21  -0.02   0.05
   4   6    -0.01   0.07  -0.10    -0.01  -0.05   0.08    -0.04   0.13  -0.16
   5   6    -0.16  -0.09   0.07    -0.02   0.02  -0.03    -0.04  -0.18   0.10
   6   6     0.30   0.02   0.03     0.16   0.01  -0.03    -0.23   0.05  -0.17
   7   6     0.03  -0.07   0.08     0.00  -0.24   0.21     0.13  -0.16   0.22
   8   6    -0.25  -0.14   0.12     0.15   0.24  -0.19    -0.04   0.06  -0.02
   9   6     0.17   0.01   0.02     0.12  -0.02   0.10    -0.02   0.00   0.06
  10  17     0.00   0.00  -0.00     0.00   0.00   0.00     0.00   0.00   0.00
  11   1    -0.00  -0.00  -0.02    -0.01  -0.01  -0.03    -0.03  -0.06  -0.04
  12   1     0.00  -0.00   0.00     0.03  -0.03   0.00     0.04  -0.04  -0.01
  13   1     0.02  -0.02  -0.01     0.04  -0.02  -0.00     0.01  -0.03  -0.01
  14   1    -0.01   0.02   0.01    -0.08   0.08   0.01     0.06  -0.05  -0.00
  15   1    -0.00  -0.00   0.00    -0.00   0.02   0.02    -0.02   0.00   0.00
  16   1     0.03   0.01  -0.01     0.13   0.01   0.02    -0.18  -0.01  -0.04
  17   1    -0.02   0.01   0.00     0.27   0.00   0.06    -0.30   0.00  -0.06
  18   1     0.06  -0.15   0.17     0.02   0.02  -0.01     0.09  -0.15   0.19
  19   1     0.02   0.01  -0.04    -0.02  -0.03  -0.03     0.16   0.13  -0.04
  20   1     0.20   0.17  -0.14     0.01   0.02  -0.03     0.08   0.09  -0.10
  21   1    -0.36   0.02  -0.10    -0.09  -0.02  -0.01     0.32  -0.04   0.11
  22   1    -0.20   0.06  -0.05    -0.24   0.05  -0.07     0.20   0.04   0.05
  23   1    -0.09   0.20  -0.24    -0.11   0.16  -0.13    -0.02   0.09  -0.15
  24   1     0.01  -0.01   0.01    -0.09   0.22  -0.27    -0.11   0.25  -0.30
  25   1     0.25   0.21  -0.17    -0.25  -0.22   0.19    -0.05  -0.07   0.08
  26   1     0.14   0.11  -0.15    -0.18  -0.15   0.06     0.05   0.05  -0.06
  27   1    -0.00   0.03   0.00    -0.30  -0.02  -0.08     0.07  -0.02   0.03
  28   1    -0.27   0.02  -0.08    -0.08   0.02  -0.03    -0.03   0.04  -0.03
                     49                     50                     51
                        a                      a                      a 
 Frequencies --  1358.4141              1365.1352              1379.0061
 Red. masses --     4.5512                 4.7651                 2.7702
 Frc consts  --     0.0000                 0.0000                 0.0000
 IR Inten    --     1.1006                 9.9539               171.4834
 Raman Activ --     0.0000                 0.0000                 0.0000
 Depolar     --     0.0000                 0.0000                 0.0000
 Atom AN      X      Y      Z        X      Y      Z        X      Y      Z
   1   7     0.02  -0.01   0.01     0.04  -0.09  -0.04     0.16  -0.25  -0.11
   2   6    -0.08   0.02   0.02     0.05   0.01   0.00    -0.06   0.07   0.02
   3   6     0.23  -0.03   0.03    -0.29   0.01   0.00     0.05  -0.03  -0.02
   4   6     0.02   0.15  -0.05     0.34   0.07   0.01    -0.11  -0.01  -0.04
   5   6    -0.13  -0.04   0.05    -0.18  -0.16   0.09     0.04   0.03  -0.02
   6   6     0.27  -0.02   0.05    -0.04   0.04  -0.06    -0.00  -0.00  -0.00
   7   6    -0.12  -0.02  -0.09     0.01  -0.03   0.02     0.01  -0.02   0.02
   8   6     0.22   0.08  -0.09     0.02  -0.01   0.02    -0.00   0.03  -0.02
   9   6    -0.22  -0.02   0.01    -0.20  -0.02  -0.07     0.09   0.01   0.05
  10  17     0.00  -0.00  -0.00    -0.00  -0.00  -0.00    -0.00  -0.01  -0.01
  11   1     0.00  -0.01   0.02     0.07   0.16   0.12     0.12   0.35   0.44
  12   1    -0.01   0.02  -0.01    -0.11   0.12  -0.03    -0.32   0.35  -0.01
  13   1    -0.04   0.01   0.00    -0.08   0.05   0.00    -0.34   0.26   0.05
  14   1     0.07  -0.08  -0.02    -0.03   0.07   0.03     0.09  -0.07  -0.02
  15   1    -0.01  -0.01  -0.03     0.05  -0.05   0.05     0.07  -0.09  -0.01
  16   1    -0.24  -0.01  -0.05     0.28   0.04   0.03    -0.03  -0.01  -0.01
  17   1    -0.30   0.01  -0.06     0.19  -0.01   0.05    -0.04   0.02  -0.00
  18   1    -0.00  -0.04   0.08    -0.42  -0.08   0.01     0.21  -0.01   0.04
  19   1    -0.02  -0.01   0.00     0.22   0.19  -0.13    -0.04  -0.04   0.03
  20   1     0.19   0.13  -0.09     0.18   0.13  -0.12    -0.04  -0.03   0.02
  21   1    -0.36   0.00  -0.10     0.03  -0.01   0.02     0.02  -0.00   0.01
  22   1    -0.17   0.02  -0.05     0.09   0.02   0.02    -0.02   0.00  -0.01
  23   1    -0.03  -0.03   0.08     0.01  -0.00  -0.03    -0.01   0.01  -0.00
  24   1     0.07  -0.05   0.06     0.01   0.03  -0.03    -0.02   0.03  -0.03
  25   1    -0.22  -0.17   0.12    -0.03  -0.01   0.01    -0.00  -0.02   0.02
  26   1    -0.11  -0.09   0.12     0.05   0.03  -0.03    -0.03  -0.02   0.01
  27   1     0.17  -0.04   0.05     0.17   0.02   0.06    -0.07  -0.02  -0.02
  28   1     0.29   0.01   0.07     0.21  -0.01   0.05    -0.12   0.02  -0.04
                     52                     53                     54
                        a                      a                      a 
 Frequencies --  1401.0540              1463.1121              1488.6962
 Red. masses --     1.5090                 1.9988                 1.8074
 Frc consts  --     0.0000                 0.0000                 0.0000
 IR Inten    --    69.4525                74.9973                12.7606
 Raman Activ --     0.0000                 0.0000                 0.0000
 Depolar     --     0.0000                 0.0000                 0.0000
 Atom AN      X      Y      Z        X      Y      Z        X      Y      Z
   1   7    -0.12  -0.10   0.10     0.09   0.10   0.21     0.01   0.02   0.02
   2   6    -0.03  -0.03   0.02     0.09  -0.04   0.06    -0.13  -0.04  -0.22
   3   6     0.03   0.01  -0.00    -0.01   0.01  -0.00     0.00   0.05  -0.01
   4   6    -0.03   0.01  -0.02    -0.01  -0.01  -0.00    -0.01   0.01  -0.00
   5   6     0.01  -0.00   0.00     0.02   0.01   0.03     0.01   0.02  -0.00
   6   6    -0.01  -0.00   0.00    -0.00   0.00   0.00     0.01  -0.00   0.00
   7   6    -0.01   0.01  -0.01     0.00   0.00  -0.00    -0.00   0.01  -0.00
   8   6     0.01   0.01  -0.01     0.00  -0.00   0.00     0.00  -0.00  -0.00
   9   6     0.02   0.00   0.02     0.00  -0.00   0.00    -0.00  -0.02   0.00
  10  17    -0.01  -0.01   0.01    -0.00   0.00   0.00     0.00   0.00  -0.00
  11   1     0.39   0.45  -0.45     0.02   0.01  -0.01    -0.01  -0.02  -0.01
  12   1    -0.27   0.28  -0.04    -0.02   0.07  -0.66     0.01  -0.01  -0.13
  13   1     0.42  -0.23  -0.02    -0.42  -0.45  -0.23    -0.07  -0.09  -0.05
  14   1    -0.00   0.04   0.03    -0.13  -0.01  -0.01     0.49   0.36   0.22
  15   1     0.01  -0.03  -0.02    -0.05   0.09  -0.10     0.02  -0.13   0.64
  16   1    -0.03  -0.02   0.01    -0.00   0.01  -0.01    -0.03  -0.09   0.10
  17   1    -0.03  -0.02  -0.02    -0.01   0.01   0.00     0.02  -0.13  -0.06
  18   1     0.06  -0.02   0.03     0.03   0.01  -0.01     0.01   0.01  -0.00
  19   1    -0.00  -0.01  -0.00    -0.01  -0.03  -0.05    -0.05  -0.05   0.02
  20   1    -0.01   0.00  -0.00    -0.05   0.02  -0.03    -0.01   0.00  -0.00
  21   1     0.01   0.00   0.00    -0.00  -0.00   0.00    -0.01  -0.01   0.01
  22   1     0.02  -0.00   0.01     0.00  -0.01  -0.00    -0.01  -0.02  -0.01
  23   1     0.01  -0.02   0.02    -0.00   0.00   0.00     0.00  -0.00   0.01
  24   1     0.00  -0.01   0.01    -0.00  -0.00   0.00    -0.00  -0.00   0.00
  25   1    -0.01  -0.01   0.01    -0.00   0.00  -0.00     0.01  -0.00   0.00
  26   1    -0.02  -0.02   0.01     0.00  -0.00  -0.00    -0.00   0.00   0.01
  27   1    -0.01  -0.00  -0.00    -0.00   0.01   0.00    -0.00   0.03   0.01
  28   1    -0.03   0.01  -0.01    -0.00   0.01  -0.01     0.01   0.02  -0.02
                     55                     56                     57
                        a                      a                      a 
 Frequencies --  1497.0755              1506.1129              1509.2488
 Red. masses --     1.9384                 1.8918                 1.9415
 Frc consts  --     0.0000                 0.0000                 0.0000
 IR Inten    --     3.8704                 0.7024                 1.4496
 Raman Activ --     0.0000                 0.0000                 0.0000
 Depolar     --     0.0000                 0.0000                 0.0000
 Atom AN      X      Y      Z        X      Y      Z        X      Y      Z
   1   7    -0.00   0.01   0.01     0.01   0.00   0.01    -0.00  -0.00  -0.01
   2   6    -0.04  -0.02  -0.04     0.01   0.00   0.01    -0.00   0.00  -0.00
   3   6    -0.00  -0.26   0.04     0.00   0.07  -0.01    -0.00   0.03  -0.00
   4   6     0.01  -0.01   0.01    -0.01   0.02  -0.02     0.02   0.02  -0.00
   5   6    -0.01   0.01  -0.04    -0.09  -0.03  -0.16     0.03  -0.01   0.09
   6   6    -0.00  -0.01   0.00    -0.02  -0.09   0.01    -0.00  -0.06   0.00
   7   6     0.01  -0.00  -0.00    -0.01  -0.01   0.03     0.21  -0.04  -0.11
   8   6     0.01   0.00   0.01     0.05   0.02   0.08    -0.00  -0.00  -0.02
   9   6     0.00   0.08  -0.02     0.03   0.14  -0.02    -0.01   0.11  -0.03
  10  17    -0.00  -0.00   0.00    -0.00  -0.00  -0.00     0.00   0.00   0.00
  11   1     0.01   0.00  -0.03     0.00   0.01   0.01    -0.00  -0.00   0.00
  12   1     0.00  -0.00  -0.03    -0.00   0.01  -0.05    -0.00  -0.00   0.02
  13   1     0.01  -0.04  -0.01    -0.03  -0.02  -0.01     0.01   0.01   0.01
  14   1     0.11   0.08   0.05    -0.02   0.01  -0.00     0.00  -0.01  -0.00
  15   1     0.01  -0.04   0.13    -0.00   0.01  -0.01     0.00   0.00  -0.00
  16   1     0.10   0.41  -0.46    -0.02  -0.12   0.13    -0.02  -0.06   0.06
  17   1    -0.08   0.56   0.28     0.02  -0.16  -0.08     0.00  -0.08  -0.04
  18   1     0.00   0.00  -0.01     0.01  -0.01   0.01    -0.02  -0.01   0.01
  19   1    -0.01   0.03   0.06     0.03   0.25   0.37    -0.00  -0.12  -0.19
  20   1     0.03  -0.04   0.05     0.32  -0.19   0.25    -0.14   0.11  -0.14
  21   1     0.02   0.02  -0.02     0.06   0.15  -0.17     0.04   0.09  -0.10
  22   1    -0.00   0.03   0.01    -0.02   0.22   0.09     0.01   0.13   0.06
  23   1    -0.01   0.02   0.02     0.02  -0.03  -0.03    -0.25   0.33   0.37
  24   1    -0.03  -0.01  -0.00     0.04   0.02  -0.01    -0.52  -0.19   0.04
  25   1    -0.03   0.02  -0.02    -0.17   0.09  -0.12     0.04  -0.02   0.03
  26   1    -0.00  -0.02  -0.04    -0.02  -0.13  -0.19     0.02   0.04   0.04
  27   1     0.02  -0.17  -0.08     0.03  -0.31  -0.14     0.04  -0.24  -0.11
  28   1    -0.04  -0.13   0.14    -0.08  -0.22   0.24    -0.04  -0.18   0.20
                     58                     59                     60
                        a                      a                      a 
 Frequencies --  1512.4661              1515.7032              1523.6700
 Red. masses --     1.9862                 1.8992                 1.9932
 Frc consts  --     0.0000                 0.0000                 0.0000
 IR Inten    --     1.1822                 1.3284                 0.0888
 Raman Activ --     0.0000                 0.0000                 0.0000
 Depolar     --     0.0000                 0.0000                 0.0000
 Atom AN      X      Y      Z        X      Y      Z        X      Y      Z
   1   7    -0.00  -0.00  -0.01    -0.00  -0.01  -0.01     0.00   0.00   0.00
   2   6    -0.01   0.00  -0.01    -0.00   0.00  -0.00     0.00  -0.00   0.01
   3   6     0.00  -0.02   0.01     0.00   0.02  -0.01     0.01  -0.02   0.00
   4   6    -0.00   0.00  -0.01     0.01   0.02   0.00    -0.02  -0.01  -0.00
   5   6     0.06   0.00   0.08     0.05   0.01   0.10    -0.06  -0.00  -0.10
   6   6    -0.03  -0.18   0.04     0.01   0.15  -0.03     0.01   0.12  -0.04
   7   6    -0.02   0.01   0.00    -0.04   0.02   0.03     0.14  -0.02  -0.07
   8   6     0.10   0.02   0.15     0.08   0.02   0.14     0.07   0.00   0.11
   9   6    -0.01  -0.10   0.03     0.01   0.12  -0.02    -0.01  -0.12   0.03
  10  17     0.00   0.00  -0.00     0.00  -0.00  -0.00    -0.00  -0.00   0.00
  11   1    -0.00  -0.00   0.01    -0.00   0.00   0.01     0.00   0.00  -0.00
  12   1     0.00  -0.00   0.02    -0.00  -0.00   0.03     0.00  -0.00  -0.01
  13   1     0.01   0.01   0.01     0.01   0.02   0.01    -0.00  -0.01  -0.00
  14   1     0.02  -0.00   0.00     0.00  -0.01  -0.00    -0.01   0.00  -0.00
  15   1     0.00  -0.01   0.01     0.00  -0.00  -0.00    -0.00   0.00  -0.01
  16   1     0.01   0.03  -0.04    -0.02  -0.04   0.04     0.01   0.02  -0.03
  17   1    -0.01   0.04   0.02     0.00  -0.05  -0.03    -0.00   0.04   0.02
  18   1     0.01  -0.01   0.01     0.01   0.01   0.00     0.03   0.01  -0.00
  19   1    -0.02  -0.14  -0.18    -0.01  -0.15  -0.23     0.02   0.16   0.22
  20   1    -0.17   0.09  -0.13    -0.19   0.12  -0.16     0.19  -0.12   0.16
  21   1     0.12   0.27  -0.30    -0.09  -0.23   0.26    -0.07  -0.18   0.20
  22   1    -0.02   0.38   0.18     0.03  -0.32  -0.14     0.03  -0.25  -0.12
  23   1     0.02  -0.04  -0.01     0.07  -0.08  -0.09    -0.16   0.21   0.24
  24   1     0.04   0.01   0.01     0.13   0.05  -0.01    -0.34  -0.12   0.03
  25   1    -0.30   0.16  -0.22    -0.28   0.16  -0.21    -0.21   0.12  -0.17
  26   1    -0.04  -0.24  -0.32    -0.03  -0.22  -0.32    -0.02  -0.17  -0.24
  27   1    -0.02   0.21   0.11     0.04  -0.27  -0.12    -0.02   0.26   0.12
  28   1     0.06   0.16  -0.17    -0.06  -0.19   0.22     0.07   0.20  -0.22
                     61                     62                     63
                        a                      a                      a 
 Frequencies --  2835.2059              2859.3570              2901.5825
 Red. masses --     2.0197                 1.7313                 1.9518
 Frc consts  --     0.0000                 0.0000                 0.0000
 IR Inten    --  2185.9010                37.2437                27.1828
 Raman Activ --     0.0000                 0.0000                 0.0000
 Depolar     --     0.0000                 0.0000                 0.0000
 Atom AN      X      Y      Z        X      Y      Z        X      Y      Z
   1   7    -0.23   0.13  -0.08     0.01  -0.01   0.00    -0.00  -0.00   0.00
   2   6    -0.00   0.00   0.00     0.00   0.00  -0.00     0.00   0.00  -0.00
   3   6     0.00  -0.01  -0.00    -0.00   0.00   0.01     0.00  -0.00  -0.00
   4   6     0.00  -0.01  -0.01     0.03  -0.19  -0.17    -0.00  -0.00  -0.00
   5   6     0.00  -0.00  -0.00    -0.01   0.01  -0.00     0.00  -0.01  -0.01
   6   6     0.00   0.00  -0.00    -0.00   0.01   0.01    -0.05   0.02   0.18
   7   6     0.00   0.00   0.00    -0.00  -0.00   0.00     0.01   0.01   0.01
   8   6     0.00  -0.00   0.00    -0.01   0.01   0.01     0.14  -0.18  -0.02
   9   6    -0.00  -0.00   0.00    -0.00  -0.00   0.02     0.00   0.01   0.01
  10  17     0.01  -0.01   0.00    -0.00   0.00  -0.00     0.00   0.00   0.00
  11   1     0.80  -0.46   0.25    -0.03   0.02  -0.01    -0.00  -0.00   0.00
  12   1     0.01   0.04  -0.01     0.00   0.01   0.00     0.00   0.00   0.00
  13   1    -0.02  -0.01   0.02    -0.00   0.00  -0.00     0.00   0.00  -0.00
  14   1     0.00   0.00  -0.00     0.00  -0.00   0.00    -0.00  -0.00   0.00
  15   1     0.00  -0.00   0.00    -0.01  -0.01  -0.00    -0.00  -0.00  -0.00
  16   1    -0.00   0.01   0.01     0.00  -0.04  -0.03    -0.00   0.00   0.00
  17   1     0.00   0.01  -0.01     0.00   0.01  -0.02    -0.00  -0.00   0.00
  18   1    -0.00   0.03   0.02    -0.13   0.70   0.64    -0.00   0.01   0.00
  19   1     0.00  -0.00   0.00     0.03  -0.02   0.02     0.00  -0.00  -0.00
  20   1    -0.00   0.01   0.01     0.01  -0.03  -0.04    -0.01   0.05   0.04
  21   1     0.00  -0.00  -0.00     0.01  -0.03  -0.02     0.05  -0.28  -0.22
  22   1    -0.00  -0.00   0.01     0.01   0.01  -0.02     0.13   0.20  -0.42
  23   1    -0.01  -0.01  -0.00     0.00   0.00   0.00    -0.02  -0.01  -0.00
  24   1    -0.00   0.00   0.00    -0.00  -0.00   0.00     0.01  -0.02  -0.03
  25   1     0.00  -0.00  -0.00     0.01  -0.02  -0.02    -0.04   0.29   0.30
  26   1    -0.01   0.01  -0.00     0.02  -0.01   0.01    -0.44   0.36  -0.21
  27   1     0.00   0.00  -0.01     0.01   0.02  -0.04    -0.00   0.00   0.01
  28   1    -0.00   0.00   0.00     0.01  -0.04  -0.03     0.01  -0.06  -0.05
                     64                     65                     66
                        a                      a                      a 
 Frequencies --  2902.7709              2906.7880              2910.7560
 Red. masses --     1.9151                 1.9180                 1.8988
 Frc consts  --     0.0000                 0.0000                 0.0000
 IR Inten    --    24.1363                23.4838                33.1507
 Raman Activ --     0.0000                 0.0000                 0.0000
 Depolar     --     0.0000                 0.0000                 0.0000
 Atom AN      X      Y      Z        X      Y      Z        X      Y      Z
   1   7    -0.00   0.00  -0.00    -0.00   0.00   0.00     0.00  -0.00  -0.00
   2   6    -0.00  -0.00   0.00    -0.00  -0.00   0.00    -0.00  -0.00  -0.00
   3   6     0.00   0.00  -0.00     0.00   0.00  -0.00     0.00   0.00  -0.02
   4   6    -0.00   0.01   0.01    -0.00   0.00   0.00    -0.00   0.01   0.01
   5   6     0.00  -0.01  -0.00    -0.01   0.02   0.01     0.05  -0.07  -0.01
   6   6    -0.05   0.02   0.18     0.03   0.01  -0.10    -0.00   0.01   0.02
   7   6    -0.06  -0.12  -0.07    -0.14  -0.17  -0.09     0.03   0.03   0.01
   8   6    -0.09   0.12   0.02     0.06  -0.07   0.01    -0.03   0.01  -0.03
   9   6     0.00  -0.00  -0.01    -0.02   0.01   0.07    -0.07  -0.01   0.25
  10  17     0.00  -0.00   0.00     0.00   0.00   0.00     0.00  -0.00  -0.00
  11   1     0.01  -0.01   0.00     0.00  -0.00  -0.00    -0.00   0.00   0.00
  12   1    -0.00  -0.00  -0.00     0.00  -0.00  -0.00     0.00  -0.00   0.00
  13   1     0.00  -0.00   0.00     0.00   0.00   0.00     0.00   0.00   0.00
  14   1     0.00   0.00  -0.00     0.00   0.00  -0.00    -0.00   0.00   0.00
  15   1     0.00   0.00   0.00     0.00   0.00   0.00     0.00   0.00   0.00
  16   1    -0.00   0.00   0.00     0.00  -0.00  -0.00    -0.00   0.01   0.01
  17   1    -0.00  -0.00   0.01     0.00  -0.00   0.00    -0.01  -0.03   0.06
  18   1     0.01  -0.03  -0.03    -0.00   0.00   0.00     0.00  -0.03  -0.03
  19   1    -0.01   0.01  -0.01     0.04  -0.03   0.02    -0.18   0.14  -0.09
  20   1    -0.01   0.05   0.04     0.01  -0.05  -0.05    -0.02   0.12   0.12
  21   1     0.06  -0.32  -0.24    -0.01   0.08   0.05     0.01  -0.04  -0.03
  22   1     0.13   0.21  -0.43    -0.09  -0.14   0.30     0.01   0.01  -0.02
  23   1     0.29   0.17   0.03     0.59   0.36   0.08    -0.11  -0.07  -0.02
  24   1    -0.09   0.27   0.25    -0.09   0.25   0.24     0.01  -0.02  -0.02
  25   1     0.03  -0.21  -0.22    -0.00   0.06   0.06    -0.02   0.07   0.06
  26   1     0.28  -0.23   0.14    -0.23   0.19  -0.11     0.13  -0.11   0.06
  27   1    -0.01  -0.01   0.02     0.05   0.08  -0.15     0.21   0.33  -0.68
  28   1    -0.01   0.04   0.03     0.02  -0.11  -0.09     0.05  -0.30  -0.23
                     67                     68                     69
                        a                      a                      a 
 Frequencies --  2916.5124              2931.7115              2936.8866
 Red. masses --     1.8719                 1.9324                 1.5335
 Frc consts  --     0.0000                 0.0000                 0.0000
 IR Inten    --    36.2410                21.7019                54.3091
 Raman Activ --     0.0000                 0.0000                 0.0000
 Depolar     --     0.0000                 0.0000                 0.0000
 Atom AN      X      Y      Z        X      Y      Z        X      Y      Z
   1   7    -0.00   0.00  -0.00     0.00   0.00   0.00    -0.00  -0.00  -0.00
   2   6    -0.00  -0.00   0.01    -0.02  -0.02   0.02     0.00   0.00  -0.00
   3   6     0.00  -0.00  -0.02     0.06  -0.02  -0.28    -0.00   0.01   0.01
   4   6    -0.01   0.02   0.01     0.00  -0.01  -0.02     0.00   0.00   0.00
   5   6    -0.17   0.20  -0.00     0.01   0.00   0.02     0.02  -0.04  -0.00
   6   6    -0.01  -0.04   0.02     0.00   0.00  -0.00    -0.01  -0.15   0.00
   7   6     0.02   0.00  -0.00    -0.00   0.00   0.00     0.00  -0.00   0.00
   8   6    -0.01   0.01  -0.01     0.01   0.01   0.02     0.05   0.04   0.13
   9   6    -0.02  -0.01   0.07     0.00  -0.00  -0.01    -0.01  -0.00   0.03
  10  17    -0.00   0.00   0.00     0.00   0.00   0.00     0.00   0.00  -0.00
  11   1     0.00  -0.00   0.00    -0.00   0.00  -0.00    -0.00   0.00   0.00
  12   1    -0.00  -0.00  -0.00    -0.00  -0.00  -0.00     0.00   0.00   0.00
  13   1     0.00  -0.00   0.00    -0.00   0.00   0.00     0.00   0.00  -0.00
  14   1     0.00   0.01  -0.02     0.01   0.04  -0.10    -0.00  -0.00   0.01
  15   1     0.00   0.00   0.00     0.04   0.03   0.01    -0.01  -0.01  -0.00
  16   1    -0.01   0.03   0.02    -0.07   0.42   0.35     0.01  -0.03  -0.03
  17   1    -0.01  -0.02   0.03    -0.14  -0.35   0.66     0.01   0.01  -0.02
  18   1     0.01  -0.05  -0.04    -0.01   0.04   0.04     0.00  -0.00  -0.00
  19   1     0.57  -0.47   0.28    -0.05   0.04  -0.02    -0.09   0.07  -0.04
  20   1     0.03  -0.26  -0.27     0.01  -0.05  -0.05    -0.01   0.04   0.04
  21   1    -0.02   0.09   0.09     0.00  -0.01  -0.01    -0.08   0.40   0.36
  22   1     0.05   0.07  -0.17    -0.00  -0.00   0.01     0.11   0.13  -0.36
  23   1    -0.07  -0.05  -0.01     0.00   0.00   0.00    -0.01  -0.01  -0.00
  24   1     0.00   0.02   0.02     0.00  -0.01  -0.01    -0.00   0.01   0.01
  25   1    -0.01   0.03   0.02     0.01  -0.05  -0.05     0.09  -0.41  -0.37
  26   1     0.06  -0.05   0.02    -0.04   0.03  -0.01    -0.28   0.25  -0.11
  27   1     0.07   0.11  -0.22    -0.01  -0.02   0.03     0.03   0.05  -0.10
  28   1     0.01  -0.06  -0.04    -0.01   0.03   0.02     0.00  -0.02  -0.02
                     70                     71                     72
                        a                      a                      a 
 Frequencies --  2938.1073              2941.7346              2946.3801
 Red. masses --     1.5051                 1.5764                 1.8358
 Frc consts  --     0.0000                 0.0000                 0.0000
 IR Inten    --    42.0766                65.5684                 4.1866
 Raman Activ --     0.0000                 0.0000                 0.0000
 Depolar     --     0.0000                 0.0000                 0.0000
 Atom AN      X      Y      Z        X      Y      Z        X      Y      Z
   1   7     0.00  -0.00   0.00     0.00   0.00  -0.00     0.00   0.00  -0.00
   2   6    -0.00  -0.00   0.00    -0.01  -0.01   0.00    -0.20  -0.16   0.05
   3   6    -0.00   0.00   0.01    -0.00   0.01   0.01    -0.01   0.06   0.02
   4   6    -0.00   0.00   0.00    -0.00   0.00   0.00     0.00   0.00  -0.00
   5   6    -0.02   0.02  -0.01    -0.03   0.01  -0.03     0.00  -0.01  -0.01
   6   6     0.01   0.12  -0.01    -0.01   0.08   0.03     0.00  -0.01  -0.01
   7   6     0.11  -0.01  -0.05    -0.11   0.09   0.11     0.01  -0.01  -0.01
   8   6     0.05   0.03   0.10     0.00   0.04   0.07     0.00  -0.01  -0.01
   9   6    -0.00  -0.02   0.02    -0.00  -0.06   0.01     0.00  -0.02  -0.01
  10  17    -0.00   0.00  -0.00    -0.00  -0.00  -0.00     0.00   0.00   0.00
  11   1    -0.01   0.01  -0.00     0.00   0.00   0.00     0.01  -0.00  -0.00
  12   1    -0.00  -0.00  -0.00    -0.00  -0.00  -0.00    -0.02  -0.02  -0.00
  13   1     0.00   0.00  -0.00     0.00   0.00   0.00    -0.00  -0.00   0.01
  14   1    -0.00   0.00  -0.00     0.00   0.00  -0.01     0.02   0.09  -0.24
  15   1     0.01   0.01   0.00     0.03   0.02   0.00     0.69   0.51   0.07
  16   1     0.00  -0.03  -0.02     0.01  -0.04  -0.03     0.04  -0.20  -0.19
  17   1     0.01   0.01  -0.02    -0.00   0.00   0.00    -0.02  -0.04   0.11
  18   1     0.00  -0.02  -0.02     0.01  -0.02  -0.02    -0.00   0.01   0.01
  19   1     0.09  -0.07   0.04     0.12  -0.11   0.05     0.01  -0.01   0.00
  20   1    -0.00   0.01   0.01    -0.02   0.08   0.07    -0.01   0.05   0.04
  21   1     0.07  -0.32  -0.29     0.05  -0.23  -0.21    -0.01   0.04   0.04
  22   1    -0.10  -0.12   0.32    -0.03  -0.03   0.09     0.01   0.01  -0.02
  23   1    -0.35  -0.23  -0.06     0.28   0.20   0.06    -0.01  -0.01  -0.00
  24   1    -0.05   0.27   0.24     0.12  -0.51  -0.46    -0.01   0.04   0.04
  25   1     0.07  -0.31  -0.29     0.05  -0.23  -0.21    -0.01   0.04   0.04
  26   1    -0.24   0.21  -0.09    -0.08   0.07  -0.02     0.01  -0.01   0.00
  27   1     0.03   0.04  -0.10     0.05   0.07  -0.17     0.01   0.01  -0.02
  28   1    -0.01   0.03   0.04    -0.03   0.14   0.13    -0.01   0.07   0.07
                     73                     74                     75
                        a                      a                      a 
 Frequencies --  2949.4834              2953.9565              2960.7132
 Red. masses --     1.5692                 1.5956                 1.5528
 Frc consts  --     0.0000                 0.0000                 0.0000
 IR Inten    --    36.5097                81.8757                46.7209
 Raman Activ --     0.0000                 0.0000                 0.0000
 Depolar     --     0.0000                 0.0000                 0.0000
 Atom AN      X      Y      Z        X      Y      Z        X      Y      Z
   1   7     0.00   0.00   0.00     0.00  -0.00   0.00     0.01  -0.00   0.00
   2   6    -0.03  -0.03   0.01     0.04   0.03  -0.00    -0.05  -0.04   0.00
   3   6     0.00  -0.05  -0.01     0.01   0.04  -0.03     0.00  -0.20  -0.00
   4   6    -0.00   0.01   0.00     0.00  -0.01  -0.02    -0.00  -0.02  -0.01
   5   6    -0.03  -0.03  -0.08    -0.04  -0.09  -0.17     0.00  -0.02  -0.03
   6   6     0.00   0.01  -0.00     0.01  -0.03  -0.03     0.00  -0.01  -0.01
   7   6    -0.01   0.02   0.02     0.01  -0.03  -0.03     0.00  -0.01  -0.01
   8   6    -0.01   0.04   0.03    -0.00  -0.02  -0.03     0.00  -0.01  -0.01
   9   6    -0.00   0.18   0.05     0.01  -0.06  -0.03     0.00  -0.06  -0.01
  10  17    -0.00  -0.00  -0.00    -0.00   0.00   0.00    -0.00   0.00  -0.00
  11   1    -0.00   0.00  -0.00    -0.00   0.00  -0.00    -0.02   0.01  -0.01
  12   1    -0.00  -0.00  -0.00     0.01   0.01  -0.00    -0.01  -0.01   0.00
  13   1     0.00   0.00   0.00    -0.00   0.00   0.00     0.00   0.00  -0.01
  14   1     0.01   0.02  -0.05     0.00  -0.00   0.01    -0.00   0.01  -0.03
  15   1     0.11   0.08   0.01    -0.14  -0.10  -0.01     0.19   0.13   0.02
  16   1    -0.03   0.13   0.12     0.02  -0.07  -0.07    -0.10   0.50   0.49
  17   1     0.02   0.04  -0.09    -0.04  -0.08   0.17     0.10   0.21  -0.48
  18   1     0.00  -0.01  -0.01    -0.01   0.03   0.03    -0.01   0.03   0.03
  19   1     0.16  -0.14   0.06     0.25  -0.23   0.09     0.02  -0.02   0.00
  20   1    -0.05   0.23   0.21    -0.12   0.57   0.52    -0.02   0.10   0.09
  21   1     0.01  -0.03  -0.03    -0.02   0.12   0.10    -0.01   0.04   0.03
  22   1    -0.01  -0.02   0.04    -0.00  -0.01   0.01     0.00   0.00  -0.01
  23   1     0.02   0.01   0.01    -0.01  -0.01  -0.01    -0.00  -0.00  -0.00
  24   1     0.02  -0.08  -0.07    -0.03   0.11   0.10    -0.01   0.03   0.03
  25   1     0.02  -0.10  -0.10    -0.02   0.09   0.09    -0.01   0.03   0.03
  26   1     0.01  -0.01   0.01     0.02  -0.02   0.01    -0.01   0.00  -0.00
  27   1    -0.10  -0.12   0.33     0.02   0.02  -0.06     0.04   0.04  -0.12
  28   1     0.12  -0.55  -0.50    -0.04   0.20   0.17    -0.04   0.19   0.17
                     76                     77                     78
                        a                      a                      a 
 Frequencies --  2997.2441              3179.4741              3191.0028
 Red. masses --     1.6355                 2.0365                 1.4874
 Frc consts  --     0.0000                 0.0000                 0.0000
 IR Inten    --     5.7500                54.8275                17.2108
 Raman Activ --     0.0000                 0.0000                 0.0000
 Depolar     --     0.0000                 0.0000                 0.0000
 Atom AN      X      Y      Z        X      Y      Z        X      Y      Z
   1   7     0.00  -0.00   0.00    -0.16  -0.19   0.13     0.07   0.03   0.17
   2   6    -0.02   0.06  -0.23    -0.01  -0.01   0.00     0.00   0.00   0.01
   3   6     0.00   0.01  -0.03    -0.00   0.00  -0.00     0.00   0.00  -0.00
   4   6     0.00  -0.00  -0.00    -0.00   0.00   0.00     0.00  -0.00  -0.00
   5   6    -0.00   0.00  -0.00    -0.00   0.00   0.00     0.00  -0.00  -0.00
   6   6    -0.00  -0.00  -0.00    -0.00   0.00   0.00     0.00  -0.00  -0.00
   7   6    -0.00  -0.00  -0.00    -0.00   0.00   0.00     0.00  -0.00  -0.00
   8   6    -0.00   0.00  -0.00    -0.00   0.00   0.00    -0.00  -0.00  -0.00
   9   6     0.00   0.00  -0.00    -0.00   0.00  -0.00     0.00  -0.00   0.00
  10  17    -0.00   0.00   0.00    -0.00  -0.00   0.00    -0.00   0.00  -0.00
  11   1     0.00  -0.00  -0.00    -0.03  -0.01   0.01     0.06  -0.03   0.03
  12   1    -0.01  -0.01   0.00     0.57   0.50   0.03    -0.44  -0.40   0.01
  13   1     0.00   0.01  -0.03     0.06   0.21  -0.54     0.11   0.30  -0.71
  14   1    -0.15  -0.37   0.83     0.00   0.01  -0.02     0.01   0.01  -0.03
  15   1     0.22   0.18  -0.01     0.02   0.01  -0.00    -0.02  -0.01  -0.00
  16   1    -0.00   0.02   0.01    -0.00  -0.00  -0.00     0.00  -0.01  -0.00
  17   1    -0.02  -0.04   0.08    -0.00  -0.00   0.00    -0.00  -0.00   0.00
  18   1    -0.00   0.00   0.00     0.00  -0.01  -0.01    -0.00   0.00   0.00
  19   1     0.02  -0.02   0.01     0.00  -0.00   0.00    -0.00  -0.00  -0.00
  20   1    -0.00   0.01   0.01     0.00  -0.00  -0.00     0.00   0.00  -0.00
  21   1    -0.00   0.00   0.00    -0.00  -0.00  -0.00     0.00   0.00   0.00
  22   1     0.00  -0.00   0.00    -0.00  -0.00   0.00     0.00   0.00  -0.00
  23   1     0.00   0.00   0.00     0.00   0.00   0.00     0.00   0.00  -0.00
  24   1    -0.00   0.00   0.00     0.00  -0.00  -0.00    -0.00   0.00   0.00
  25   1    -0.00   0.00   0.00    -0.00  -0.00  -0.00    -0.00   0.00   0.00
  26   1     0.00  -0.00   0.00     0.00  -0.00   0.00     0.00  -0.00   0.00
  27   1    -0.00  -0.00   0.01    -0.00  -0.00   0.00     0.00   0.00  -0.00
  28   1     0.00  -0.00  -0.00     0.00  -0.00  -0.00    -0.00   0.00   0.00
