      -----------------------------------------------------------      
     |                   =====================                   |     
     |                           x T B                           |     
     |                   =====================                   |     
     |                         S. Grimme                         |     
     |          Mulliken Center for Theoretical Chemistry        |     
     |                    University of Bonn                     |     
      -----------------------------------------------------------      

   * xtb version 6.5.1 (fef0646) compiled by 'conda@b96dff2e9fd6' on 2023-01-04

   xtb is free software: you can redistribute it and/or modify it under
   the terms of the GNU Lesser General Public License as published by
   the Free Software Foundation, either version 3 of the License, or
   (at your option) any later version.
   
   xtb is distributed in the hope that it will be useful,
   but WITHOUT ANY WARRANTY; without even the implied warranty of
   MERCHANTABILITY or FITNESS FOR A PARTICULAR PURPOSE.  See the
   GNU Lesser General Public License for more details.
   
   Cite this work as:
   * C. Bannwarth, E. Caldeweyher, S. Ehlert, A. Hansen, P. Pracht,
     J. Seibert, S. Spicher, S. Grimme, WIREs Comput. Mol. Sci., 2020, 11,
     e01493. DOI: 10.1002/wcms.1493
   
   for GFN2-xTB:
   * C. Bannwarth, S. Ehlert and S. Grimme., J. Chem. Theory Comput., 2019,
     15, 1652-1671. DOI: 10.1021/acs.jctc.8b01176
   for GFN1-xTB:
   * S. Grimme, C. Bannwarth, P. Shushkov, J. Chem. Theory Comput., 2017,
     13, 1989-2009. DOI: 10.1021/acs.jctc.7b00118
   for GFN0-xTB:
   * P. Pracht, E. Caldeweyher, S. Ehlert, S. Grimme, ChemRxiv, 2019, preprint.
     DOI: 10.26434/chemrxiv.8326202.v1
   for GFN-FF:
   * S. Spicher and S. Grimme, Angew. Chem. Int. Ed., 2020, 59, 15665-15673.
     DOI: 10.1002/anie.202004239
   
   for ALPB and GBSA implicit solvation:
   * S. Ehlert, M. Stahn, S. Spicher, S. Grimme, J. Chem. Theory Comput.,
     2021, 17, 4250-4261. DOI: 10.1021/acs.jctc.1c00471
   
   for DFT-D4:
   * E. Caldeweyher, C. Bannwarth and S. Grimme, J. Chem. Phys., 2017,
     147, 034112. DOI: 10.1063/1.4993215
   * E. Caldeweyher, S. Ehlert, A. Hansen, H. Neugebauer, S. Spicher,
     C. Bannwarth and S. Grimme, J. Chem. Phys., 2019, 150, 154122.
     DOI: 10.1063/1.5090222
   * E. Caldeweyher, J.-M. Mewes, S. Ehlert and S. Grimme, Phys. Chem. Chem. Phys.
     2020, 22, 8499-8512. DOI: 10.1039/D0CP00502A
   
   for sTDA-xTB:
   * S. Grimme and C. Bannwarth, J. Chem. Phys., 2016, 145, 054103.
     DOI: 10.1063/1.4959605
   
   in the mass-spec context:
   * V. Asgeirsson, C. Bauer and S. Grimme, Chem. Sci., 2017, 8, 4879.
     DOI: 10.1039/c7sc00601b
   * J. Koopman and S. Grimme, ACS Omega 2019, 4, 12, 15120-15133.
     DOI: 10.1021/acsomega.9b02011
   
   for metadynamics refer to:
   * S. Grimme, J. Chem. Theory Comput., 2019, 155, 2847-2862
     DOI: 10.1021/acs.jctc.9b00143
   
   for SPH calculations refer to:
   * S. Spicher and S. Grimme, J. Chem. Theory Comput., 2021, 17, 1701-1714
     DOI: 10.1021/acs.jctc.0c01306
   
   with help from (in alphabetical order)
   P. Atkinson, C. Bannwarth, F. Bohle, G. Brandenburg, E. Caldeweyher
   M. Checinski, S. Dohm, S. Ehlert, S. Ehrlich, I. Gerasimov, C. Hölzer
   A. Katbashev, J. Koopman, C. Lavigne, S. Lehtola, F. März, M. Müller,
   F. Musil, H. Neugebauer, J. Pisarek, C. Plett, P. Pracht, F. Pultar,
   J. Seibert, P. Shushkov, S. Spicher, M. Stahn, M. Steiner, T. Strunk,
   J. Stückrath, T. Rose, and J. Unsleber
   
 * started run on 2023/01/23 at 19:28:52.557     

           -------------------------------------------------
          |                Calculation Setup                |
           -------------------------------------------------

          program call               : xtb init.xyz --opt -c 1 -u 0 -P 16 --input xtb.inp
          hostname                   : gpg-woodward
          coordinate file            : init.xyz
          omp threads                :                    16

   ID    Z sym.   atoms
    1    7 N      1
    2    6 C      2-21
    3   16 S      22-25
    4    1 H      26-45

           -------------------------------------------------
          |                 G F N 2 - x T B                 |
           -------------------------------------------------

        Reference                      10.1021/acs.jctc.8b01176
      * Hamiltonian:
        H0-scaling (s, p, d)           1.850000    2.230000    2.230000
        zeta-weighting                 0.500000
      * Dispersion:
        s8                             2.700000
        a1                             0.520000
        a2                             5.000000
        s9                             5.000000
      * Repulsion:
        kExp                           1.500000    1.000000
        rExp                           1.000000
      * Coulomb:
        alpha                          2.000000
        third order                    shell-resolved
        anisotropic                    true
        a3                             3.000000
        a5                             4.000000
        cn-shift                       1.200000
        cn-exp                         4.000000
        max-rad                        5.000000


          ...................................................
          :                      SETUP                      :
          :.................................................:
          :  # basis functions                 144          :
          :  # atomic orbitals                 140          :
          :  # shells                           74          :
          :  # electrons                       128          :
          :  max. iterations                   250          :
          :  Hamiltonian                  GFN2-xTB          :
          :  restarted?                      false          :
          :  GBSA solvation                  false          :
          :  PC potential                    false          :
          :  electronic temp.          300.0000000     K    :
          :  accuracy                    1.0000000          :
          :  -> integral cutoff          0.2500000E+02      :
          :  -> integral neglect         0.1000000E-07      :
          :  -> SCF convergence          0.1000000E-05 Eh   :
          :  -> wf. convergence          0.1000000E-03 e    :
          :  Broyden damping             0.4000000          :
          ...................................................

 iter      E             dE          RMSdq      gap      omega  full diag
   1    -69.3041366 -0.693041E+02  0.384E+00    2.17       0.0  T
   2    -69.4411643 -0.137028E+00  0.236E+00    1.81       1.0  T
   3    -69.4345162  0.664806E-02  0.127E+00    1.72       1.0  T
   4    -69.4492975 -0.147813E-01  0.759E-01    1.46       1.0  T
   5    -69.4605966 -0.112991E-01  0.201E-01    1.51       1.0  T
   6    -69.4610502 -0.453629E-03  0.113E-01    1.51       1.0  T
   7    -69.4613031 -0.252951E-03  0.331E-02    1.52       1.0  T
   8    -69.4613174 -0.142956E-04  0.186E-02    1.52       1.0  T
   9    -69.4613198 -0.233981E-05  0.843E-03    1.52       1.8  T
  10    -69.4613204 -0.657686E-06  0.446E-03    1.52       3.3  T
  11    -69.4613207 -0.215489E-06  0.243E-03    1.52       6.1  T
  12    -69.4613207 -0.239661E-07  0.999E-04    1.52      14.9  T
  13    -69.4613207 -0.147339E-07  0.488E-04    1.52      30.6  T

   *** convergence criteria satisfied after 13 iterations ***

         #    Occupation            Energy/Eh            Energy/eV
      -------------------------------------------------------------
         1        2.0000           -0.8846319             -24.0721
       ...           ...                  ...                  ...
        58        2.0000           -0.4946805             -13.4609
        59        2.0000           -0.4766446             -12.9702
        60        2.0000           -0.4684756             -12.7479
        61        2.0000           -0.4573446             -12.4450
        62        2.0000           -0.4499423             -12.2436
        63        2.0000           -0.4401444             -11.9769
        64        2.0000           -0.4221996             -11.4886 (HOMO)
        65                         -0.3663686              -9.9694 (LUMO)
        66                         -0.3302073              -8.9854
        67                         -0.3160573              -8.6004
        68                         -0.3061412              -8.3305
        69                         -0.2878541              -7.8329
       ...                                ...                  ...
       140                          0.6403983              17.4261
      -------------------------------------------------------------
                  HL-Gap            0.0558310 Eh            1.5192 eV
             Fermi-level           -0.3942841 Eh          -10.7290 eV

 SCC (total)                   0 d,  0 h,  0 min,  0.255 sec
 SCC setup                      ...        0 min,  0.001 sec (  0.215%)
 Dispersion                     ...        0 min,  0.002 sec (  0.742%)
 classical contributions        ...        0 min,  0.000 sec (  0.101%)
 integral evaluation            ...        0 min,  0.012 sec (  4.563%)
 iterations                     ...        0 min,  0.219 sec ( 85.750%)
 molecular gradient             ...        0 min,  0.020 sec (  7.991%)
 printout                       ...        0 min,  0.001 sec (  0.537%)

         :::::::::::::::::::::::::::::::::::::::::::::::::::::
         ::                     SUMMARY                     ::
         :::::::::::::::::::::::::::::::::::::::::::::::::::::
         :: total energy             -68.482508500209 Eh    ::
         :: gradient norm              0.085998569860 Eh/a0 ::
         :: HOMO-LUMO gap              1.519238139679 eV    ::
         ::.................................................::
         :: SCC energy               -69.461320694465 Eh    ::
         :: -> isotropic ES            0.105925681478 Eh    ::
         :: -> anisotropic ES         -0.014175457212 Eh    ::
         :: -> anisotropic XC          0.034955691822 Eh    ::
         :: -> dispersion             -0.055180579031 Eh    ::
         :: repulsion energy           0.979330157077 Eh    ::
         :: add. restraining           0.000000000000 Eh    ::
         :: total charge               1.000000000000 e     ::
         :::::::::::::::::::::::::::::::::::::::::::::::::::::

      ----------------------------------------------------------- 
     |                   =====================                   |
     |                        A N C O P T                        |
     |                   =====================                   |
     |               Approximate Normal Coordinate               |
     |                Rational Function Optimizer                |
      ----------------------------------------------------------- 

          ...................................................
          :                      SETUP                      :
          :.................................................:
          :   optimization level            normal          :
          :   max. optcycles                   200          :
          :   ANC micro-cycles                  20          :
          :   degrees of freedom               129          :
          :.................................................:
          :   RF solver                   davidson          :
          :   write xtbopt.log                true          :
          :   linear?                        false          :
          :   energy convergence         0.5000000E-05 Eh   :
          :   grad. convergence          0.1000000E-02 Eh/α :
          :   maximium RF displ.         1.0000000          :
          :   Hlow (freq-cutoff)         0.1000000E-01      :
          :   Hmax (freq-cutoff)         5.0000000          :
          :   S6 in model hess.         20.0000000          :
          ...................................................

generating ANC from model Hessian ...
Using Lindh-Hessian (1995)
 Shifting diagonal of input Hessian by    9.8858667284907175E-003
 Lowest  eigenvalues of input Hessian
    0.000000    0.000000    0.000000    0.000000    0.000000    0.000000
    0.010000    0.010226    0.010332    0.010547    0.010642    0.011662
    0.012258    0.012597    0.013179    0.014173    0.014517    0.014770
 Highest eigenvalues
    1.793116    1.822822    1.826605    1.871334    1.909761    1.933585


........................................................................
.............................. CYCLE    1 ..............................
........................................................................
   1    -69.4613207 -0.694613E+02  0.250E-04    1.52       0.0  T
   2    -69.4613207  0.285638E-10  0.203E-04    1.52      73.5  T
   3    -69.4613207 -0.962231E-09  0.124E-04    1.52     120.5  T
     SCC iter.                  ...        0 min,  0.077 sec
     gradient                   ...        0 min,  0.024 sec
 * total energy  :   -68.4825085 Eh     change       -0.4969323E-08 Eh
   gradient norm :     0.0859997 Eh/α   predicted     0.0000000E+00 (-100.00%)
   displ. norm   :     0.3226894 α      lambda       -0.1142565E-01
   maximum displ.:     0.1168969 α      in ANC's #27, #25, #18, ...

........................................................................
.............................. CYCLE    2 ..............................
........................................................................
   1    -69.5000556 -0.695001E+02  0.166E-01    1.46       0.0  T
   2    -69.5001719 -0.116313E-03  0.118E-01    1.51       1.0  T
   3    -69.5002248 -0.528966E-04  0.647E-02    1.49       1.0  T
   4    -69.5002761 -0.512939E-04  0.220E-02    1.51       1.0  T
   5    -69.5002843 -0.826039E-05  0.975E-03    1.51       1.5  T
   6    -69.5002863 -0.193677E-05  0.413E-03    1.51       3.6  T
   7    -69.5002866 -0.299273E-06  0.181E-03    1.51       8.2  T
   8    -69.5002866 -0.662804E-08  0.118E-03    1.51      12.7  T
   9    -69.5002866 -0.201279E-07  0.514E-04    1.51      29.0  T
  10    -69.5002866 -0.318583E-08  0.256E-04    1.51      58.3  T
     SCC iter.                  ...        0 min,  0.170 sec
     gradient                   ...        0 min,  0.028 sec
 * total energy  :   -68.4906579 Eh     change       -0.8149441E-02 Eh
   gradient norm :     0.0434063 Eh/α   predicted    -0.6311834E-02 ( -22.55%)
   displ. norm   :     0.3462305 α      lambda       -0.4835905E-02
   maximum displ.:     0.1503408 α      in ANC's #11, #18, #27, ...

........................................................................
.............................. CYCLE    3 ..............................
........................................................................
   1    -69.5224795 -0.695225E+02  0.141E-01    1.43       0.0  T
   2    -69.5225932 -0.113735E-03  0.103E-01    1.49       1.0  T
   3    -69.5227085 -0.115294E-03  0.547E-02    1.47       1.0  T
   4    -69.5227318 -0.233143E-04  0.220E-02    1.48       1.0  T
   5    -69.5227393 -0.754907E-05  0.101E-02    1.48       1.5  T
   6    -69.5227416 -0.226823E-05  0.379E-03    1.48       3.9  T
   7    -69.5227418 -0.201440E-06  0.175E-03    1.48       8.5  T
   8    -69.5227418 -0.286995E-07  0.108E-03    1.48      13.8  T
   9    -69.5227419 -0.141196E-07  0.577E-04    1.48      25.9  T
  10    -69.5227419 -0.338889E-08  0.276E-04    1.48      54.1  T
     SCC iter.                  ...        0 min,  0.172 sec
     gradient                   ...        0 min,  0.029 sec
 * total energy  :   -68.4936593 Eh     change       -0.3001347E-02 Eh
   gradient norm :     0.0137546 Eh/α   predicted    -0.2709527E-02 (  -9.72%)
   displ. norm   :     0.3003377 α      lambda       -0.1269539E-02
   maximum displ.:     0.1379512 α      in ANC's #11, #4, #7, ...

........................................................................
.............................. CYCLE    4 ..............................
........................................................................
   1    -69.5239407 -0.695239E+02  0.919E-02    1.43       0.0  T
   2    -69.5239620 -0.212917E-04  0.595E-02    1.46       1.0  T
   3    -69.5239722 -0.102007E-04  0.382E-02    1.45       1.0  T
   4    -69.5240043 -0.320755E-04  0.952E-03    1.46       1.6  T
   5    -69.5240053 -0.949462E-06  0.461E-03    1.46       3.2  T
   6    -69.5240057 -0.482089E-06  0.189E-03    1.46       7.9  T
   7    -69.5240058 -0.721383E-07  0.861E-04    1.46      17.3  T
   8    -69.5240058 -0.801199E-08  0.508E-04    1.46      29.4  T
     SCC iter.                  ...        0 min,  0.137 sec
     gradient                   ...        0 min,  0.028 sec
 * total energy  :   -68.4946507 Eh     change       -0.9913874E-03 Eh
   gradient norm :     0.0093271 Eh/α   predicted    -0.6920426E-03 ( -30.19%)
   displ. norm   :     0.4836191 α      lambda       -0.1405949E-02
   maximum displ.:     0.2380749 α      in ANC's #4, #11, #5, ...

........................................................................
.............................. CYCLE    5 ..............................
........................................................................
   1    -69.5195128 -0.695195E+02  0.128E-01    1.40       0.0  T
   2    -69.5195378 -0.250592E-04  0.784E-02    1.43       1.0  T
   3    -69.5194894  0.484225E-04  0.563E-02    1.42       1.0  T
   4    -69.5195856 -0.962552E-04  0.105E-02    1.43       1.4  T
   5    -69.5195864 -0.783199E-06  0.545E-03    1.43       2.7  T
   6    -69.5195872 -0.787469E-06  0.207E-03    1.43       7.2  T
   7    -69.5195873 -0.816764E-07  0.936E-04    1.43      15.9  T
   8    -69.5195873 -0.123551E-07  0.503E-04    1.43      29.7  T
     SCC iter.                  ...        0 min,  0.201 sec
     gradient                   ...        0 min,  0.035 sec
 * total energy  :   -68.4957025 Eh     change       -0.1051854E-02 Eh
   gradient norm :     0.0143820 Eh/α   predicted    -0.8673934E-03 ( -17.54%)
   displ. norm   :     0.4639215 α      lambda       -0.1035592E-02
   maximum displ.:     0.2545748 α      in ANC's #4, #5, #11, ...

........................................................................
.............................. CYCLE    6 ..............................
........................................................................
   1    -69.5153670 -0.695154E+02  0.112E-01    1.40       0.0  T
   2    -69.5153818 -0.147536E-04  0.650E-02    1.41       1.0  T
   3    -69.5153283  0.534484E-04  0.406E-02    1.40       1.0  T
   4    -69.5153925 -0.641927E-04  0.786E-03    1.41       1.9  T
   5    -69.5153932 -0.643884E-06  0.388E-03    1.41       3.8  T
   6    -69.5153936 -0.442263E-06  0.138E-03    1.41      10.8  T
   7    -69.5153937 -0.320791E-07  0.548E-04    1.41      27.2  T
   8    -69.5153937 -0.563480E-08  0.270E-04    1.41      55.2  T
     SCC iter.                  ...        0 min,  0.207 sec
     gradient                   ...        0 min,  0.034 sec
 * total energy  :   -68.4965204 Eh     change       -0.8178178E-03 Eh
   gradient norm :     0.0166709 Eh/α   predicted    -0.6292420E-03 ( -23.06%)
   displ. norm   :     0.4648189 α      lambda       -0.1119573E-02
   maximum displ.:     0.2782572 α      in ANC's #4, #5, #11, ...

........................................................................
.............................. CYCLE    7 ..............................
........................................................................
   1    -69.5147293 -0.695147E+02  0.106E-01    1.40       0.0  T
   2    -69.5147390 -0.968753E-05  0.601E-02    1.40       1.0  T
   3    -69.5147170  0.219850E-04  0.254E-02    1.40       1.0  T
   4    -69.5147418 -0.248184E-04  0.732E-03    1.40       2.0  T
   5    -69.5147431 -0.124801E-05  0.316E-03    1.40       4.7  T
   6    -69.5147433 -0.202417E-06  0.118E-03    1.40      12.7  T
   7    -69.5147433 -0.337189E-07  0.476E-04    1.40      31.3  T
   8    -69.5147433 -0.312846E-08  0.234E-04    1.40      63.8  T
     SCC iter.                  ...        0 min,  0.200 sec
     gradient                   ...        0 min,  0.033 sec
 * total energy  :   -68.4974194 Eh     change       -0.8990793E-03 Eh
   gradient norm :     0.0123135 Eh/α   predicted    -0.6807315E-03 ( -24.29%)
   displ. norm   :     0.4994209 α      lambda       -0.1065055E-02
   maximum displ.:     0.3204777 α      in ANC's #4, #5, #22, ...

........................................................................
.............................. CYCLE    8 ..............................
........................................................................
   1    -69.5177213 -0.695177E+02  0.108E-01    1.41       0.0  T
   2    -69.5177284 -0.712542E-05  0.607E-02    1.40       1.0  T
   3    -69.5176844  0.440088E-04  0.382E-02    1.41       1.0  T
   4    -69.5177372 -0.527880E-04  0.691E-03    1.40       2.2  T
   5    -69.5177378 -0.581278E-06  0.324E-03    1.40       4.6  T
   6    -69.5177379 -0.173832E-06  0.125E-03    1.40      12.0  T
   7    -69.5177380 -0.477759E-07  0.468E-04    1.40      31.8  T
   8    -69.5177380 -0.268956E-08  0.277E-04    1.40      53.9  T
     SCC iter.                  ...        0 min,  0.202 sec
     gradient                   ...        0 min,  0.030 sec
 * total energy  :   -68.4982457 Eh     change       -0.8262418E-03 Eh
   gradient norm :     0.0070144 Eh/α   predicted    -0.6653514E-03 ( -19.47%)
   displ. norm   :     0.4957778 α      lambda       -0.7381364E-03
   maximum displ.:     0.3267463 α      in ANC's #4, #5, #3, ...

........................................................................
.............................. CYCLE    9 ..............................
........................................................................
   1    -69.5208854 -0.695209E+02  0.102E-01    1.40       0.0  T
   2    -69.5208899 -0.448722E-05  0.569E-02    1.40       1.0  T
   3    -69.5208557  0.341590E-04  0.316E-02    1.40       1.0  T
   4    -69.5208952 -0.394786E-04  0.594E-03    1.40       2.5  T
   5    -69.5208954 -0.211283E-06  0.274E-03    1.40       5.4  T
   6    -69.5208956 -0.169029E-06  0.910E-04    1.40      16.4  T
   7    -69.5208956 -0.243701E-07  0.386E-04    1.40      38.7  T
     SCC iter.                  ...        0 min,  0.178 sec
     gradient                   ...        0 min,  0.033 sec
 * total energy  :   -68.4988202 Eh     change       -0.5745106E-03 Eh
   gradient norm :     0.0072208 Eh/α   predicted    -0.4597836E-03 ( -19.97%)
   displ. norm   :     0.4567423 α      lambda       -0.5535911E-03
   maximum displ.:     0.3026459 α      in ANC's #4, #5, #3, ...

........................................................................
.............................. CYCLE   10 ..............................
........................................................................
   1    -69.5252525 -0.695253E+02  0.906E-02    1.39       0.0  T
   2    -69.5252550 -0.255958E-05  0.504E-02    1.39       1.0  T
   3    -69.5252328  0.221717E-04  0.249E-02    1.39       1.0  T
   4    -69.5252582 -0.253671E-04  0.518E-03    1.39       2.9  T
   5    -69.5252583 -0.625425E-07  0.253E-03    1.39       5.9  T
   6    -69.5252585 -0.201845E-06  0.617E-04    1.39      24.2  T
   7    -69.5252585 -0.111309E-07  0.300E-04    1.39      49.8  T
     SCC iter.                  ...        0 min,  0.178 sec
     gradient                   ...        0 min,  0.033 sec
 * total energy  :   -68.4992588 Eh     change       -0.4386004E-03 Eh
   gradient norm :     0.0075441 Eh/α   predicted    -0.3345404E-03 ( -23.73%)
   displ. norm   :     0.5339235 α      lambda       -0.5357361E-03
   maximum displ.:     0.3521241 α      in ANC's #4, #5, #3, ...

........................................................................
.............................. CYCLE   11 ..............................
........................................................................
   1    -69.5236441 -0.695236E+02  0.103E-01    1.37       0.0  T
   2    -69.5236516 -0.757822E-05  0.584E-02    1.38       1.0  T
   3    -69.5236385  0.131660E-04  0.191E-02    1.38       1.0  T
   4    -69.5236535 -0.150147E-04  0.652E-03    1.38       2.3  T
   5    -69.5236543 -0.825137E-06  0.306E-03    1.38       4.9  T
   6    -69.5236545 -0.174579E-06  0.128E-03    1.38      11.6  T
   7    -69.5236545 -0.531574E-07  0.426E-04    1.38      35.0  T
   8    -69.5236545 -0.272389E-08  0.222E-04    1.38      67.1  T
     SCC iter.                  ...        0 min,  0.202 sec
     gradient                   ...        0 min,  0.039 sec
 * total energy  :   -68.4996325 Eh     change       -0.3737112E-03 Eh
   gradient norm :     0.0089773 Eh/α   predicted    -0.3442362E-03 (  -7.89%)
   displ. norm   :     0.5167441 α      lambda       -0.6490354E-03
   maximum displ.:     0.3247722 α      in ANC's #4, #5, #1, ...

........................................................................
.............................. CYCLE   12 ..............................
........................................................................
   1    -69.5281127 -0.695281E+02  0.102E-01    1.37       0.0  T
   2    -69.5281175 -0.481852E-05  0.571E-02    1.37       1.0  T
   3    -69.5281008  0.167506E-04  0.222E-02    1.37       1.0  T
   4    -69.5281198 -0.190427E-04  0.696E-03    1.37       2.1  T
   5    -69.5281205 -0.637378E-06  0.341E-03    1.37       4.4  T
   6    -69.5281208 -0.306475E-06  0.106E-03    1.37      14.1  T
   7    -69.5281208 -0.360806E-07  0.443E-04    1.37      33.6  T
   8    -69.5281208 -0.998753E-09  0.238E-04    1.37      62.6  T
     SCC iter.                  ...        0 min,  0.202 sec
     gradient                   ...        0 min,  0.035 sec
 * total energy  :   -68.5000597 Eh     change       -0.4271702E-03 Eh
   gradient norm :     0.0078812 Eh/α   predicted    -0.4111780E-03 (  -3.74%)
   displ. norm   :     0.4936073 α      lambda       -0.3688802E-03
   maximum displ.:     0.3226881 α      in ANC's #4, #5, #3, ...

........................................................................
.............................. CYCLE   13 ..............................
........................................................................
   1    -69.5245964 -0.695246E+02  0.928E-02    1.36       0.0  T
   2    -69.5246005 -0.414095E-05  0.521E-02    1.36       1.0  T
   3    -69.5245861  0.143716E-04  0.195E-02    1.36       1.0  T
   4    -69.5246024 -0.162446E-04  0.578E-03    1.36       2.6  T
   5    -69.5246029 -0.495849E-06  0.271E-03    1.36       5.5  T
   6    -69.5246030 -0.140312E-06  0.111E-03    1.36      13.4  T
   7    -69.5246030 -0.435842E-07  0.371E-04    1.36      40.2  T
   8    -69.5246031 -0.102963E-08  0.217E-04    1.36      68.7  T
     SCC iter.                  ...        0 min,  0.210 sec
     gradient                   ...        0 min,  0.041 sec
 * total energy  :   -68.5003532 Eh     change       -0.2935196E-03 Eh
   gradient norm :     0.0074965 Eh/α   predicted    -0.2293822E-03 ( -21.85%)
   displ. norm   :     0.4756810 α      lambda       -0.4118587E-03
   maximum displ.:     0.2852781 α      in ANC's #4, #5, #1, ...

........................................................................
.............................. CYCLE   14 ..............................
........................................................................
   1    -69.5238472 -0.695238E+02  0.923E-02    1.36       0.0  T
   2    -69.5238514 -0.426513E-05  0.521E-02    1.36       1.0  T
   3    -69.5238370  0.144758E-04  0.202E-02    1.36       1.0  T
   4    -69.5238534 -0.164205E-04  0.565E-03    1.36       2.6  T
   5    -69.5238538 -0.424019E-06  0.275E-03    1.36       5.4  T
   6    -69.5238539 -0.141551E-06  0.124E-03    1.36      12.1  T
   7    -69.5238540 -0.484545E-07  0.454E-04    1.36      32.9  T
   8    -69.5238540 -0.984400E-09  0.255E-04    1.36      58.4  T
     SCC iter.                  ...        0 min,  0.203 sec
     gradient                   ...        0 min,  0.035 sec
 * total energy  :   -68.5006529 Eh     change       -0.2997416E-03 Eh
   gradient norm :     0.0069176 Eh/α   predicted    -0.2525389E-03 ( -15.75%)
   displ. norm   :     0.4508667 α      lambda       -0.2905227E-03
   maximum displ.:     0.2683483 α      in ANC's #4, #5, #1, ...

........................................................................
.............................. CYCLE   15 ..............................
........................................................................
   1    -69.5200164 -0.695200E+02  0.887E-02    1.35       0.0  T
   2    -69.5200194 -0.303440E-05  0.500E-02    1.35       1.0  T
   3    -69.5200061  0.133239E-04  0.190E-02    1.35       1.0  T
   4    -69.5200213 -0.152098E-04  0.514E-03    1.35       2.9  T
   5    -69.5200214 -0.133328E-06  0.244E-03    1.35       6.1  T
   6    -69.5200216 -0.166670E-06  0.923E-04    1.35      16.1  T
   7    -69.5200216 -0.232403E-07  0.383E-04    1.35      39.0  T
     SCC iter.                  ...        0 min,  0.239 sec
     gradient                   ...        0 min,  0.046 sec
 * total energy  :   -68.5008480 Eh     change       -0.1950744E-03 Eh
   gradient norm :     0.0072464 Eh/α   predicted    -0.1747925E-03 ( -10.40%)
   displ. norm   :     0.3129592 α      lambda       -0.2502285E-03
   maximum displ.:     0.1544302 α      in ANC's #5, #4, #10, ...

........................................................................
.............................. CYCLE   16 ..............................
........................................................................
   1    -69.5228399 -0.695228E+02  0.708E-02    1.35       0.0  T
   2    -69.5228421 -0.226737E-05  0.400E-02    1.35       1.0  T
   3    -69.5228369  0.521849E-05  0.129E-02    1.35       1.2  T
   4    -69.5228429 -0.595670E-05  0.408E-03    1.35       3.7  T
   5    -69.5228431 -0.196808E-06  0.192E-03    1.35       7.8  T
   6    -69.5228432 -0.917512E-07  0.744E-04    1.35      20.0  T
   7    -69.5228432 -0.169785E-07  0.317E-04    1.35      47.0  T
     SCC iter.                  ...        0 min,  0.118 sec
     gradient                   ...        0 min,  0.039 sec
 * total energy  :   -68.5009868 Eh     change       -0.1388340E-03 Eh
   gradient norm :     0.0060998 Eh/α   predicted    -0.1373729E-03 (  -1.05%)
   displ. norm   :     0.2553583 α      lambda       -0.1417023E-03
   maximum displ.:     0.1455743 α      in ANC's #4, #5, #1, ...

........................................................................
.............................. CYCLE   17 ..............................
........................................................................
   1    -69.5227812 -0.695228E+02  0.509E-02    1.34       0.0  T
   2    -69.5227826 -0.144219E-05  0.287E-02    1.35       1.0  T
   3    -69.5227778  0.482816E-05  0.111E-02    1.34       1.3  T
   4    -69.5227832 -0.538754E-05  0.330E-03    1.35       4.5  T
   5    -69.5227834 -0.183038E-06  0.138E-03    1.35      10.8  T
   6    -69.5227834 -0.440743E-07  0.537E-04    1.35      27.8  T
   7    -69.5227834 -0.768662E-08  0.206E-04    1.35      72.2  T
     SCC iter.                  ...        0 min,  0.118 sec
     gradient                   ...        0 min,  0.041 sec
 * total energy  :   -68.5010860 Eh     change       -0.9921017E-04 Eh
   gradient norm :     0.0049240 Eh/α   predicted    -0.7547158E-04 ( -23.93%)
   displ. norm   :     0.2452857 α      lambda       -0.1497366E-03
   maximum displ.:     0.1358591 α      in ANC's #5, #4, #1, ...

........................................................................
.............................. CYCLE   18 ..............................
........................................................................
   1    -69.5241932 -0.695242E+02  0.505E-02    1.34       0.0  T
   2    -69.5241945 -0.131382E-05  0.285E-02    1.34       1.0  T
   3    -69.5241866  0.789023E-05  0.138E-02    1.34       1.1  T
   4    -69.5241955 -0.888356E-05  0.328E-03    1.34       4.5  T
   5    -69.5241956 -0.127908E-06  0.140E-03    1.34      10.7  T
   6    -69.5241957 -0.391654E-07  0.499E-04    1.34      29.9  T
   7    -69.5241957 -0.525301E-08  0.219E-04    1.34      68.2  T
     SCC iter.                  ...        0 min,  0.119 sec
     gradient                   ...        0 min,  0.037 sec
 * total energy  :   -68.5011909 Eh     change       -0.1049011E-03 Eh
   gradient norm :     0.0050585 Eh/α   predicted    -0.7937693E-04 ( -24.33%)
   displ. norm   :     0.2346893 α      lambda       -0.1309742E-03
   maximum displ.:     0.1216820 α      in ANC's #5, #4, #1, ...

........................................................................
.............................. CYCLE   19 ..............................
........................................................................
   1    -69.5266028 -0.695266E+02  0.464E-02    1.34       0.0  T
   2    -69.5266037 -0.944620E-06  0.262E-02    1.34       1.0  T
   3    -69.5266000  0.377043E-05  0.997E-03    1.34       1.5  T
   4    -69.5266042 -0.420937E-05  0.295E-03    1.34       5.1  T
   5    -69.5266043 -0.130874E-06  0.138E-03    1.34      10.8  T
   6    -69.5266044 -0.505163E-07  0.471E-04    1.34      31.6  T
   7    -69.5266044 -0.537317E-08  0.206E-04    1.34      72.2  T
     SCC iter.                  ...        0 min,  0.231 sec
     gradient                   ...        0 min,  0.043 sec
 * total energy  :   -68.5012847 Eh     change       -0.9373361E-04 Eh
   gradient norm :     0.0052618 Eh/α   predicted    -0.6909537E-04 ( -26.29%)
   displ. norm   :     0.3597845 α      lambda       -0.1508595E-03
   maximum displ.:     0.2078868 α      in ANC's #5, #4, #1, ...

........................................................................
.............................. CYCLE   20 ..............................
........................................................................
   1    -69.5253760 -0.695254E+02  0.724E-02    1.33       0.0  T
   2    -69.5253775 -0.154337E-05  0.406E-02    1.33       1.0  T
   3    -69.5253729  0.464963E-05  0.111E-02    1.33       1.3  T
   4    -69.5253780 -0.510941E-05  0.425E-03    1.33       3.5  T
   5    -69.5253783 -0.292918E-06  0.165E-03    1.33       9.0  T
   6    -69.5253784 -0.707278E-07  0.420E-04    1.33      35.5  T
   7    -69.5253784 -0.226288E-08  0.254E-04    1.33      58.8  T
     SCC iter.                  ...        0 min,  0.235 sec
     gradient                   ...        0 min,  0.038 sec
 * total energy  :   -68.5013859 Eh     change       -0.1011806E-03 Eh
   gradient norm :     0.0053631 Eh/α   predicted    -0.8519502E-04 ( -15.80%)
   displ. norm   :     0.2602092 α      lambda       -0.1813629E-03
   maximum displ.:     0.1035494 α      in ANC's #5, #1, #2, ...
 * RMSD in coord.:     0.9794707 α      energy gain  -0.1887736E-01 Eh

generating ANC from model Hessian ...
Using Lindh-Hessian (1995)
 Shifting diagonal of input Hessian by    9.8740606931665437E-003
 Lowest  eigenvalues of input Hessian
    0.000000    0.000000    0.000000    0.000000    0.000000    0.000000
    0.010000    0.010258    0.010366    0.010554    0.010730    0.011703
    0.012759    0.012996    0.013321    0.014234    0.014601    0.015335
 Highest eigenvalues
    1.856974    1.905744    1.911393    1.954304    2.002462    2.031424


........................................................................
.............................. CYCLE   21 ..............................
........................................................................
   1    -69.5285259 -0.695285E+02  0.608E-02    1.33       0.0  T
   2    -69.5285273 -0.140622E-05  0.346E-02    1.33       1.0  T
   3    -69.5285248  0.256798E-05  0.908E-03    1.33       1.6  T
   4    -69.5285275 -0.276496E-05  0.378E-03    1.33       3.9  T
   5    -69.5285278 -0.284872E-06  0.148E-03    1.33      10.1  T
   6    -69.5285279 -0.462729E-07  0.609E-04    1.33      24.5  T
   7    -69.5285279 -0.961128E-08  0.298E-04    1.33      50.1  T
     SCC iter.                  ...        0 min,  0.240 sec
     gradient                   ...        0 min,  0.041 sec
 * total energy  :   -68.5014708 Eh     change       -0.8489084E-04 Eh
   gradient norm :     0.0056632 Eh/α   predicted     0.0000000E+00 (-100.00%)
   displ. norm   :     0.0649703 α      lambda       -0.1140617E-03
   maximum displ.:     0.0326459 α      in ANC's #8, #7, #4, ...

........................................................................
.............................. CYCLE   22 ..............................
........................................................................
   1    -69.5270310 -0.695270E+02  0.214E-02    1.34       0.0  T
   2    -69.5270313 -0.336706E-06  0.125E-02    1.33       1.2  T
   3    -69.5270287  0.259420E-05  0.854E-03    1.34       1.7  T
   4    -69.5270318 -0.309228E-05  0.142E-03    1.33      10.5  T
   5    -69.5270318 -0.185709E-07  0.680E-04    1.33      21.9  T
   6    -69.5270319 -0.643773E-08  0.341E-04    1.33      43.7  T
     SCC iter.                  ...        0 min,  0.206 sec
     gradient                   ...        0 min,  0.043 sec
 * total energy  :   -68.5015587 Eh     change       -0.8794839E-04 Eh
   gradient norm :     0.0026991 Eh/α   predicted    -0.5734767E-04 ( -34.79%)
   displ. norm   :     0.1466520 α      lambda       -0.1296348E-03
   maximum displ.:     0.0745175 α      in ANC's #8, #4, #7, ...

........................................................................
.............................. CYCLE   23 ..............................
........................................................................
   1    -69.5251477 -0.695251E+02  0.373E-02    1.34       0.0  T
   2    -69.5251485 -0.817007E-06  0.214E-02    1.34       1.0  T
   3    -69.5251418  0.671308E-05  0.132E-02    1.34       1.1  T
   4    -69.5251496 -0.779217E-05  0.257E-03    1.34       5.8  T
   5    -69.5251497 -0.609936E-07  0.112E-03    1.34      13.3  T
   6    -69.5251497 -0.206778E-07  0.516E-04    1.34      28.9  T
   7    -69.5251497 -0.741113E-08  0.198E-04    1.34      75.1  T
     SCC iter.                  ...        0 min,  0.175 sec
     gradient                   ...        0 min,  0.041 sec
 * total energy  :   -68.5016445 Eh     change       -0.8583246E-04 Eh
   gradient norm :     0.0025591 Eh/α   predicted    -0.6621364E-04 ( -22.86%)
   displ. norm   :     0.1300682 α      lambda       -0.6235424E-04
   maximum displ.:     0.0646471 α      in ANC's #4, #8, #7, ...

........................................................................
.............................. CYCLE   24 ..............................
........................................................................
   1    -69.5246142 -0.695246E+02  0.302E-02    1.34       0.0  T
   2    -69.5246146 -0.408820E-06  0.168E-02    1.34       1.0  T
   3    -69.5246127  0.187730E-05  0.688E-03    1.34       2.2  T
   4    -69.5246148 -0.205563E-05  0.224E-03    1.34       6.7  T
   5    -69.5246149 -0.980255E-07  0.750E-04    1.34      19.9  T
   6    -69.5246149 -0.813534E-08  0.338E-04    1.34      44.1  T
     SCC iter.                  ...        0 min,  0.152 sec
     gradient                   ...        0 min,  0.043 sec
 * total energy  :   -68.5016937 Eh     change       -0.4917842E-04 Eh
   gradient norm :     0.0033099 Eh/α   predicted    -0.3170467E-04 ( -35.53%)
   displ. norm   :     0.1888622 α      lambda       -0.8189231E-04
   maximum displ.:     0.0970952 α      in ANC's #4, #7, #8, ...

........................................................................
.............................. CYCLE   25 ..............................
........................................................................
   1    -69.5247146 -0.695247E+02  0.442E-02    1.34       0.0  T
   2    -69.5247154 -0.720139E-06  0.245E-02    1.34       1.0  T
   3    -69.5247127  0.264820E-05  0.875E-03    1.34       1.7  T
   4    -69.5247156 -0.287487E-05  0.320E-03    1.34       4.7  T
   5    -69.5247158 -0.196488E-06  0.881E-04    1.34      16.9  T
   6    -69.5247158 -0.957557E-08  0.406E-04    1.34      36.7  T
     SCC iter.                  ...        0 min,  0.152 sec
     gradient                   ...        0 min,  0.036 sec
 * total energy  :   -68.5017551 Eh     change       -0.6139949E-04 Eh
   gradient norm :     0.0030748 Eh/α   predicted    -0.4240697E-04 ( -30.93%)
   displ. norm   :     0.1786460 α      lambda       -0.6315998E-04
   maximum displ.:     0.0981126 α      in ANC's #4, #1, #7, ...

........................................................................
.............................. CYCLE   26 ..............................
........................................................................
   1    -69.5253696 -0.695254E+02  0.434E-02    1.34       0.0  T
   2    -69.5253701 -0.530827E-06  0.243E-02    1.34       1.0  T
   3    -69.5253659  0.422410E-05  0.110E-02    1.34       1.4  T
   4    -69.5253706 -0.474056E-05  0.279E-03    1.34       5.3  T
   5    -69.5253707 -0.803923E-07  0.779E-04    1.34      19.1  T
   6    -69.5253707 -0.880880E-08  0.440E-04    1.34      33.8  T
     SCC iter.                  ...        0 min,  0.155 sec
     gradient                   ...        0 min,  0.037 sec
 * total energy  :   -68.5018022 Eh     change       -0.4708017E-04 Eh
   gradient norm :     0.0024127 Eh/α   predicted    -0.3258845E-04 ( -30.78%)
   displ. norm   :     0.1553210 α      lambda       -0.4744225E-04
   maximum displ.:     0.0904021 α      in ANC's #4, #1, #7, ...

........................................................................
.............................. CYCLE   27 ..............................
........................................................................
   1    -69.5262146 -0.695262E+02  0.388E-02    1.34       0.0  T
   2    -69.5262150 -0.366397E-06  0.219E-02    1.34       1.0  T
   3    -69.5262114  0.356911E-05  0.100E-02    1.34       1.5  T
   4    -69.5262154 -0.399763E-05  0.241E-03    1.34       6.2  T
   5    -69.5262155 -0.499335E-07  0.785E-04    1.34      19.0  T
   6    -69.5262155 -0.165271E-07  0.359E-04    1.34      41.5  T
     SCC iter.                  ...        0 min,  0.152 sec
     gradient                   ...        0 min,  0.036 sec
 * total energy  :   -68.5018392 Eh     change       -0.3704591E-04 Eh
   gradient norm :     0.0018563 Eh/α   predicted    -0.2429601E-04 ( -34.42%)
   displ. norm   :     0.2408884 α      lambda       -0.4473448E-04
   maximum displ.:     0.1439761 α      in ANC's #4, #1, #2, ...

........................................................................
.............................. CYCLE   28 ..............................
........................................................................
   1    -69.5270517 -0.695271E+02  0.597E-02    1.34       0.0  T
   2    -69.5270526 -0.867755E-06  0.335E-02    1.34       1.0  T
   3    -69.5270475  0.513422E-05  0.122E-02    1.34       1.2  T
   4    -69.5270531 -0.564213E-05  0.380E-03    1.34       3.9  T
   5    -69.5270533 -0.190900E-06  0.123E-03    1.34      12.1  T
   6    -69.5270534 -0.456419E-07  0.465E-04    1.34      32.1  T
   7    -69.5270534 -0.511588E-08  0.237E-04    1.34      62.8  T
     SCC iter.                  ...        0 min,  0.177 sec
     gradient                   ...        0 min,  0.042 sec
 * total energy  :   -68.5018862 Eh     change       -0.4701253E-04 Eh
   gradient norm :     0.0020916 Eh/α   predicted    -0.2294423E-04 ( -51.20%)
   displ. norm   :     0.1154083 α      lambda       -0.2986136E-04
   maximum displ.:     0.0700742 α      in ANC's #4, #1, #2, ...

........................................................................
.............................. CYCLE   29 ..............................
........................................................................
   1    -69.5271094 -0.695271E+02  0.255E-02    1.34       0.0  T
   2    -69.5271095 -0.135245E-06  0.143E-02    1.34       1.0  T
   3    -69.5271094  0.142032E-06  0.266E-03    1.34       5.6  T
   4    -69.5271095 -0.132984E-06  0.152E-03    1.34       9.8  T
   5    -69.5271096 -0.515572E-07  0.445E-04    1.34      33.5  T
   6    -69.5271096 -0.835345E-08  0.128E-04    1.34     116.0  T
     SCC iter.                  ...        0 min,  0.151 sec
     gradient                   ...        0 min,  0.043 sec
 * total energy  :   -68.5019130 Eh     change       -0.2672287E-04 Eh
   gradient norm :     0.0019706 Eh/α   predicted    -0.1513313E-04 ( -43.37%)
   displ. norm   :     0.3038452 α      lambda       -0.5557854E-04
   maximum displ.:     0.1795951 α      in ANC's #4, #1, #2, ...

........................................................................
.............................. CYCLE   30 ..............................
........................................................................
   1    -69.5269191 -0.695269E+02  0.635E-02    1.33       0.0  T
   2    -69.5269199 -0.800765E-06  0.357E-02    1.33       1.0  T
   3    -69.5269184  0.144007E-05  0.789E-03    1.34       1.9  T
   4    -69.5269200 -0.156813E-05  0.356E-03    1.33       4.2  T
   5    -69.5269202 -0.191239E-06  0.109E-03    1.34      13.7  T
   6    -69.5269202 -0.424974E-07  0.328E-04    1.33      45.4  T
   7    -69.5269202 -0.183896E-08  0.187E-04    1.33      79.5  T
     SCC iter.                  ...        0 min,  0.179 sec
     gradient                   ...        0 min,  0.036 sec
 * total energy  :   -68.5019744 Eh     change       -0.6140922E-04 Eh
   gradient norm :     0.0024825 Eh/α   predicted    -0.2893430E-04 ( -52.88%)
   displ. norm   :     0.1811845 α      lambda       -0.3682349E-04
   maximum displ.:     0.1096842 α      in ANC's #4, #1, #2, ...

........................................................................
.............................. CYCLE   31 ..............................
........................................................................
   1    -69.5264525 -0.695265E+02  0.343E-02    1.33       0.0  T
   2    -69.5264527 -0.254555E-06  0.193E-02    1.33       1.0  T
   3    -69.5264523  0.451684E-06  0.451E-03    1.33       3.3  T
   4    -69.5264528 -0.518214E-06  0.189E-03    1.33       7.9  T
   5    -69.5264528 -0.387442E-07  0.530E-04    1.33      28.1  T
   6    -69.5264528 -0.882268E-08  0.202E-04    1.33      73.6  T
     SCC iter.                  ...        0 min,  0.150 sec
     gradient                   ...        0 min,  0.036 sec
 * total energy  :   -68.5020066 Eh     change       -0.3217758E-04 Eh
   gradient norm :     0.0023620 Eh/α   predicted    -0.1901979E-04 ( -40.89%)
   displ. norm   :     0.2586857 α      lambda       -0.5493560E-04
   maximum displ.:     0.1534033 α      in ANC's #4, #1, #2, ...

........................................................................
.............................. CYCLE   32 ..............................
........................................................................
   1    -69.5264541 -0.695265E+02  0.472E-02    1.33       0.0  T
   2    -69.5264547 -0.554939E-06  0.266E-02    1.33       1.0  T
   3    -69.5264533  0.142535E-05  0.718E-03    1.33       2.1  T
   4    -69.5264549 -0.160838E-05  0.269E-03    1.33       5.5  T
   5    -69.5264549 -0.710391E-07  0.995E-04    1.33      15.0  T
   6    -69.5264550 -0.284711E-07  0.359E-04    1.33      41.5  T
     SCC iter.                  ...        0 min,  0.165 sec
     gradient                   ...        0 min,  0.037 sec
 * total energy  :   -68.5020511 Eh     change       -0.4455859E-04 Eh
   gradient norm :     0.0018998 Eh/α   predicted    -0.2930679E-04 ( -34.23%)
   displ. norm   :     0.4463630 α      lambda       -0.5104631E-04
   maximum displ.:     0.2689798 α      in ANC's #4, #1, #2, ...

........................................................................
.............................. CYCLE   33 ..............................
........................................................................
   1    -69.5249319 -0.695249E+02  0.785E-02    1.32       0.0  T
   2    -69.5249336 -0.170222E-05  0.442E-02    1.33       1.0  T
   3    -69.5249283  0.523304E-05  0.130E-02    1.32       1.1  T
   4    -69.5249342 -0.583215E-05  0.466E-03    1.33       3.2  T
   5    -69.5249344 -0.230247E-06  0.178E-03    1.33       8.4  T
   6    -69.5249345 -0.824403E-07  0.655E-04    1.33      22.7  T
   7    -69.5249345 -0.144298E-07  0.275E-04    1.33      54.2  T
     SCC iter.                  ...        0 min,  0.174 sec
     gradient                   ...        0 min,  0.035 sec
 * total energy  :   -68.5020989 Eh     change       -0.4777379E-04 Eh
   gradient norm :     0.0026772 Eh/α   predicted    -0.2778592E-04 ( -41.84%)
   displ. norm   :     0.1475736 α      lambda       -0.3053070E-04
   maximum displ.:     0.0898871 α      in ANC's #1, #4, #2, ...

........................................................................
.............................. CYCLE   34 ..............................
........................................................................
   1    -69.5259550 -0.695260E+02  0.274E-02    1.33       0.0  T
   2    -69.5259553 -0.247317E-06  0.154E-02    1.33       1.0  T
   3    -69.5259545  0.812052E-06  0.492E-03    1.33       3.0  T
   4    -69.5259554 -0.900599E-06  0.168E-03    1.33       8.9  T
   5    -69.5259554 -0.355484E-07  0.636E-04    1.33      23.4  T
   6    -69.5259554 -0.835756E-08  0.245E-04    1.33      60.7  T
     SCC iter.                  ...        0 min,  0.151 sec
     gradient                   ...        0 min,  0.035 sec
 * total energy  :   -68.5021213 Eh     change       -0.2238863E-04 Eh
   gradient norm :     0.0021962 Eh/α   predicted    -0.1559871E-04 ( -30.33%)
   displ. norm   :     0.2218680 α      lambda       -0.3756569E-04
   maximum displ.:     0.1346662 α      in ANC's #1, #4, #2, ...

........................................................................
.............................. CYCLE   35 ..............................
........................................................................
   1    -69.5263428 -0.695263E+02  0.406E-02    1.32       0.0  T
   2    -69.5263431 -0.358121E-06  0.228E-02    1.33       1.0  T
   3    -69.5263411  0.205564E-05  0.755E-03    1.32       2.0  T
   4    -69.5263433 -0.228064E-05  0.236E-03    1.33       6.3  T
   5    -69.5263434 -0.466262E-07  0.797E-04    1.33      18.7  T
   6    -69.5263434 -0.221268E-07  0.235E-04    1.33      63.4  T
     SCC iter.                  ...        0 min,  0.156 sec
     gradient                   ...        0 min,  0.035 sec
 * total energy  :   -68.5021518 Eh     change       -0.3050220E-04 Eh
   gradient norm :     0.0019097 Eh/α   predicted    -0.1971073E-04 ( -35.38%)
   displ. norm   :     0.4731673 α      lambda       -0.4425013E-04
   maximum displ.:     0.2880984 α      in ANC's #1, #4, #2, ...

........................................................................
.............................. CYCLE   36 ..............................
........................................................................
   1    -69.5254621 -0.695255E+02  0.892E-02    1.32       0.0  T
   2    -69.5254638 -0.173090E-05  0.497E-02    1.32       1.0  T
   3    -69.5254588  0.499804E-05  0.127E-02    1.32       1.2  T
   4    -69.5254642 -0.533518E-05  0.563E-03    1.32       2.6  T
   5    -69.5254647 -0.529048E-06  0.136E-03    1.32      11.0  T
   6    -69.5254648 -0.585610E-07  0.495E-04    1.32      30.1  T
   7    -69.5254648 -0.523923E-08  0.260E-04    1.32      57.3  T
     SCC iter.                  ...        0 min,  0.175 sec
     gradient                   ...        0 min,  0.035 sec
 * total energy  :   -68.5021912 Eh     change       -0.3943287E-04 Eh
   gradient norm :     0.0022673 Eh/α   predicted    -0.2433164E-04 ( -38.30%)
   displ. norm   :     0.0930926 α      lambda       -0.1821762E-04
   maximum displ.:     0.0596067 α      in ANC's #1, #4, #2, ...

........................................................................
.............................. CYCLE   37 ..............................
........................................................................
   1    -69.5262601 -0.695263E+02  0.201E-02    1.32       0.0  T
   2    -69.5262602 -0.114119E-06  0.112E-02    1.32       1.3  T
   3    -69.5262600  0.269255E-06  0.295E-03    1.32       5.1  T
   4    -69.5262603 -0.282900E-06  0.126E-03    1.32      11.8  T
   5    -69.5262603 -0.304024E-07  0.442E-04    1.32      33.7  T
   6    -69.5262603 -0.596343E-08  0.153E-04    1.32      97.6  T
     SCC iter.                  ...        0 min,  0.152 sec
     gradient                   ...        0 min,  0.037 sec
 * total energy  :   -68.5022057 Eh     change       -0.1450957E-04 Eh
   gradient norm :     0.0015564 Eh/α   predicted    -0.9191650E-05 ( -36.65%)
   displ. norm   :     0.2690024 α      lambda       -0.2614094E-04
   maximum displ.:     0.1684966 α      in ANC's #1, #4, #2, ...

........................................................................
.............................. CYCLE   38 ..............................
........................................................................
   1    -69.5267291 -0.695267E+02  0.571E-02    1.32       0.0  T
   2    -69.5267298 -0.762881E-06  0.317E-02    1.32       1.0  T
   3    -69.5267284  0.140340E-05  0.735E-03    1.32       2.0  T
   4    -69.5267298 -0.141831E-05  0.359E-03    1.32       4.1  T
   5    -69.5267301 -0.256646E-06  0.114E-03    1.32      13.0  T
   6    -69.5267301 -0.505832E-07  0.315E-04    1.32      47.3  T
   7    -69.5267301 -0.294392E-08  0.140E-04    1.32     106.8  T
     SCC iter.                  ...        0 min,  0.175 sec
     gradient                   ...        0 min,  0.037 sec
 * total energy  :   -68.5022320 Eh     change       -0.2622744E-04 Eh
   gradient norm :     0.0014232 Eh/α   predicted    -0.1349169E-04 ( -48.56%)
   displ. norm   :     0.2111101 α      lambda       -0.1303867E-04
   maximum displ.:     0.1324249 α      in ANC's #1, #4, #2, ...

........................................................................
.............................. CYCLE   39 ..............................
........................................................................
   1    -69.5261230 -0.695261E+02  0.421E-02    1.32       0.0  T
   2    -69.5261233 -0.386600E-06  0.235E-02    1.32       1.0  T
   3    -69.5261230  0.371450E-06  0.461E-03    1.32       3.2  T
   4    -69.5261234 -0.378120E-06  0.242E-03    1.32       6.2  T
   5    -69.5261235 -0.121070E-06  0.614E-04    1.32      24.3  T
   6    -69.5261235 -0.113223E-07  0.208E-04    1.32      71.6  T
     SCC iter.                  ...        0 min,  0.151 sec
     gradient                   ...        0 min,  0.041 sec
 * total energy  :   -68.5022462 Eh     change       -0.1422159E-04 Eh
   gradient norm :     0.0014969 Eh/α   predicted    -0.6652467E-05 ( -53.22%)
   displ. norm   :     0.1545341 α      lambda       -0.1127666E-04
   maximum displ.:     0.0955859 α      in ANC's #1, #3, #4, ...

........................................................................
.............................. CYCLE   40 ..............................
........................................................................
   1    -69.5264774 -0.695265E+02  0.324E-02    1.32       0.0  T
   2    -69.5264778 -0.319126E-06  0.181E-02    1.32       1.0  T
   3    -69.5264764  0.131673E-05  0.597E-03    1.32       2.5  T
   4    -69.5264779 -0.145691E-05  0.198E-03    1.32       7.5  T
   5    -69.5264779 -0.423624E-07  0.759E-04    1.32      19.6  T
   6    -69.5264780 -0.181420E-07  0.240E-04    1.32      62.0  T
     SCC iter.                  ...        0 min,  0.151 sec
     gradient                   ...        0 min,  0.039 sec
 * total energy  :   -68.5022581 Eh     change       -0.1190639E-04 Eh
   gradient norm :     0.0012353 Eh/α   predicted    -0.5702549E-05 ( -52.11%)
   displ. norm   :     0.1446088 α      lambda       -0.7263353E-05
   maximum displ.:     0.0917112 α      in ANC's #1, #4, #2, ...

........................................................................
.............................. CYCLE   41 ..............................
........................................................................
   1    -69.5263653 -0.695264E+02  0.265E-02    1.32       0.0  T
   2    -69.5263655 -0.203613E-06  0.149E-02    1.32       1.0  T
   3    -69.5263639  0.157884E-05  0.629E-03    1.32       2.4  T
   4    -69.5263657 -0.175509E-05  0.159E-03    1.32       9.4  T
   5    -69.5263657 -0.214681E-07  0.564E-04    1.32      26.4  T
   6    -69.5263657 -0.658389E-08  0.200E-04    1.32      74.6  T
     SCC iter.                  ...        0 min,  0.157 sec
     gradient                   ...        0 min,  0.047 sec
 * total energy  :   -68.5022655 Eh     change       -0.7374721E-05 Eh
   gradient norm :     0.0009298 Eh/α   predicted    -0.3667521E-05 ( -50.27%)
   displ. norm   :     0.1043598 α      lambda       -0.5092408E-05
   maximum displ.:     0.0673136 α      in ANC's #1, #3, #4, ...

........................................................................
.............................. CYCLE   42 ..............................
........................................................................
   1    -69.5261529 -0.695262E+02  0.205E-02    1.31       0.0  T
   2    -69.5261530 -0.104736E-06  0.114E-02    1.32       1.3  T
   3    -69.5261520  0.108374E-05  0.522E-03    1.31       2.9  T
   4    -69.5261532 -0.122330E-05  0.124E-03    1.32      12.0  T
   5    -69.5261532 -0.112229E-08  0.574E-04    1.32      26.0  T
   6    -69.5261532 -0.126243E-07  0.123E-04    1.32     120.9  T
     SCC iter.                  ...        0 min,  0.149 sec
     gradient                   ...        0 min,  0.044 sec
 * total energy  :   -68.5022703 Eh     change       -0.4820391E-05 Eh
   gradient norm :     0.0008241 Eh/α   predicted    -0.2563449E-05 ( -46.82%)
   displ. norm   :     0.0610526 α      lambda       -0.3922389E-05
   maximum displ.:     0.0376113 α      in ANC's #1, #3, #2, ...

   *** GEOMETRY OPTIMIZATION CONVERGED AFTER 42 ITERATIONS ***

------------------------------------------------------------------------
 total energy gain   :        -0.0197618 Eh      -12.4007 kcal/mol
 total RMSD          :         1.3600297 a0        0.7197 Å
 total power (kW/mol):        -1.2353461 (step)   -5.3783 (real)
------------------------------------------------------------------------

 ANCopt (total)                0 d,  0 h,  0 min,  9.647 sec
 optimizer setup                ...        0 min,  0.000 sec (  0.002%)
 model hessian                  ...        0 min,  0.075 sec (  0.774%)
 ANC generation                 ...        0 min,  0.029 sec (  0.297%)
 coordinate transformation      ...        0 min,  0.027 sec (  0.279%)
 single point calculation       ...        0 min,  9.444 sec ( 97.891%)
 optimization log               ...        0 min,  0.033 sec (  0.343%)
 hessian update                 ...        0 min,  0.011 sec (  0.116%)
 rational function              ...        0 min,  0.021 sec (  0.215%)

================
 final structure:
================
45
 xtb: 6.5.1 (fef0646)
N            3.41743991704093       -0.98663462400139        0.57375858077491
C            2.67725300369030        0.26163020793499        0.23816419180057
C            3.59698929207727        1.46387533797430        0.47787116141129
C            4.79671997989681        1.40100019701290       -0.40736636431919
C            5.03832554496244        2.05185618750797       -1.57599081251294
C            6.24551346301556        1.68053222426469       -2.19488681152552
C            6.95199063855944        0.72011640179792       -1.51706497987863
C            8.18545862491156        0.10888384102598       -1.84431033508219
C            8.88547868918130       -0.85189448119644       -1.14737911462123
C           10.08276347471169       -1.24603389302232       -1.75195122201180
C           10.99405989660828       -2.26870832494770       -1.16579392854474
C           10.31505878978706       -0.57540327072023       -2.94648786998637
C           11.39367629798837       -0.68362356850550       -3.86065136833465
C           11.56343672779941        0.04501732482482       -5.02186354568157
C           12.71308531571336       -0.28693998734108       -5.73396206656850
C           13.45950840898481       -1.28415037975674       -5.13881095721139
C           14.67100927312096       -1.90259146757094       -5.56896208689410
C           15.57540222881182       -1.51252132486580       -6.53848333897195
C           15.49222071796039       -0.27427027838807       -7.36586294310859
C           16.64560090865125       -2.42685371351910       -6.65598406561548
C           16.56340838040071       -3.47929289105364       -5.80062578803004
S           15.17045683307698       -3.39597744135921       -4.80973147204355
S           12.71111112888306       -1.80739164977662       -3.66026003993490
S            9.03153884357888        0.54816132704267       -3.30337591140126
S            6.11701676460348        0.28904860666467       -0.03873980040000
H            2.95365564115185       -1.82562862594589        0.21363203893867
H            3.53251579331398       -1.07373834277451        1.58943255312735
H            4.38855154351519       -0.88870904317484        0.16032301677273
H            1.77648682499643        0.32909318469142        0.84834629478622
H            2.39420055913800        0.22104491991830       -0.81433118228571
H            3.89453527652249        1.49662298959810        1.52803437518009
H            3.04088018928982        2.37509826366446        0.25837507601253
H            4.37067970415251        2.78786637045025       -1.98678351171658
H            6.60230948009754        2.10123931214800       -3.11669047137722
H            8.53681849888222       -1.25732200827851       -0.21166315762575
H           10.60508293905155       -2.61334408425175       -0.21116972125662
H           11.98930140603228       -1.85404866400804       -1.00989521467385
H           11.09521419603812       -3.12372977575422       -1.83357023712257
H           10.86129021684079        0.79614564314371       -5.34042133940837
H           12.97119969736932        0.17251780610435       -6.66783695538260
H           15.25256176836020        0.59009618483589       -6.74890405256969
H           14.72535249498593       -0.37502065455200       -8.13402233138053
H           16.44382662607635       -0.09810693827754       -7.86024576133422
H           17.45110179519547       -2.29746920463749       -7.35652981245341
H           17.24020220498324       -4.30346169292639       -5.69126871753787

 Bond Distances (Angstroems)
 ---------------------------
N1-C2=1.4895         N1-H26=1.0241        N1-H27=1.0259        N1-H28=1.0600        C2-N1=1.4895         C2-C3=1.5326         
C2-H29=1.0901        C2-H30=1.0906        C3-C2=1.5326         C3-C4=1.4923         C3-H31=1.0920        C3-H32=1.0898        
C4-C3=1.4923         C4-C5=1.3593         C4-S25=1.7651        C5-C4=1.3593         C5-C6=1.4065         C5-H33=1.0753        
C6-C5=1.4065         C6-C7=1.3715         C6-H34=1.0743        C7-C6=1.3715         C7-C8=1.4150         C7-S25=1.7517        
C8-C7=1.4150         C8-C9=1.3780         C8-S24=1.7429        C9-C8=1.3780         C9-C10=1.3980        C9-H35=1.0777        
C10-C9=1.3980        C10-C11=1.4899       C10-C12=1.3895       C11-C10=1.4899       C11-H36=1.0869       C11-H37=1.0894       
C11-H38=1.0896       C12-C10=1.3895       C12-C13=1.4180       C12-S24=1.7428       C13-C12=1.4180       C13-C14=1.3814       
C13-S23=1.7432       C14-C13=1.3814       C14-C15=1.3925       C14-H39=1.0764       C15-C14=1.3925       C15-C16=1.3805       
C15-H40=1.0723       C16-C15=1.3805       C16-C17=1.4266       C16-S23=1.7378       C17-C16=1.4266       C17-C18=1.3820       
C17-S22=1.7482       C18-C17=1.3820       C18-C19=1.4916       C18-C20=1.4125       C19-C18=1.4916       C19-H41=1.0887       
C19-H42=1.0901       C19-H43=1.0867       C20-C18=1.4125       C20-C21=1.3587       C20-H44=1.0753       C21-C20=1.3587       
C21-S22=1.7115       C21-H45=1.0720       S22-C17=1.7482       S22-C21=1.7115       S23-C13=1.7432       S23-C16=1.7378       
S24-C8=1.7429        S24-C12=1.7428       S25-C4=1.7651        S25-C7=1.7517        H26-N1=1.0241        H27-N1=1.0259        
H28-N1=1.0600        H29-C2=1.0901        H30-C2=1.0906        H31-C3=1.0920        H32-C3=1.0898        H33-C5=1.0753        
H34-C6=1.0743        H35-C9=1.0777        H36-C11=1.0869       H37-C11=1.0894       H38-C11=1.0896       H39-C14=1.0764       
H40-C15=1.0723       H41-C19=1.0887       H42-C19=1.0901       H43-C19=1.0867       H44-C20=1.0753       H45-C21=1.0720       
 C  H  Rav=1.0834 sigma=0.0074  Rmin=1.0720  Rmax=1.0920    17
 C  C  Rav=1.4145 sigma=0.0491  Rmin=1.3587  Rmax=1.5326    19
 N  H  Rav=1.0366 sigma=0.0165  Rmin=1.0241  Rmax=1.0600     3
 N  C  Rav=1.4895 sigma=0.0000  Rmin=1.4895  Rmax=1.4895     1
 S  C  Rav=1.7429 sigma=0.0142  Rmin=1.7115  Rmax=1.7651     8

 selected bond angles (degree)
 --------------------
H26-N1-C2=112.48               H27-N1-C2=110.48               H27-N1-H26=109.23              H28-N1-C2=106.86               
H28-N1-H26=110.70              H28-N1-H27=106.93              C3-C2-N1=108.90                H29-C2-N1=109.66               
H29-C2-C3=111.09               H30-C2-N1=108.37               H30-C2-C3=109.63               H30-C2-H29=109.15              
C4-C3-C2=110.89                H31-C3-C2=109.72               H31-C3-C4=110.65               H32-C3-C2=108.55               
H32-C3-C4=109.03               H32-C3-H31=107.92              C5-C4-C3=129.25                S25-C4-C3=120.27               
S25-C4-C5=110.38               C6-C5-C4=113.86                H33-C5-C4=123.08               H33-C5-C6=123.06               
C7-C6-C5=114.18                H34-C6-C5=124.00               H34-C6-C7=121.82               C8-C7-C6=129.59                
S25-C7-C6=110.11               S25-C7-C8=120.29               C9-C8-C7=128.83                S24-C8-C7=120.52               
S24-C8-C9=110.64               C10-C9-C8=114.39               H35-C9-C8=122.48               H35-C9-C10=123.13              
C11-C10-C9=123.18              C12-C10-C9=112.27              C12-C10-C11=124.56             

 selected dihedral angles (degree)
 ---------------------------------
C3-C2-N1-H26=194.69           C3-C2-N1-H27= 72.34           C3-C2-N1-H28=316.36           H29-C2-N1-H26= 72.94          
H29-C2-N1-H27=310.59          H29-C2-N1-H28=194.61          H30-C2-N1-H26=313.88          H30-C2-N1-H27=191.53          
H30-C2-N1-H28= 75.55          C4-C3-C2-N1= 61.87            C4-C3-C2-H29=182.74           C4-C3-C2-H30=303.46           
H31-C3-C2-N1=299.33           H31-C3-C2-H29= 60.20          H31-C3-C2-H30=180.92          H32-C3-C2-N1=181.62           
H32-C3-C2-H29=302.49          H32-C3-C2-H30= 63.21          C5-C4-C3-C2= 99.72            C5-C4-C3-H31=221.72           
C5-C4-C3-H32=340.26           S25-C4-C3-C2=283.79           S25-C4-C3-H31= 45.79          S25-C4-C3-H32=164.33          
C6-C5-C4-C3=184.25            C6-C5-C4-S25=  0.50           H33-C5-C4-C3=  4.61           H33-C5-C4-S25=180.86          
C7-C6-C5-C4=  0.70            C7-C6-C5-H33=180.34           H34-C6-C5-C4=180.82           H34-C6-C5-H33=  0.45          
C8-C7-C6-C5=179.48            C8-C7-C6-H34=359.37           S25-C7-C6-C5=358.45           S25-C7-C6-H34=178.33          
C9-C8-C7-C6=179.67            C9-C8-C7-S25=  0.80           S24-C8-C7-C6=359.66           S24-C8-C7-S25=180.79          
C10-C9-C8-C7=179.99           C10-C9-C8-S24=  0.00          H35-C9-C8-C7=359.63           H35-C9-C8-S24=179.63          
C11-C10-C9-C8=179.84          C11-C10-C9-H35=  0.20         C12-C10-C9-C8=359.94          C12-C10-C9-H35=180.30         
           -------------------------------------------------
          |                Final Singlepoint                |
           -------------------------------------------------

          ...................................................
          :                      SETUP                      :
          :.................................................:
          :  # basis functions                 144          :
          :  # atomic orbitals                 140          :
          :  # shells                           74          :
          :  # electrons                       128          :
          :  max. iterations                   250          :
          :  Hamiltonian                  GFN2-xTB          :
          :  restarted?                      false          :
          :  GBSA solvation                  false          :
          :  PC potential                    false          :
          :  electronic temp.          300.0000000     K    :
          :  accuracy                    1.0000000          :
          :  -> integral cutoff          0.2500000E+02      :
          :  -> integral neglect         0.1000000E-07      :
          :  -> SCF convergence          0.1000000E-05 Eh   :
          :  -> wf. convergence          0.1000000E-03 e    :
          :  Broyden damping             0.4000000          :
          ...................................................

 iter      E             dE          RMSdq      gap      omega  full diag
   1    -69.5261532 -0.695262E+02  0.638E-05    1.32       0.0  T
   2    -69.5261532 -0.628120E-11  0.496E-05    1.32     300.7  T
   3    -69.5261532 -0.669331E-10  0.278E-05    1.32     536.1  T

   *** convergence criteria satisfied after 3 iterations ***

         #    Occupation            Energy/Eh            Energy/eV
      -------------------------------------------------------------
         1        2.0000           -0.8682127             -23.6253
       ...           ...                  ...                  ...
        58        2.0000           -0.4995597             -13.5937
        59        2.0000           -0.4893001             -13.3145
        60        2.0000           -0.4748047             -12.9201
        61        2.0000           -0.4660618             -12.6822
        62        2.0000           -0.4561365             -12.4121
        63        2.0000           -0.4495071             -12.2317
        64        2.0000           -0.4238869             -11.5345 (HOMO)
        65                         -0.3755137             -10.2182 (LUMO)
        66                         -0.3385583              -9.2126
        67                         -0.3325533              -9.0492
        68                         -0.3102406              -8.4421
        69                         -0.2913772              -7.9288
       ...                                ...                  ...
       140                          0.6345866              17.2680
      -------------------------------------------------------------
                  HL-Gap            0.0483731 Eh            1.3163 eV
             Fermi-level           -0.3997003 Eh          -10.8764 eV

 SCC (total)                   0 d,  0 h,  0 min,  0.132 sec
 SCC setup                      ...        0 min,  0.004 sec (  2.986%)
 Dispersion                     ...        0 min,  0.001 sec (  0.886%)
 classical contributions        ...        0 min,  0.000 sec (  0.219%)
 integral evaluation            ...        0 min,  0.013 sec (  9.517%)
 iterations                     ...        0 min,  0.077 sec ( 58.354%)
 molecular gradient             ...        0 min,  0.035 sec ( 26.412%)
 printout                       ...        0 min,  0.002 sec (  1.454%)

         :::::::::::::::::::::::::::::::::::::::::::::::::::::
         ::                     SUMMARY                     ::
         :::::::::::::::::::::::::::::::::::::::::::::::::::::
         :: total energy             -68.502270276292 Eh    ::
         :: gradient norm              0.000823784630 Eh/a0 ::
         :: HOMO-LUMO gap              1.316300386917 eV    ::
         ::.................................................::
         :: SCC energy               -69.526153192906 Eh    ::
         :: -> isotropic ES            0.097333662702 Eh    ::
         :: -> anisotropic ES         -0.018302023199 Eh    ::
         :: -> anisotropic XC          0.034014749528 Eh    ::
         :: -> dispersion             -0.055979234787 Eh    ::
         :: repulsion energy           1.024527245771 Eh    ::
         :: add. restraining           0.000000000000 Eh    ::
         :: total charge               1.000000000000 e     ::
         :::::::::::::::::::::::::::::::::::::::::::::::::::::

           -------------------------------------------------
          |                Property Printout                |
           -------------------------------------------------

    * Orbital Energies and Occupations

         #    Occupation            Energy/Eh            Energy/eV
      -------------------------------------------------------------
         1        2.0000           -0.8682127             -23.6253
       ...           ...                  ...                  ...
        52        2.0000           -0.5235862             -14.2475
        53        2.0000           -0.5178325             -14.0909
        54        2.0000           -0.5150668             -14.0157
        55        2.0000           -0.5139086             -13.9842
        56        2.0000           -0.5120895             -13.9347
        57        2.0000           -0.5045866             -13.7305
        58        2.0000           -0.4995597             -13.5937
        59        2.0000           -0.4893001             -13.3145
        60        2.0000           -0.4748047             -12.9201
        61        2.0000           -0.4660618             -12.6822
        62        2.0000           -0.4561365             -12.4121
        63        2.0000           -0.4495071             -12.2317
        64        2.0000           -0.4238869             -11.5345 (HOMO)
        65                         -0.3755137             -10.2182 (LUMO)
        66                         -0.3385583              -9.2126
        67                         -0.3325533              -9.0492
        68                         -0.3102406              -8.4421
        69                         -0.2913772              -7.9288
        70                         -0.2846939              -7.7469
        71                         -0.2793582              -7.6017
        72                         -0.2652101              -7.2167
        73                         -0.2527193              -6.8768
        74                         -0.2466196              -6.7109
        75                         -0.2436783              -6.6308
       ...                                ...                  ...
       140                          0.6345866              17.2680
      -------------------------------------------------------------
                  HL-Gap            0.0483731 Eh            1.3163 eV
             Fermi-level           -0.3997003 Eh          -10.8764 eV

     #   Z          covCN         q      C6AA      α(0)
     1   7 N        3.482    -0.150    24.225     7.310
     2   6 C        3.733    -0.030    21.199     6.572
     3   6 C        3.821    -0.085    22.112     6.692
     4   6 C        2.983    -0.010    28.258     8.720
     5   6 C        3.088    -0.042    28.947     8.819
     6   6 C        3.104    -0.054    29.202     8.855
     7   6 C        3.018     0.034    27.208     8.556
     8   6 C        3.017     0.006    27.863     8.659
     9   6 C        3.101    -0.052    29.159     8.849
    10   6 C        3.120     0.001    27.818     8.638
    11   6 C        3.756    -0.112    22.693     6.792
    12   6 C        3.017     0.022    27.501     8.602
    13   6 C        3.032     0.015    27.651     8.625
    14   6 C        3.105    -0.044    28.954     8.817
    15   6 C        3.097    -0.052    29.165     8.851
    16   6 C        3.028     0.029    27.322     8.574
    17   6 C        3.034     0.004    27.891     8.662
    18   6 C        3.132     0.005    27.698     8.616
    19   6 C        3.755    -0.107    22.596     6.778
    20   6 C        3.122    -0.049    29.022     8.822
    21   6 C        2.931    -0.014    28.371     8.735
    22  16 S        2.375    -0.019   141.828    20.044
    23  16 S        2.403    -0.020   141.862    20.046
    24  16 S        2.345    -0.038   142.635    20.101
    25  16 S        2.362    -0.118   145.982    20.335
    26   1 H        0.859     0.261     0.843     1.438
    27   1 H        0.859     0.265     0.827     1.425
    28   1 H        0.884     0.285     0.758     1.362
    29   1 H        0.925     0.101     1.772     2.082
    30   1 H        0.924     0.105     1.743     2.064
    31   1 H        0.924     0.075     2.030     2.228
    32   1 H        0.925     0.096     1.825     2.113
    33   1 H        0.926     0.053     2.282     2.362
    34   1 H        0.926     0.058     2.219     2.330
    35   1 H        0.926     0.037     2.487     2.466
    36   1 H        0.925     0.053     2.279     2.361
    37   1 H        0.925     0.064     2.156     2.296
    38   1 H        0.925     0.062     2.172     2.305
    39   1 H        0.926     0.046     2.368     2.406
    40   1 H        0.926     0.052     2.291     2.367
    41   1 H        0.925     0.051     2.305     2.374
    42   1 H        0.925     0.053     2.283     2.363
    43   1 H        0.925     0.056     2.242     2.341
    44   1 H        0.926     0.049     2.338     2.391
    45   1 H        0.926     0.055     2.255     2.348

 Mol. C6AA /au·bohr⁶  :      33913.587118
 Mol. C8AA /au·bohr⁸  :    1023637.199614
 Mol. α(0) /au        :        297.494559


Wiberg/Mayer (AO) data.
largest (>0.10) Wiberg bond orders for each atom

 ---------------------------------------------------------------------------
     #   Z sym  total        # sym  WBO       # sym  WBO       # sym  WBO
 ---------------------------------------------------------------------------
     1   7 N    3.658 --     2 C    0.940    26 H    0.917    27 H    0.914
                            28 H    0.825
     2   6 C    3.901 --     3 C    0.991    30 H    0.968    29 H    0.968
                             1 N    0.940
     3   6 C    3.982 --     4 C    1.022     2 C    0.991    31 H    0.964
                            32 H    0.957
     4   6 C    3.886 --     5 C    1.592    25 S    1.085     3 C    1.022
     5   6 C    3.986 --     4 C    1.592     6 C    1.293    33 H    0.960
     6   6 C    3.957 --     7 C    1.502     5 C    1.293    34 H    0.957
     7   6 C    3.937 --     6 C    1.502     8 C    1.195    25 S    1.067
     8   6 C    3.924 --     9 C    1.444     7 C    1.195    24 S    1.103
     9   6 C    3.981 --     8 C    1.444    10 C    1.345    35 H    0.960
    10   6 C    3.967 --    12 C    1.403     9 C    1.345    11 C    1.030
    11   6 C    3.993 --    10 C    1.030    36 H    0.981    37 H    0.963
                            38 H    0.962
    12   6 C    3.934 --    10 C    1.403    13 C    1.204    24 S    1.126
    13   6 C    3.934 --    14 C    1.436    12 C    1.204    23 S    1.116
    14   6 C    3.968 --    13 C    1.436    15 C    1.372    39 H    0.959
    15   6 C    3.977 --    16 C    1.443    14 C    1.372    40 H    0.959
    16   6 C    3.929 --    15 C    1.443    17 C    1.173    23 S    1.146
    17   6 C    3.942 --    18 C    1.456    16 C    1.173    22 S    1.121
    18   6 C    3.964 --    17 C    1.456    20 C    1.281    19 C    1.028
    19   6 C    3.995 --    18 C    1.028    43 H    0.982    41 H    0.972
                            42 H    0.964
    20   6 C    3.984 --    21 C    1.598    18 C    1.281    44 H    0.963
    21   6 C    3.925 --    20 C    1.598    22 S    1.206    45 H    0.969
    22  16 S    2.617 --    21 C    1.206    17 C    1.121
    23  16 S    2.608 --    16 C    1.146    13 C    1.116
    24  16 S    2.562 --    12 C    1.126     8 C    1.103
    25  16 S    2.537 --     4 C    1.085     7 C    1.067
    26   1 H    0.932 --     1 N    0.917
    27   1 H    0.930 --     1 N    0.914
    28   1 H    0.918 --     1 N    0.825
    29   1 H    0.988 --     2 C    0.968
    30   1 H    0.989 --     2 C    0.968
    31   1 H    0.993 --     3 C    0.964
    32   1 H    0.990 --     3 C    0.957
    33   1 H    0.997 --     5 C    0.960
    34   1 H    0.996 --     6 C    0.957
    35   1 H    0.998 --     9 C    0.960
    36   1 H    0.996 --    11 C    0.981
    37   1 H    0.994 --    11 C    0.963
    38   1 H    0.994 --    11 C    0.962
    39   1 H    0.997 --    14 C    0.959
    40   1 H    0.997 --    15 C    0.959
    41   1 H    0.996 --    19 C    0.972
    42   1 H    0.995 --    19 C    0.964
    43   1 H    0.996 --    19 C    0.982
    44   1 H    0.997 --    20 C    0.963
    45   1 H    0.996 --    21 C    0.969
 ---------------------------------------------------------------------------

Topologies differ in total number of bonds
Writing topology from bond orders to xtbtopo.mol

molecular dipole:
                 x           y           z       tot (Debye)
 q only:        9.377      -1.553      -0.850
   full:        9.901      -1.348      -1.305      25.614
molecular quadrupole (traceless):
                xx          xy          yy          xz          yz          zz
 q only:      138.795     -32.020     -81.796     -67.627       0.094     -56.999
  q+dip:      155.432     -26.575     -96.552     -88.450      -2.487     -58.880
   full:      155.516     -25.434     -95.622     -87.153      -0.355     -59.895

           -------------------------------------------------
          |                Geometry Summary                 |
           -------------------------------------------------

      molecular mass/u    :      402.6393858
   center of mass at/Å    :       10.1369834      -0.6744007      -3.0063273
  moments of inertia/u·Å² :        0.7410867E+03   0.9766540E+04   0.1035080E+05
rotational constants/cm⁻¹ :        0.2274718E-01   0.1726060E-02   0.1628631E-02

 * 46 selected distances

     #   Z          #   Z                                           value/Å
     1   7 N        2   6 C                                       1.4895186
     2   6 C        3   6 C                                       1.5325691
     4   6 C        5   6 C                                       1.3592903
     5   6 C        6   6 C                                       1.4064909
     6   6 C        7   6 C                                       1.3714778
     7   6 C        8   6 C                                       1.4149694
     8   6 C        9   6 C                                       1.3779828
     9   6 C       10   6 C                                       1.3979787
    10   6 C       11   6 C                                       1.4899345
    10   6 C       12   6 C                                       1.3894692
    12   6 C       13   6 C                                       1.4180348
    13   6 C       14   6 C                                       1.3813581
    14   6 C       15   6 C                                       1.3924698
    15   6 C       16   6 C                                       1.3805003
    16   6 C       17   6 C                                       1.4266163
    17   6 C       18   6 C                                       1.3820467
    18   6 C       19   6 C                                       1.4915570
    18   6 C       20   6 C                                       1.4124927
    20   6 C       21   6 C                                       1.3586839
    17   6 C       22  16 S                                       1.7481651
    21   6 C       22  16 S                                       1.7114694
    13   6 C       23  16 S                                       1.7431714
    16   6 C       23  16 S                                       1.7378128
     8   6 C       24  16 S                                       1.7428968
    12   6 C       24  16 S                                       1.7427537
     7   6 C       25  16 S                                       1.7516982 (max)
     1   7 N       26   1 H                                       1.0240596 (min)
     1   7 N       27   1 H                                       1.0258769
     1   7 N       28   1 H                                       1.0599889
     2   6 C       29   1 H                                       1.0900704
     2   6 C       30   1 H                                       1.0906478
     3   6 C       31   1 H                                       1.0919931
     3   6 C       32   1 H                                       1.0898455
     5   6 C       33   1 H                                       1.0752734
     6   6 C       34   1 H                                       1.0742533
     9   6 C       35   1 H                                       1.0777291
    11   6 C       36   1 H                                       1.0869151
    11   6 C       37   1 H                                       1.0893819
    11   6 C       38   1 H                                       1.0895959
    14   6 C       39   1 H                                       1.0764213
    15   6 C       40   1 H                                       1.0723092
    19   6 C       41   1 H                                       1.0886709
    19   6 C       42   1 H                                       1.0900948
    19   6 C       43   1 H                                       1.0867391
    20   6 C       44   1 H                                       1.0753309
    21   6 C       45   1 H                                       1.0720370

 * 5 distinct bonds (by element types)

   Z      Z             #   av. dist./Å        max./Å        min./Å
   1 H    6 C          17     1.0833711     1.0919931     1.0720370
   6 C    6 C          18     1.4102179     1.5325691     1.3586839
   1 H    7 N           3     1.0366418     1.0599889     1.0240596
   6 C    7 N           1     1.4895186     1.4895186     1.4895186
   6 C   16 S           7     1.7397096     1.7516982     1.7114694


optimized geometry written to: xtbopt.xyz


           -------------------------------------------------
          | TOTAL ENERGY              -68.502270276292 Eh   |
          | GRADIENT NORM               0.000823784630 Eh/α |
          | HOMO-LUMO GAP               1.316300386917 eV   |
           -------------------------------------------------

------------------------------------------------------------------------
 * finished run on 2023/01/23 at 19:29:02.637     
------------------------------------------------------------------------
 total:
 * wall-time:     0 d,  0 h,  0 min, 10.080 sec
 *  cpu-time:     0 d,  0 h, 21 min, 22.592 sec
 * ratio c/w:   127.240 speedup
 SCF:
 * wall-time:     0 d,  0 h,  0 min,  0.256 sec
 *  cpu-time:     0 d,  0 h,  0 min, 32.528 sec
 * ratio c/w:   127.068 speedup
 ANC optimizer:
 * wall-time:     0 d,  0 h,  0 min,  9.782 sec
 *  cpu-time:     0 d,  0 h, 20 min, 44.759 sec
 * ratio c/w:   127.246 speedup

