45
 energy: -68.605263846682 gnorm: 0.000377510015 xtb: 6.5.1 (fef0646)
N            3.48002430333834       -0.10765489927993        1.35728692215682
C            2.83593309914898        0.54210814494078        0.19518655886376
C            3.72834426181351        1.65067481740093       -0.36910354208414
C            4.92392156340019        1.11727979221812       -1.08454675423201
C            5.20155865797181        1.16108974800768       -2.41709984642481
C            6.42107788597269        0.54692320777491       -2.76017683009887
C            7.09348984611941        0.02149346612614       -1.68739983000873
C            8.33328812486259       -0.67607381372233       -1.65234414334228
C            8.99025372823734       -1.19370080834850       -0.56422113764483
C           10.20097808895272       -1.83587019592273       -0.87305603637304
C           11.07137986396977       -2.46712058432916        0.15771597942205
C           10.47859197404423       -1.81059051081475       -2.22724806624231
C           11.57771432243430       -2.34695331817094       -2.95257050189321
C           11.79651380645691       -2.26258348605746       -4.30995926383868
C           12.96051415632916       -2.90688175953966       -4.73779381004526
C           13.66469695449435       -3.50301189288704       -3.71703773316766
C           14.87302225737712       -4.26526242662451       -3.74582194779284
C           15.80532662174085       -4.42845541140967       -4.74875914546262
C           15.76451378178260       -3.78372642623502       -6.09435499604182
C           16.85847870018733       -5.28774055711866       -4.35562348518030
C           16.73648100596242       -5.76311656900731       -3.09080883675811
S           15.32000247819546       -5.17543067903302       -2.32153554129932
S           12.86118527447222       -3.25002369833757       -2.19363777570707
S            9.22720910103995       -0.97925836660087       -3.11960642773630
S            6.21011101076127        0.30547606539912       -0.22676071980756
H            2.90992507872836       -0.88513918944630        1.70638852203331
H            3.62075311082381        0.57102606377273        2.11394878765410
H            4.40670440969841       -0.46605604533586        1.08324747315087
H            1.88562047425493        0.97433097635918        0.50534274462463
H            2.64956736261842       -0.20326817829074       -0.57720996656817
H            4.04930531753300        2.31108252774665        0.43738793467773
H            3.15023124725713        2.24267753218660       -1.07744707856581
H            4.55721394209356        1.62173144616450       -3.14392824214045
H            6.81017785113799        0.48354606298669       -3.76142018294497
H            8.61251112344505       -1.11362240792545        0.44031569393018
H           10.64425372634035       -2.32539578603978        1.14583635089863
H           12.06984525426051       -2.03123747367735        0.13711701945391
H           11.17966016393656       -3.53462197493490       -0.03251523592036
H           11.12485453457187       -1.74938157695519       -4.97674861985044
H           13.25608777940450       -2.94778003430800       -5.76789434310105
H           15.56292798892683       -2.71774558145152       -6.00554089903829
H           14.98719791210109       -4.23280637181467       -6.71226225527950
H           16.71919214428086       -3.92016899219391       -6.59511049332502
H           17.68020829830001       -5.53741007806821       -5.00288325803077
H           17.38835141120611       -6.42345075721288       -2.55595704092611
