 Entering Gaussian System
 *********************************************
 Gaussian 98:
 frequency output generated by the xtb code
 *********************************************
                         Standard orientation:
 --------------------------------------------------------------------
  Center     Atomic     Atomic              Coordinates (Angstroms)
  Number     Number      Type              X           Y           Z
 --------------------------------------------------------------------
    1          7             0       -3.525276    0.112331    1.206002
    2          6             0       -2.804777    0.571065   -0.027711
    3          6             0       -3.539994    0.146696   -1.293718
    4          6             0       -1.369430    0.100927   -0.024135
    5          6             0       -1.067357   -1.259745   -0.024604
    6          6             0        0.238721   -1.704001   -0.015938
    7          6             0       -0.330695    1.020242   -0.015011
    8          6             0        1.013533    0.607115   -0.006255
    9          6             0        1.306806   -0.790837   -0.006323
   10          6             0        2.651214   -1.204424    0.004183
   11          6             0        3.671109   -0.275859    0.014308
   12          6             0        3.386886    1.082302    0.014096
   13          6             0        2.080148    1.524259    0.003920
   14          1             0       -3.602271   -0.910189    1.218214
   15          1             0       -4.474163    0.500486    1.248075
   16          1             0       -3.019051    0.400319    2.050430
   17          1             0       -2.787421    1.672975    0.003217
   18          1             0       -4.555592    0.540692   -1.315425
   19          1             0       -3.608540   -0.938074   -1.355426
   20          1             0       -3.022595    0.495302   -2.187631
   21          1             0       -1.870381   -1.975560   -0.033150
   22          1             0        0.450676   -2.759123   -0.015967
   23          1             0       -0.551919    2.072243   -0.013392
   24          1             0        2.877168   -2.256755    0.004574
   25          1             0        4.696637   -0.607315    0.022655
   26          1             0        4.193520    1.796988    0.022052
   27          1             0        1.865714    2.578950    0.003729
 --------------------------------------------------------------------
     1 basis functions        1 primitive gaussians
     1 alpha electrons        1 beta electrons

 Harmonic frequencies (cm**-1), IR intensities (km*mol⁻¹),
 Raman scattering activities (A**4/amu), Raman depolarization ratios,
 reduced masses (AMU), force constants (mDyne/A) and normal coordinates:
                      1                      2                      3
                        a                      a                      a 
 Frequencies --  -113.8936                41.5171                77.0551
 Red. masses --     1.2627                 9.4967                10.0664
 Frc consts  --     0.0000                 0.0000                 0.0000
 IR Inten    --     1.4973                12.6580                 9.2485
 Raman Activ --     0.0000                 0.0000                 0.0000
 Depolar     --     0.0000                 0.0000                 0.0000
 Atom AN      X      Y      Z        X      Y      Z        X      Y      Z
   1   7    -0.02   0.02   0.01     0.16   0.46   0.16     0.29  -0.20   0.17
   2   6     0.01  -0.02  -0.01     0.00  -0.03  -0.13    -0.01   0.01   0.07
   3   6    -0.02   0.05  -0.00    -0.19  -0.40   0.11    -0.24   0.14   0.16
   4   6    -0.00  -0.05  -0.02    -0.00  -0.03  -0.12    -0.00   0.03  -0.20
   5   6     0.02  -0.05   0.00     0.01  -0.03  -0.22    -0.01   0.03  -0.24
   6   6     0.03  -0.02   0.02     0.02  -0.02  -0.21    -0.02   0.02  -0.16
   7   6    -0.01  -0.04  -0.03    -0.01  -0.03   0.01     0.00   0.02  -0.26
   8   6    -0.01  -0.01  -0.02    -0.01  -0.01   0.05    -0.00   0.01  -0.20
   9   6     0.02  -0.01   0.01     0.01  -0.01  -0.09    -0.01   0.01  -0.03
  10   6     0.02   0.02   0.04     0.01   0.01  -0.09    -0.02  -0.01   0.31
  11   6     0.01   0.04   0.03     0.00   0.02   0.03    -0.01  -0.02   0.39
  12   6    -0.02   0.03  -0.01    -0.01   0.01   0.22     0.00  -0.01   0.05
  13   6    -0.02   0.01  -0.03    -0.02   0.00   0.22     0.01  -0.00  -0.21
  14   1    -0.52   0.04  -0.26    -0.00   0.13   0.14     0.14  -0.06   0.03
  15   1     0.19   0.46   0.28     0.06   0.17   0.06     0.06  -0.11   0.10
  16   1     0.29  -0.47  -0.01     0.11   0.18  -0.01     0.10  -0.04   0.03
  17   1     0.03  -0.01   0.01     0.01  -0.00  -0.14    -0.01   0.00   0.06
  18   1    -0.01   0.00   0.01    -0.05  -0.10   0.03    -0.07   0.05   0.11
  19   1     0.00   0.01  -0.02    -0.08  -0.12   0.13    -0.08   0.04   0.02
  20   1    -0.02   0.03  -0.00    -0.08  -0.20  -0.02    -0.11   0.06   0.03
  21   1     0.01  -0.02   0.01     0.01  -0.01  -0.09    -0.01   0.01  -0.09
  22   1     0.01  -0.01   0.01     0.01  -0.00  -0.09    -0.01   0.00  -0.04
  23   1    -0.01  -0.01  -0.02    -0.00  -0.01   0.03     0.00   0.01  -0.08
  24   1     0.01   0.01   0.02     0.01   0.00  -0.06    -0.01  -0.00   0.15
  25   1     0.00   0.02   0.02     0.00   0.01   0.01    -0.01  -0.01   0.20
  26   1    -0.01   0.01  -0.01    -0.01   0.01   0.10     0.00  -0.01   0.01
  27   1    -0.01   0.00  -0.02    -0.01  -0.00   0.10     0.01   0.00  -0.12
                      4                      5                      6
                        a                      a                      a 
 Frequencies --   150.0287               166.8323               186.4886
 Red. masses --     9.3529                 9.4681                 9.9360
 Frc consts  --     0.0000                 0.0000                 0.0000
 IR Inten    --     6.3279                 5.8927                 6.6082
 Raman Activ --     0.0000                 0.0000                 0.0000
 Depolar     --     0.0000                 0.0000                 0.0000
 Atom AN      X      Y      Z        X      Y      Z        X      Y      Z
   1   7     0.21  -0.21  -0.01    -0.11   0.20   0.03    -0.31   0.03   0.07
   2   6    -0.04   0.01  -0.07     0.07   0.00   0.06    -0.02  -0.01   0.20
   3   6    -0.06  -0.12  -0.01    -0.06   0.33   0.03     0.31  -0.23   0.08
   4   6     0.00   0.15  -0.13    -0.00  -0.23  -0.00     0.00   0.08   0.23
   5   6    -0.05   0.14   0.31     0.06  -0.22   0.22    -0.01   0.08   0.06
   6   6    -0.08   0.09   0.22     0.10  -0.15   0.06    -0.02   0.06  -0.26
   7   6     0.02   0.13  -0.32    -0.02  -0.21  -0.26     0.01   0.08  -0.04
   8   6     0.01   0.07  -0.13    -0.02  -0.13  -0.21     0.01   0.05  -0.26
   9   6    -0.05   0.06  -0.10     0.08  -0.10  -0.17    -0.02   0.04  -0.31
  10   6    -0.08  -0.03  -0.26     0.13   0.05  -0.16    -0.04  -0.02  -0.08
  11   6    -0.03  -0.10  -0.09     0.03   0.16   0.07    -0.00  -0.06   0.29
  12   6     0.04  -0.08   0.32    -0.09   0.13   0.25     0.04  -0.05   0.14
  13   6     0.07   0.00   0.19    -0.13  -0.01   0.01     0.06   0.00  -0.21
  14   1     0.07  -0.06  -0.06    -0.01   0.05   0.07    -0.13   0.01   0.01
  15   1     0.06  -0.07   0.08    -0.04   0.04  -0.08    -0.07   0.05  -0.04
  16   1     0.11  -0.10  -0.02    -0.09   0.12   0.02    -0.12  -0.02   0.05
  17   1    -0.06   0.00  -0.01     0.09   0.00   0.03    -0.04  -0.00   0.04
  18   1    -0.06  -0.14   0.04     0.03   0.22   0.00     0.06  -0.15  -0.04
  19   1     0.09  -0.04  -0.03    -0.15   0.10   0.00     0.18  -0.07   0.03
  20   1    -0.08   0.04  -0.01     0.03   0.04   0.02     0.11  -0.03   0.05
  21   1    -0.02   0.05   0.19     0.03  -0.07   0.14    -0.01   0.03   0.07
  22   1    -0.03   0.02   0.13     0.04  -0.04   0.05    -0.01   0.02  -0.11
  23   1     0.01   0.04  -0.16    -0.02  -0.06  -0.12     0.01   0.02   0.00
  24   1    -0.04  -0.01  -0.13     0.07   0.02  -0.07    -0.03  -0.01  -0.02
  25   1    -0.01  -0.04  -0.05     0.02   0.07   0.05    -0.01  -0.03   0.19
  26   1     0.02  -0.04   0.19    -0.05   0.06   0.16     0.02  -0.02   0.10
  27   1     0.04   0.00   0.11    -0.07  -0.01   0.02     0.03   0.00  -0.09
                      7                      8                      9
                        a                      a                      a 
 Frequencies --   230.4220               255.6966               327.4634
 Red. masses --     2.2673                 9.2708                 9.4826
 Frc consts  --     0.0000                 0.0000                 0.0000
 IR Inten    --     3.0877                 9.3411                 3.4468
 Raman Activ --     0.0000                 0.0000                 0.0000
 Depolar     --     0.0000                 0.0000                 0.0000
 Atom AN      X      Y      Z        X      Y      Z        X      Y      Z
   1   7    -0.06  -0.16  -0.05    -0.43  -0.02  -0.16     0.18  -0.01  -0.13
   2   6    -0.03  -0.03   0.02    -0.12  -0.05  -0.01    -0.00   0.00  -0.20
   3   6    -0.08  -0.06   0.05    -0.47  -0.02   0.18    -0.22   0.02  -0.10
   4   6     0.01   0.07   0.01    -0.02   0.03  -0.04    -0.00  -0.00   0.07
   5   6     0.01   0.08   0.02     0.11   0.05  -0.02    -0.00  -0.00   0.14
   6   6    -0.00   0.07   0.01     0.13   0.09   0.02     0.00  -0.00   0.14
   7   6     0.02   0.08  -0.02     0.05   0.02  -0.04     0.00  -0.01   0.50
   8   6     0.03   0.08  -0.02     0.11   0.05   0.01     0.01  -0.01   0.03
   9   6    -0.00   0.07  -0.01     0.15   0.05   0.03     0.01  -0.01  -0.18
  10   6    -0.03  -0.00  -0.03     0.14  -0.01   0.02     0.01   0.00  -0.31
  11   6     0.02  -0.06  -0.01     0.20  -0.07  -0.02     0.01   0.00   0.29
  12   6     0.07  -0.05   0.03     0.20  -0.07   0.00     0.00   0.00   0.05
  13   6     0.09   0.01   0.00     0.20  -0.03   0.03     0.01  -0.00  -0.32
  14   1    -0.04  -0.04  -0.07    -0.14  -0.00  -0.05     0.08  -0.00  -0.04
  15   1    -0.01  -0.03  -0.00    -0.11   0.01  -0.14     0.04  -0.03   0.02
  16   1    -0.02  -0.09   0.00    -0.20  -0.02   0.01     0.09  -0.00  -0.06
  17   1    -0.02  -0.01   0.01    -0.03  -0.01   0.00     0.00   0.00  -0.07
  18   1     0.15   0.41  -0.22    -0.17  -0.08   0.21    -0.06   0.02   0.04
  19   1    -0.49  -0.01   0.30    -0.06  -0.01   0.01    -0.08   0.01  -0.03
  20   1     0.24  -0.48  -0.01    -0.28   0.08  -0.00    -0.11   0.01  -0.06
  21   1     0.00   0.02   0.00     0.05  -0.00  -0.00     0.00  -0.00   0.04
  22   1     0.00   0.02   0.01     0.03   0.02   0.01    -0.00  -0.00   0.09
  23   1     0.00   0.02  -0.01     0.02   0.01  -0.02     0.00  -0.00   0.26
  24   1    -0.03  -0.01  -0.01     0.02  -0.01   0.01     0.01   0.00  -0.16
  25   1     0.00  -0.03  -0.00     0.05  -0.03  -0.02     0.00   0.00   0.20
  26   1     0.03  -0.03   0.02     0.06  -0.02  -0.00     0.00   0.00   0.04
  27   1     0.05   0.01   0.00     0.08  -0.00   0.01     0.00  -0.00  -0.19
                     10                     11                     12
                        a                      a                      a 
 Frequencies --   367.8571               386.3397               412.4324
 Red. masses --     9.5996                 9.3757                 9.5588
 Frc consts  --     0.0000                 0.0000                 0.0000
 IR Inten    --     2.0285                 1.9586                 4.8946
 Raman Activ --     0.0000                 0.0000                 0.0000
 Depolar     --     0.0000                 0.0000                 0.0000
 Atom AN      X      Y      Z        X      Y      Z        X      Y      Z
   1   7    -0.01   0.06   0.18    -0.12  -0.01   0.10     0.07   0.00  -0.34
   2   6    -0.02  -0.27  -0.00    -0.00   0.02   0.12     0.40   0.10   0.02
   3   6     0.02   0.10  -0.17     0.13  -0.02   0.09     0.05  -0.04   0.35
   4   6    -0.02  -0.26  -0.02     0.00   0.04  -0.16     0.22  -0.14  -0.01
   5   6     0.08  -0.23  -0.04    -0.01   0.04  -0.47    -0.00  -0.18  -0.02
   6   6     0.16   0.10   0.06    -0.03  -0.01   0.40    -0.01  -0.10   0.01
   7   6    -0.18  -0.01   0.00     0.02   0.01   0.02     0.06   0.01   0.01
   8   6    -0.05   0.34  -0.02     0.01  -0.04  -0.13     0.03   0.13  -0.01
   9   6    -0.08   0.34   0.03     0.01  -0.04   0.26    -0.18   0.09   0.00
  10   6    -0.21   0.04  -0.02     0.03  -0.01  -0.17    -0.26   0.01   0.00
  11   6    -0.03  -0.20  -0.01     0.00   0.02  -0.10    -0.26  -0.02  -0.01
  12   6     0.11  -0.17   0.03    -0.02   0.02   0.29    -0.06   0.02   0.01
  13   6     0.18   0.13  -0.03    -0.02  -0.02  -0.25    -0.00   0.16   0.00
  14   1    -0.04   0.02   0.17    -0.05  -0.00   0.02     0.00   0.00  -0.19
  15   1     0.01   0.05   0.04    -0.03   0.01  -0.02     0.02   0.00  -0.21
  16   1     0.04   0.09  -0.00    -0.06  -0.01   0.05    -0.11  -0.07   0.01
  17   1     0.03  -0.08   0.00    -0.01   0.01   0.05     0.16   0.03   0.01
  18   1     0.02   0.06  -0.04     0.03  -0.03  -0.02     0.00  -0.03   0.21
  19   1    -0.02   0.04  -0.16     0.06  -0.01   0.03     0.02  -0.02   0.17
  20   1     0.05   0.11   0.01     0.06  -0.01   0.04    -0.12  -0.06   0.01
  21   1     0.05  -0.10  -0.02    -0.01   0.02  -0.26    -0.02  -0.03  -0.01
  22   1     0.14   0.05   0.03    -0.02  -0.01   0.23     0.06  -0.01   0.01
  23   1    -0.15  -0.02   0.01     0.02   0.01   0.09    -0.04  -0.01   0.01
  24   1    -0.15  -0.01  -0.02     0.02   0.00  -0.15    -0.09   0.00   0.00
  25   1    -0.02  -0.11  -0.01     0.00   0.01  -0.09    -0.08  -0.03  -0.01
  26   1     0.07  -0.09   0.02    -0.01   0.01   0.18     0.02  -0.03   0.01
  27   1     0.14   0.06  -0.02    -0.02  -0.01  -0.16     0.00   0.04   0.00
                     13                     14                     15
                        a                      a                      a 
 Frequencies --   442.2938               496.8004               507.8893
 Red. masses --     8.3820                11.2867                 9.8045
 Frc consts  --     0.0000                 0.0000                 0.0000
 IR Inten    --     6.6141                 0.4967                 1.6790
 Raman Activ --     0.0000                 0.0000                 0.0000
 Depolar     --     0.0000                 0.0000                 0.0000
 Atom AN      X      Y      Z        X      Y      Z        X      Y      Z
   1   7    -0.02  -0.00   0.02     0.02   0.02  -0.04     0.10   0.01  -0.10
   2   6    -0.00   0.00   0.01     0.06  -0.02  -0.00    -0.01  -0.00  -0.09
   3   6     0.02  -0.00   0.01     0.00   0.02   0.03    -0.10   0.00  -0.08
   4   6    -0.01   0.00  -0.14     0.07   0.11   0.01    -0.01  -0.00   0.42
   5   6    -0.00   0.01  -0.12     0.40   0.18   0.00    -0.01  -0.01   0.09
   6   6    -0.00   0.00   0.24     0.34   0.06   0.00    -0.00   0.00  -0.16
   7   6    -0.00  -0.00   0.23    -0.10   0.22   0.00    -0.01  -0.01   0.15
   8   6     0.00  -0.00  -0.43    -0.20   0.00  -0.01     0.00   0.00  -0.34
   9   6     0.01  -0.00  -0.45     0.19   0.07   0.00    -0.00   0.00   0.14
  10   6     0.00  -0.00   0.23     0.07  -0.25   0.01     0.00   0.01   0.29
  11   6     0.01   0.00  -0.09    -0.07  -0.17  -0.01     0.02   0.00  -0.37
  12   6     0.00   0.00  -0.12    -0.43  -0.24   0.00     0.01   0.00   0.34
  13   6    -0.00  -0.00   0.24    -0.33  -0.02  -0.01     0.01  -0.01  -0.22
  14   1    -0.01   0.00   0.01    -0.01   0.01  -0.00     0.06  -0.00  -0.04
  15   1    -0.00   0.00  -0.00     0.01   0.01  -0.03     0.02  -0.02   0.04
  16   1    -0.01   0.00   0.01    -0.01   0.01  -0.00     0.07  -0.00  -0.05
  17   1    -0.00   0.00   0.01     0.02  -0.01  -0.00    -0.00   0.00  -0.06
  18   1     0.00  -0.00  -0.01     0.00   0.02   0.03    -0.03   0.01   0.03
  19   1     0.01  -0.00   0.01    -0.01   0.01   0.00    -0.05   0.00  -0.04
  20   1     0.01  -0.00   0.01    -0.01   0.01   0.00    -0.07   0.01  -0.04
  21   1    -0.00   0.00   0.04     0.13   0.04   0.00    -0.00  -0.00  -0.07
  22   1    -0.00   0.00   0.29     0.08   0.02  -0.00     0.00   0.00  -0.16
  23   1     0.00  -0.00   0.30     0.00   0.07   0.00    -0.00  -0.00   0.02
  24   1     0.00  -0.00   0.28    -0.03  -0.08   0.00    -0.00   0.00   0.16
  25   1     0.00   0.00   0.04     0.01   0.04  -0.00     0.00  -0.00  -0.21
  26   1    -0.00   0.00   0.02    -0.13  -0.06   0.00    -0.00   0.00   0.26
  27   1    -0.00  -0.00   0.28    -0.06   0.00  -0.00     0.00  -0.00  -0.01
                     16                     17                     18
                        a                      a                      a 
 Frequencies --   530.4026               586.4153               619.3707
 Red. masses --     9.4621                11.1568                 9.8079
 Frc consts  --     0.0000                 0.0000                 0.0000
 IR Inten    --     7.1476                 1.3765                 0.7752
 Raman Activ --     0.0000                 0.0000                 0.0000
 Depolar     --     0.0000                 0.0000                 0.0000
 Atom AN      X      Y      Z        X      Y      Z        X      Y      Z
   1   7     0.10   0.05  -0.15     0.05   0.01  -0.06    -0.05  -0.02   0.08
   2   6    -0.11   0.43   0.04     0.11  -0.07   0.00     0.01   0.00   0.03
   3   6     0.10  -0.00   0.14     0.04   0.01   0.06     0.06   0.01   0.06
   4   6    -0.30  -0.16  -0.01     0.07   0.04   0.01     0.00   0.00  -0.63
   5   6    -0.10  -0.14  -0.02     0.10   0.01  -0.00    -0.00   0.01   0.25
   6   6     0.07   0.21   0.00     0.00  -0.26   0.01     0.00   0.00  -0.27
   7   6    -0.26  -0.23  -0.00    -0.23   0.32  -0.01    -0.01   0.00   0.19
   8   6    -0.14   0.06   0.01    -0.33  -0.04  -0.00    -0.01  -0.00   0.17
   9   6     0.12   0.15   0.01    -0.20   0.00  -0.00    -0.00   0.00  -0.03
  10   6     0.15   0.05  -0.01    -0.05   0.40  -0.01    -0.00   0.01   0.22
  11   6     0.26  -0.08   0.01     0.31   0.04   0.01     0.01   0.00  -0.18
  12   6     0.00  -0.13   0.00     0.16  -0.05  -0.01    -0.00  -0.00   0.22
  13   6    -0.02  -0.08   0.00    -0.01  -0.46   0.01    -0.00  -0.01  -0.21
  14   1     0.15  -0.00  -0.22    -0.02   0.01   0.00    -0.05  -0.00   0.04
  15   1    -0.02  -0.10   0.07     0.02   0.03  -0.06    -0.00   0.02  -0.05
  16   1     0.03  -0.08  -0.01    -0.01   0.01  -0.00    -0.06   0.00   0.05
  17   1     0.01   0.12   0.01     0.04  -0.02  -0.00     0.01  -0.00   0.05
  18   1    -0.01  -0.10  -0.06     0.02   0.02   0.05     0.01  -0.01  -0.04
  19   1     0.13  -0.02   0.19    -0.01   0.01  -0.00     0.04   0.00   0.03
  20   1     0.04  -0.08   0.01    -0.01   0.01   0.01     0.05  -0.01   0.03
  21   1     0.05  -0.13   0.00    -0.02   0.05  -0.01    -0.00  -0.00   0.29
  22   1     0.05   0.06   0.01    -0.00  -0.07   0.00    -0.00   0.00   0.02
  23   1    -0.11  -0.07   0.00    -0.07   0.09  -0.00    -0.00   0.00   0.18
  24   1    -0.01   0.00  -0.01    -0.04   0.11  -0.00    -0.00   0.00   0.01
  25   1     0.08  -0.01  -0.00     0.06  -0.07   0.01     0.00  -0.00  -0.16
  26   1    -0.03  -0.00  -0.01    -0.04   0.08  -0.00    -0.00   0.00   0.04
  27   1     0.05  -0.01  -0.01     0.01  -0.13   0.00     0.00  -0.00  -0.18
                     19                     20                     21
                        a                      a                      a 
 Frequencies --   684.6547               723.0783               738.6628
 Red. masses --     9.7360                11.0884                 3.6425
 Frc consts  --     0.0000                 0.0000                 0.0000
 IR Inten    --     5.2499                 0.0692                 7.1569
 Raman Activ --     0.0000                 0.0000                 0.0000
 Depolar     --     0.0000                 0.0000                 0.0000
 Atom AN      X      Y      Z        X      Y      Z        X      Y      Z
   1   7    -0.11   0.04   0.08    -0.01  -0.00   0.02    -0.02  -0.01   0.04
   2   6    -0.27   0.33   0.00    -0.01   0.02  -0.00    -0.00   0.02  -0.01
   3   6    -0.08   0.02  -0.08     0.01   0.00   0.01     0.02   0.01   0.03
   4   6    -0.03   0.02  -0.00    -0.00   0.00  -0.24    -0.00  -0.00  -0.20
   5   6     0.38  -0.04  -0.01     0.01  -0.00   0.23     0.00  -0.00   0.11
   6   6     0.27  -0.42  -0.00     0.01  -0.02  -0.16     0.01  -0.01   0.11
   7   6     0.02   0.04  -0.01    -0.00  -0.00   0.17    -0.00  -0.00   0.13
   8   6     0.05  -0.01   0.02     0.01   0.00  -0.55    -0.00   0.00   0.18
   9   6    -0.10  -0.07  -0.02    -0.01  -0.00   0.55    -0.00   0.00   0.01
  10   6    -0.21   0.03   0.01    -0.01   0.00  -0.19    -0.00   0.00  -0.17
  11   6    -0.26   0.04  -0.01    -0.01   0.00   0.19    -0.00   0.00  -0.15
  12   6     0.15   0.11   0.01     0.01   0.00  -0.20     0.00   0.00  -0.09
  13   6     0.12   0.02  -0.00     0.00   0.00   0.17     0.00  -0.00  -0.24
  14   1     0.12  -0.00  -0.12    -0.01  -0.00   0.00    -0.02  -0.00   0.01
  15   1    -0.08  -0.12   0.20    -0.00   0.00  -0.01    -0.00   0.01  -0.02
  16   1     0.04  -0.05   0.00    -0.01  -0.00   0.01    -0.03  -0.00   0.02
  17   1    -0.07   0.09   0.00    -0.00   0.01   0.01     0.00   0.00   0.02
  18   1    -0.05  -0.09  -0.15    -0.00  -0.01  -0.02    -0.00  -0.02  -0.02
  19   1     0.08  -0.01   0.08     0.02  -0.00   0.02     0.02   0.00   0.02
  20   1     0.03  -0.05  -0.02     0.01  -0.01   0.00     0.02  -0.00   0.01
  21   1     0.10  -0.01   0.02     0.00  -0.00  -0.06     0.00   0.00  -0.21
  22   1     0.10  -0.11   0.02     0.01  -0.00  -0.16     0.00  -0.00  -0.24
  23   1     0.03   0.02   0.01     0.00   0.00   0.13    -0.00  -0.00  -0.27
  24   1    -0.03   0.02   0.00    -0.00   0.00  -0.12    -0.00  -0.00   0.39
  25   1    -0.09  -0.06  -0.01    -0.00  -0.00   0.02    -0.00  -0.00   0.39
  26   1     0.08  -0.02  -0.00     0.00  -0.00   0.01    -0.00  -0.00   0.39
  27   1     0.00   0.00  -0.01    -0.00  -0.00   0.15    -0.00  -0.00   0.36
                     22                     23                     24
                        a                      a                      a 
 Frequencies --   801.0507               815.3078               838.6590
 Red. masses --    10.4447                 4.5073                10.1717
 Frc consts  --     0.0000                 0.0000                 0.0000
 IR Inten    --     6.2351                34.3223                11.9568
 Raman Activ --     0.0000                 0.0000                 0.0000
 Depolar     --     0.0000                 0.0000                 0.0000
 Atom AN      X      Y      Z        X      Y      Z        X      Y      Z
   1   7    -0.03   0.02   0.02     0.02   0.01  -0.04    -0.17  -0.05   0.34
   2   6    -0.02   0.05  -0.00    -0.01  -0.03   0.01     0.16   0.21  -0.14
   3   6    -0.01   0.00  -0.01    -0.01  -0.01  -0.01    -0.08  -0.02  -0.25
   4   6     0.06  -0.02  -0.01    -0.01  -0.00   0.16     0.23  -0.00   0.02
   5   6    -0.16  -0.17   0.01    -0.00   0.01  -0.28    -0.09  -0.13  -0.03
   6   6    -0.13  -0.42   0.00    -0.01  -0.01  -0.24    -0.03   0.00  -0.02
   7   6    -0.15   0.34   0.00    -0.01   0.01  -0.11     0.30  -0.06   0.03
   8   6    -0.04   0.26  -0.00    -0.00   0.01   0.08     0.11  -0.02  -0.01
   9   6     0.01  -0.17  -0.01    -0.00  -0.01   0.29    -0.08   0.12   0.01
  10   6     0.27  -0.20   0.00     0.01  -0.01  -0.11    -0.06   0.29  -0.00
  11   6     0.25  -0.06   0.00     0.00   0.00  -0.04     0.24  -0.08   0.01
  12   6    -0.08  -0.07   0.00     0.01   0.00  -0.12    -0.28  -0.21  -0.01
  13   6     0.02   0.42   0.00     0.01   0.01  -0.12    -0.14   0.03  -0.00
  14   1     0.03   0.00  -0.04     0.02   0.00  -0.01     0.04  -0.02  -0.07
  15   1    -0.02  -0.03   0.05     0.00  -0.01   0.01    -0.08  -0.10   0.12
  16   1     0.01  -0.02   0.00     0.02   0.01  -0.02    -0.10  -0.10   0.15
  17   1    -0.01   0.01  -0.00    -0.00  -0.01  -0.01     0.04   0.05  -0.03
  18   1    -0.01  -0.02  -0.02     0.00   0.02   0.02    -0.04  -0.04  -0.02
  19   1     0.01  -0.00   0.01    -0.02   0.00  -0.02    -0.01  -0.01   0.03
  20   1     0.00  -0.01  -0.00    -0.01   0.01  -0.00    -0.11  -0.08  -0.15
  21   1    -0.12   0.04  -0.02    -0.00  -0.00   0.60    -0.05  -0.01   0.04
  22   1    -0.07  -0.13  -0.01    -0.01  -0.00   0.37     0.07   0.02   0.04
  23   1    -0.13   0.08   0.00    -0.01   0.00   0.17     0.12  -0.01  -0.06
  24   1     0.12  -0.05   0.00     0.01  -0.00   0.07    -0.11   0.06  -0.01
  25   1     0.11   0.09  -0.00     0.00   0.00   0.19     0.07  -0.00  -0.00
  26   1     0.01  -0.05  -0.01     0.00  -0.00   0.26    -0.13  -0.00   0.00
  27   1     0.12   0.14  -0.01     0.00   0.00   0.23    -0.01   0.01   0.01
                     25                     26                     27
                        a                      a                      a 
 Frequencies --   846.4303               868.2129               881.3558
 Red. masses --     3.8923                 3.8604                 6.9097
 Frc consts  --     0.0000                 0.0000                 0.0000
 IR Inten    --     4.7941                 0.0826                24.8154
 Raman Activ --     0.0000                 0.0000                 0.0000
 Depolar     --     0.0000                 0.0000                 0.0000
 Atom AN      X      Y      Z        X      Y      Z        X      Y      Z
   1   7     0.01  -0.02  -0.00    -0.00   0.00  -0.01    -0.04  -0.11  -0.31
   2   6     0.01   0.00  -0.02    -0.01   0.00   0.00    -0.21  -0.03   0.04
   3   6     0.01   0.01   0.02     0.00  -0.00   0.01     0.06   0.10   0.18
   4   6    -0.03  -0.00  -0.04     0.01   0.00   0.00    -0.01   0.06  -0.01
   5   6     0.01   0.01  -0.15    -0.00  -0.00   0.08     0.05   0.04  -0.00
   6   6     0.00  -0.00  -0.05     0.00  -0.01   0.06     0.00  -0.15   0.01
   7   6    -0.04   0.01   0.43     0.02  -0.01  -0.16     0.17  -0.17   0.01
   8   6    -0.02   0.00  -0.12     0.01  -0.00   0.12     0.12  -0.00  -0.01
   9   6     0.01  -0.02  -0.05    -0.00   0.01  -0.10    -0.09   0.03   0.00
  10   6     0.01  -0.04   0.12    -0.01   0.02   0.29    -0.07   0.25  -0.01
  11   6    -0.03   0.01   0.10     0.01  -0.01   0.12     0.18  -0.08  -0.01
  12   6     0.03   0.03  -0.02    -0.01  -0.01  -0.12    -0.18  -0.16  -0.00
  13   6     0.02  -0.00  -0.05    -0.00   0.01  -0.30    -0.06   0.16   0.01
  14   1    -0.02  -0.00   0.04     0.00  -0.00   0.00    -0.09  -0.02   0.34
  15   1     0.01   0.01  -0.02    -0.00  -0.00   0.01     0.05   0.09   0.08
  16   1     0.00   0.02  -0.01     0.01  -0.00  -0.01     0.27   0.24  -0.34
  17   1     0.00  -0.00   0.03    -0.00   0.00  -0.00    -0.10  -0.01   0.14
  18   1     0.00  -0.00   0.00    -0.00  -0.00  -0.01    -0.01  -0.04  -0.00
  19   1     0.01   0.00   0.03     0.00  -0.00   0.00     0.08   0.02   0.15
  20   1    -0.00  -0.01  -0.00     0.01   0.00   0.01     0.03  -0.03   0.04
  21   1     0.01  -0.00   0.18    -0.00   0.00  -0.14    -0.01   0.04   0.02
  22   1    -0.01  -0.00   0.19     0.00  -0.00  -0.08     0.00  -0.04  -0.01
  23   1    -0.02   0.00  -0.74     0.01  -0.00   0.23     0.10  -0.04  -0.01
  24   1     0.02  -0.01  -0.24    -0.00   0.00  -0.54    -0.09   0.05   0.01
  25   1    -0.01   0.00  -0.17     0.00  -0.00  -0.17     0.05  -0.03   0.01
  26   1     0.01   0.00  -0.03    -0.01  -0.00   0.16    -0.06  -0.04  -0.00
  27   1     0.00  -0.00   0.15    -0.00   0.00   0.56     0.02   0.05  -0.03
                     28                     29                     30
                        a                      a                      a 
 Frequencies --   889.0053               896.5881               914.4935
 Red. masses --     6.2120                 3.5967                 4.0530
 Frc consts  --     0.0000                 0.0000                 0.0000
 IR Inten    --    12.1916                 2.3986                 1.1528
 Raman Activ --     0.0000                 0.0000                 0.0000
 Depolar     --     0.0000                 0.0000                 0.0000
 Atom AN      X      Y      Z        X      Y      Z        X      Y      Z
   1   7     0.19   0.24  -0.12    -0.07  -0.01  -0.00     0.04  -0.01   0.01
   2   6    -0.22  -0.18   0.24     0.02   0.01  -0.03     0.00   0.01   0.01
   3   6    -0.11  -0.13   0.10     0.04   0.01   0.02    -0.02  -0.00  -0.02
   4   6    -0.01   0.04  -0.03     0.02  -0.01   0.02    -0.01   0.00  -0.00
   5   6     0.05   0.07   0.03    -0.02  -0.03   0.27     0.01   0.01  -0.05
   6   6    -0.01  -0.10  -0.05     0.01   0.03  -0.36     0.00  -0.01   0.08
   7   6     0.12  -0.13   0.04    -0.01   0.03  -0.03    -0.01  -0.01   0.03
   8   6     0.09  -0.01   0.00    -0.01  -0.00   0.06    -0.00   0.00  -0.04
   9   6    -0.06   0.01  -0.00     0.01   0.00   0.02    -0.00  -0.00  -0.05
  10   6    -0.05   0.18  -0.00     0.01  -0.03   0.03    -0.00   0.00   0.27
  11   6     0.13  -0.05   0.00    -0.02   0.01  -0.08     0.01  -0.00  -0.22
  12   6    -0.12  -0.11  -0.00     0.01   0.02  -0.05     0.00  -0.00  -0.26
  13   6    -0.04   0.12   0.00     0.00  -0.03   0.04    -0.00   0.01   0.26
  14   1     0.12   0.05  -0.34     0.01  -0.00   0.03    -0.02   0.00  -0.00
  15   1     0.01  -0.03  -0.13    -0.02  -0.02   0.08     0.02   0.02  -0.05
  16   1    -0.13  -0.14   0.14     0.05   0.02  -0.05    -0.03  -0.01   0.03
  17   1    -0.06  -0.04  -0.14     0.01   0.00   0.00    -0.00   0.00   0.01
  18   1     0.02   0.07  -0.14     0.01  -0.00   0.04    -0.01  -0.01  -0.03
  19   1    -0.08  -0.01  -0.30    -0.00   0.00   0.02     0.01  -0.00   0.00
  20   1     0.23   0.19   0.26    -0.03  -0.01  -0.02     0.01  -0.00  -0.00
  21   1    -0.01   0.04  -0.07    -0.00  -0.00  -0.51     0.00   0.00   0.08
  22   1    -0.02  -0.03   0.10     0.01   0.01   0.67    -0.00  -0.00  -0.15
  23   1     0.07  -0.03  -0.07    -0.00   0.01  -0.05    -0.00  -0.00  -0.04
  24   1    -0.06   0.04   0.01     0.01  -0.01  -0.05     0.00   0.00  -0.41
  25   1     0.03  -0.02  -0.01    -0.01   0.00   0.14    -0.00  -0.00   0.38
  26   1    -0.04  -0.03   0.00     0.00   0.01   0.11    -0.00  -0.00   0.46
  27   1     0.01   0.04   0.00    -0.01  -0.01  -0.06     0.01   0.00  -0.40
                     31                     32                     33
                        a                      a                      a 
 Frequencies --   919.0112               929.9144               948.1702
 Red. masses --     4.7992                 3.5867                 8.8902
 Frc consts  --     0.0000                 0.0000                 0.0000
 IR Inten    --    49.6629                 0.0526                 4.4147
 Raman Activ --     0.0000                 0.0000                 0.0000
 Depolar     --     0.0000                 0.0000                 0.0000
 Atom AN      X      Y      Z        X      Y      Z        X      Y      Z
   1   7     0.31  -0.15   0.08    -0.01   0.01  -0.00    -0.08  -0.02   0.14
   2   6     0.02   0.15   0.06    -0.00  -0.01   0.00     0.20  -0.04  -0.19
   3   6    -0.17   0.05  -0.20     0.00  -0.00   0.00     0.21  -0.03   0.02
   4   6    -0.12   0.03   0.11     0.00  -0.00  -0.00    -0.29   0.05  -0.02
   5   6     0.07   0.08   0.03    -0.00  -0.00  -0.02     0.22   0.39   0.01
   6   6     0.02  -0.10  -0.05    -0.00   0.00   0.00    -0.03  -0.15  -0.00
   7   6    -0.06  -0.12  -0.03     0.00   0.00   0.01    -0.16  -0.36  -0.01
   8   6    -0.01   0.02   0.01     0.00  -0.00  -0.09    -0.04   0.03   0.00
   9   6    -0.02  -0.03   0.01    -0.00   0.00   0.08    -0.05  -0.09  -0.00
  10   6    -0.01   0.04  -0.02    -0.00  -0.00   0.11    -0.04   0.10   0.00
  11   6     0.03  -0.02   0.00     0.00   0.00  -0.33     0.09  -0.05  -0.00
  12   6     0.01  -0.02   0.03    -0.00  -0.00   0.30     0.03  -0.03   0.00
  13   6     0.01   0.09  -0.02     0.00  -0.00  -0.07     0.03   0.23  -0.00
  14   1    -0.25  -0.01   0.17     0.01   0.00  -0.01     0.03  -0.01  -0.04
  15   1     0.17   0.23  -0.49    -0.00  -0.01   0.01    -0.04  -0.05   0.06
  16   1    -0.24   0.01   0.20     0.01  -0.00  -0.00    -0.03  -0.05   0.06
  17   1    -0.02   0.04   0.16     0.00  -0.00  -0.01     0.07  -0.01  -0.11
  18   1    -0.10  -0.14  -0.21     0.00   0.00   0.00     0.10   0.12   0.28
  19   1     0.11  -0.01   0.12    -0.00   0.00  -0.01    -0.10   0.00  -0.03
  20   1    -0.01  -0.10  -0.08     0.00   0.00   0.00    -0.14   0.01  -0.10
  21   1     0.02   0.02  -0.06    -0.00  -0.00   0.03     0.05   0.12  -0.01
  22   1    -0.04  -0.04   0.10     0.00   0.00  -0.02    -0.22  -0.08   0.00
  23   1    -0.03  -0.04   0.03     0.00   0.00  -0.01    -0.08  -0.11   0.01
  24   1    -0.01   0.01   0.03     0.00   0.00  -0.24    -0.03   0.02  -0.00
  25   1     0.01  -0.02   0.00    -0.01  -0.00   0.60     0.01  -0.06   0.00
  26   1     0.02  -0.02  -0.05     0.00   0.00  -0.55     0.05  -0.05  -0.00
  27   1     0.03   0.03   0.04    -0.00  -0.00   0.19     0.06   0.08   0.00
                     34                     35                     36
                        a                      a                      a 
 Frequencies --  1045.0598              1068.0333              1088.1606
 Red. masses --     7.2267                 5.5461                 6.1432
 Frc consts  --     0.0000                 0.0000                 0.0000
 IR Inten    --    33.9573                51.9164                 0.0581
 Raman Activ --     0.0000                 0.0000                 0.0000
 Depolar     --     0.0000                 0.0000                 0.0000
 Atom AN      X      Y      Z        X      Y      Z        X      Y      Z
   1   7     0.01  -0.19   0.14    -0.11  -0.03   0.07     0.00  -0.00  -0.01
   2   6    -0.03   0.25  -0.50     0.18  -0.14  -0.35    -0.01   0.03   0.02
   3   6     0.08  -0.07   0.33    -0.25   0.16   0.22     0.01  -0.02  -0.01
   4   6    -0.08   0.09   0.07     0.09  -0.12   0.07     0.03   0.02  -0.00
   5   6    -0.06  -0.16  -0.01     0.09   0.16  -0.00     0.01  -0.03  -0.00
   6   6     0.07  -0.07  -0.01    -0.07   0.08  -0.01     0.01  -0.02   0.00
   7   6     0.02   0.04  -0.01    -0.02  -0.04  -0.01     0.00   0.01   0.00
   8   6     0.02  -0.01  -0.01    -0.04   0.01  -0.01    -0.02  -0.07   0.00
   9   6     0.03   0.04   0.00    -0.03  -0.04   0.00    -0.05   0.07  -0.00
  10   6     0.00  -0.00   0.00    -0.01  -0.01  -0.00    -0.09  -0.25  -0.00
  11   6    -0.03   0.01  -0.00     0.04  -0.02   0.00     0.33  -0.22   0.00
  12   6    -0.01  -0.01   0.00     0.02   0.03   0.00     0.21   0.34   0.00
  13   6     0.00  -0.02   0.00    -0.01   0.03   0.00    -0.18   0.17  -0.00
  14   1    -0.15  -0.03   0.16     0.03  -0.01  -0.01    -0.01  -0.00   0.01
  15   1     0.05   0.07  -0.13    -0.05  -0.07   0.10     0.00   0.01  -0.01
  16   1    -0.08   0.02   0.06     0.02  -0.01  -0.01     0.00   0.00  -0.00
  17   1    -0.26   0.07  -0.26     0.30  -0.04  -0.04    -0.04   0.01  -0.00
  18   1     0.09   0.15   0.05    -0.12  -0.16  -0.41     0.01   0.01   0.02
  19   1    -0.06   0.01  -0.18     0.26   0.01   0.11    -0.02  -0.00  -0.02
  20   1     0.16   0.18   0.24     0.28   0.01   0.24    -0.01   0.01  -0.01
  21   1     0.01  -0.07   0.02     0.00   0.07   0.01    -0.01   0.01   0.00
  22   1     0.15   0.01   0.01    -0.19  -0.01   0.01     0.04   0.00  -0.00
  23   1     0.06   0.02   0.02    -0.08  -0.03   0.01     0.01   0.00  -0.00
  24   1     0.01   0.00   0.00    -0.03  -0.01   0.00    -0.44  -0.16  -0.00
  25   1    -0.00   0.01  -0.00     0.01  -0.03  -0.00     0.06  -0.19   0.00
  26   1    -0.00  -0.01  -0.00    -0.00   0.02  -0.00    -0.03   0.21   0.00
  27   1     0.00  -0.01  -0.00    -0.02   0.01  -0.00    -0.47  -0.03  -0.00
                     37                     38                     39
                        a                      a                      a 
 Frequencies --  1131.4518              1147.9398              1163.2429
 Red. masses --     6.0056                 5.8526                 2.6919
 Frc consts  --     0.0000                 0.0000                 0.0000
 IR Inten    --     3.3418                 4.8736                 6.6295
 Raman Activ --     0.0000                 0.0000                 0.0000
 Depolar     --     0.0000                 0.0000                 0.0000
 Atom AN      X      Y      Z        X      Y      Z        X      Y      Z
   1   7     0.05   0.05   0.04    -0.08  -0.09  -0.06     0.03   0.01   0.01
   2   6    -0.10  -0.21  -0.12     0.20   0.33   0.19    -0.11   0.01  -0.03
   3   6     0.09   0.14   0.05    -0.15  -0.24  -0.08     0.05   0.03   0.01
   4   6    -0.16   0.02   0.02     0.19  -0.06  -0.02     0.08  -0.07   0.00
   5   6    -0.05  -0.12  -0.00     0.06  -0.01   0.00     0.13  -0.09   0.00
   6   6     0.01   0.13  -0.00    -0.02   0.13   0.00    -0.10   0.10  -0.00
   7   6    -0.03   0.26  -0.00    -0.07   0.02   0.00     0.07   0.13   0.00
   8   6    -0.01  -0.22  -0.00    -0.01  -0.04   0.00     0.12   0.06   0.00
   9   6     0.05  -0.19   0.00     0.09  -0.12  -0.00     0.02  -0.10  -0.00
  10   6    -0.00   0.23   0.00     0.01   0.16   0.00    -0.10  -0.01  -0.00
  11   6     0.01  -0.09   0.00    -0.03  -0.04  -0.00     0.03   0.07   0.00
  12   6     0.04  -0.05   0.00     0.05  -0.07   0.00    -0.06  -0.02  -0.00
  13   6    -0.09   0.25  -0.00    -0.11   0.09  -0.00     0.05  -0.06   0.00
  14   1     0.02   0.01  -0.08    -0.03  -0.02   0.13    -0.01   0.00  -0.01
  15   1    -0.00  -0.01  -0.05     0.01   0.03   0.07     0.01   0.02  -0.04
  16   1    -0.05  -0.04   0.07     0.08   0.07  -0.11    -0.02  -0.00   0.02
  17   1     0.05  -0.06  -0.03    -0.05   0.09   0.06    -0.15   0.01  -0.04
  18   1    -0.00  -0.04   0.04     0.01   0.07  -0.07     0.02   0.02   0.06
  19   1     0.08   0.02   0.17    -0.12  -0.04  -0.27    -0.01   0.01   0.03
  20   1    -0.04  -0.06  -0.06     0.06   0.11   0.10    -0.03   0.00  -0.02
  21   1     0.20  -0.28  -0.00     0.07  -0.05  -0.00     0.38  -0.40  -0.01
  22   1     0.00   0.03   0.00    -0.21  -0.00  -0.00    -0.57  -0.08  -0.00
  23   1     0.26   0.13   0.01    -0.32  -0.06  -0.00    -0.12   0.01   0.00
  24   1     0.13   0.09   0.00     0.17   0.08   0.00    -0.25  -0.05  -0.00
  25   1    -0.09  -0.32  -0.00    -0.10  -0.27  -0.00     0.05   0.16   0.00
  26   1     0.22  -0.24   0.00     0.17  -0.19   0.00    -0.16   0.15  -0.00
  27   1    -0.17   0.04  -0.00    -0.21  -0.01   0.00     0.14   0.01   0.00
                     40                     41                     42
                        a                      a                      a 
 Frequencies --  1171.5035              1177.2027              1225.4212
 Red. masses --     4.0866                 1.9277                 4.8606
 Frc consts  --     0.0000                 0.0000                 0.0000
 IR Inten    --    15.3338                 1.6403                 1.3888
 Raman Activ --     0.0000                 0.0000                 0.0000
 Depolar     --     0.0000                 0.0000                 0.0000
 Atom AN      X      Y      Z        X      Y      Z        X      Y      Z
   1   7    -0.06  -0.07  -0.04     0.03   0.02   0.02    -0.02  -0.01  -0.01
   2   6     0.24   0.15   0.13    -0.11  -0.05  -0.05     0.09   0.00   0.02
   3   6    -0.12  -0.19  -0.06     0.05   0.07   0.02    -0.04  -0.04  -0.02
   4   6    -0.22  -0.01  -0.01     0.09  -0.03   0.01    -0.13   0.05  -0.00
   5   6    -0.02  -0.03   0.00     0.00   0.04  -0.00     0.07   0.15   0.00
   6   6     0.03  -0.00   0.00     0.02   0.03  -0.00    -0.08   0.05  -0.00
   7   6    -0.01   0.04  -0.00     0.06  -0.03   0.00     0.09   0.02  -0.00
   8   6    -0.17  -0.03   0.00     0.04   0.11  -0.00     0.08   0.04   0.00
   9   6    -0.05  -0.05  -0.00    -0.01  -0.08   0.00    -0.45  -0.10  -0.00
  10   6    -0.01  -0.06  -0.00    -0.01  -0.04  -0.00    -0.06  -0.11  -0.00
  11   6     0.03  -0.03  -0.00     0.01  -0.10  -0.00     0.13  -0.11   0.00
  12   6    -0.00   0.11  -0.00    -0.04   0.06  -0.00    -0.01  -0.03  -0.00
  13   6     0.03   0.08   0.00    -0.03   0.00  -0.00     0.10   0.03   0.00
  14   1    -0.00  -0.02   0.09    -0.00   0.01  -0.03     0.01  -0.00   0.01
  15   1     0.01   0.02   0.05     0.00  -0.00  -0.03     0.00   0.01   0.01
  16   1     0.07   0.05  -0.08    -0.03  -0.02   0.03     0.02   0.01  -0.02
  17   1     0.28   0.03   0.09    -0.13  -0.01  -0.04     0.07   0.00   0.04
  18   1     0.01   0.05  -0.06     0.00  -0.01   0.03     0.00   0.02  -0.02
  19   1    -0.07  -0.03  -0.19     0.02   0.01   0.07     0.00  -0.01  -0.03
  20   1     0.05   0.07   0.08    -0.02  -0.03  -0.03     0.02   0.02   0.02
  21   1     0.12  -0.15  -0.01    -0.02   0.03   0.00     0.32  -0.29  -0.01
  22   1    -0.01  -0.00  -0.00     0.05   0.02   0.00     0.34   0.09   0.00
  23   1     0.52   0.12  -0.00    -0.19  -0.05   0.00    -0.17  -0.03   0.00
  24   1    -0.04  -0.03  -0.00     0.35   0.07   0.00     0.36   0.04   0.00
  25   1    -0.03  -0.12   0.00    -0.17  -0.56  -0.00     0.14   0.29   0.00
  26   1    -0.15   0.20   0.00    -0.38   0.44  -0.00    -0.08   0.08  -0.00
  27   1     0.36   0.10   0.00     0.17   0.04   0.00    -0.24  -0.05  -0.00
                     43                     44                     45
                        a                      a                      a 
 Frequencies --  1251.7043              1263.1582              1298.7901
 Red. masses --     4.5108                 8.8456                 4.5172
 Frc consts  --     0.0000                 0.0000                 0.0000
 IR Inten    --     0.4840                 5.8592                22.0439
 Raman Activ --     0.0000                 0.0000                 0.0000
 Depolar     --     0.0000                 0.0000                 0.0000
 Atom AN      X      Y      Z        X      Y      Z        X      Y      Z
   1   7     0.01  -0.02   0.01     0.02  -0.02   0.01    -0.00   0.20  -0.05
   2   6    -0.07   0.01  -0.01    -0.17   0.07   0.02     0.26  -0.13  -0.17
   3   6     0.03  -0.02   0.00     0.05   0.05   0.01    -0.08  -0.02   0.01
   4   6    -0.10  -0.03   0.00     0.34  -0.27  -0.00     0.03   0.20   0.01
   5   6     0.03  -0.08  -0.00     0.11   0.07  -0.00    -0.00  -0.05   0.00
   6   6     0.01  -0.14  -0.00     0.03   0.17   0.00    -0.07  -0.09  -0.00
   7   6     0.03  -0.04   0.00     0.13  -0.12   0.00    -0.03  -0.16  -0.01
   8   6     0.07   0.34   0.00    -0.45  -0.03  -0.00    -0.10   0.07  -0.00
   9   6     0.03   0.33   0.00    -0.35   0.04  -0.00     0.03   0.14   0.00
  10   6     0.02  -0.06   0.00     0.10  -0.10   0.00    -0.01  -0.08   0.00
  11   6    -0.06  -0.04  -0.00     0.08  -0.13   0.00     0.03   0.05  -0.00
  12   6     0.03  -0.10   0.00     0.04   0.18   0.00     0.07   0.01   0.00
  13   6     0.02  -0.13  -0.00    -0.02   0.07  -0.00    -0.12  -0.03  -0.00
  14   1    -0.01  -0.00   0.01    -0.04  -0.00   0.00     0.04   0.04  -0.04
  15   1     0.01   0.01  -0.02     0.01   0.01  -0.02    -0.06  -0.10   0.10
  16   1    -0.00   0.01   0.00    -0.03   0.01   0.02    -0.03  -0.10   0.05
  17   1     0.16  -0.00   0.00    -0.24   0.02  -0.17    -0.50  -0.04   0.57
  18   1     0.01   0.01   0.03    -0.00  -0.01   0.02    -0.01   0.02  -0.03
  19   1    -0.02  -0.00  -0.01    -0.02   0.01   0.04     0.05  -0.01  -0.01
  20   1    -0.01   0.01  -0.00    -0.03  -0.01  -0.03     0.06  -0.01   0.05
  21   1    -0.04   0.03   0.00    -0.01   0.08   0.00     0.09  -0.11  -0.00
  22   1    -0.39  -0.12  -0.00    -0.16   0.02  -0.00    -0.01  -0.02   0.00
  23   1     0.34   0.06   0.00     0.23  -0.00  -0.00     0.11  -0.02   0.01
  24   1     0.35   0.06   0.00     0.20   0.01   0.00     0.08  -0.00   0.00
  25   1    -0.02  -0.01  -0.00     0.06   0.07   0.00    -0.01  -0.04   0.00
  26   1    -0.07   0.05  -0.00     0.17  -0.12   0.00     0.07  -0.05  -0.00
  27   1    -0.46  -0.13  -0.00     0.13   0.05   0.00     0.06   0.01  -0.00
                     46                     47                     48
                        a                      a                      a 
 Frequencies --  1299.7141              1321.9354              1344.1736
 Red. masses --     5.5484                 9.9834                 7.1171
 Frc consts  --     0.0000                 0.0000                 0.0000
 IR Inten    --     6.7177                 4.4655                 6.0711
 Raman Activ --     0.0000                 0.0000                 0.0000
 Depolar     --     0.0000                 0.0000                 0.0000
 Atom AN      X      Y      Z        X      Y      Z        X      Y      Z
   1   7     0.09   0.07   0.00    -0.03   0.00   0.00    -0.02  -0.06   0.08
   2   6    -0.33   0.09  -0.30     0.13  -0.06   0.04    -0.23   0.01  -0.05
   3   6     0.09  -0.18   0.04    -0.03   0.02  -0.01     0.05  -0.04   0.01
   4   6     0.03  -0.22   0.03    -0.18  -0.01  -0.00     0.15   0.18   0.01
   5   6    -0.00   0.05   0.00    -0.32   0.18  -0.00    -0.01   0.05  -0.00
   6   6     0.10   0.10  -0.00     0.26  -0.18   0.00    -0.18  -0.13  -0.00
   7   6     0.10   0.12  -0.00     0.35   0.02   0.00     0.15  -0.14   0.00
   8   6    -0.01  -0.07  -0.00    -0.20   0.09  -0.00    -0.04   0.24  -0.00
   9   6    -0.09  -0.09   0.00    -0.08   0.10  -0.00     0.00   0.11   0.00
  10   6     0.06   0.06   0.00     0.38   0.09   0.00     0.02  -0.18   0.00
  11   6    -0.02  -0.08  -0.00    -0.15  -0.13  -0.00     0.13   0.23   0.00
  12   6    -0.08   0.04   0.00    -0.22   0.17  -0.00     0.04   0.07   0.00
  13   6     0.12   0.02   0.00     0.23  -0.11   0.00    -0.34  -0.18  -0.00
  14   1    -0.05   0.02  -0.01     0.04  -0.00  -0.01     0.02  -0.01  -0.09
  15   1    -0.01  -0.05  -0.01     0.00   0.02  -0.01     0.03   0.07  -0.11
  16   1    -0.08  -0.04   0.08     0.03  -0.00  -0.02     0.06   0.07  -0.05
  17   1     0.30  -0.00   0.62    -0.07  -0.01  -0.04     0.36  -0.00   0.02
  18   1     0.08   0.11   0.13    -0.01  -0.01  -0.02     0.02   0.03   0.04
  19   1    -0.09  -0.03  -0.07     0.03   0.00   0.01    -0.03  -0.01   0.00
  20   1    -0.01   0.09   0.04     0.02  -0.02   0.00    -0.02   0.04   0.01
  21   1    -0.09   0.12   0.00     0.10  -0.17  -0.00     0.18  -0.19   0.00
  22   1    -0.05   0.01   0.00    -0.06  -0.08   0.00     0.11  -0.00   0.00
  23   1    -0.09   0.01   0.01    -0.18  -0.05   0.00    -0.09  -0.07  -0.00
  24   1    -0.05   0.00  -0.00    -0.19  -0.04  -0.00    -0.01  -0.06  -0.00
  25   1     0.01   0.03  -0.00    -0.08  -0.16  -0.00    -0.05  -0.21  -0.00
  26   1    -0.02   0.01  -0.00     0.05  -0.08   0.00     0.22  -0.22   0.00
  27   1    -0.02  -0.01  -0.00    -0.09  -0.06  -0.00     0.18   0.01   0.00
                     49                     50                     51
                        a                      a                      a 
 Frequencies --  1361.9186              1398.3654              1419.4654
 Red. masses --     3.0900                11.5341                 6.7064
 Frc consts  --     0.0000                 0.0000                 0.0000
 IR Inten    --   241.7567                17.2315                30.6249
 Raman Activ --     0.0000                 0.0000                 0.0000
 Depolar     --     0.0000                 0.0000                 0.0000
 Atom AN      X      Y      Z        X      Y      Z        X      Y      Z
   1   7     0.19   0.07  -0.31     0.00  -0.01   0.00    -0.06  -0.04  -0.04
   2   6    -0.04   0.01   0.06    -0.03   0.01  -0.00    -0.04  -0.04  -0.00
   3   6    -0.01   0.00  -0.05    -0.00  -0.01  -0.01    -0.06  -0.03  -0.15
   4   6     0.00   0.02  -0.01     0.09   0.17  -0.00    -0.01   0.24   0.00
   5   6    -0.01   0.03   0.00     0.20  -0.13   0.00    -0.18  -0.10  -0.00
   6   6    -0.04  -0.03   0.00    -0.29  -0.08  -0.00     0.25  -0.05   0.00
   7   6     0.04  -0.01   0.00    -0.24   0.00  -0.00     0.14  -0.01   0.00
   8   6     0.01   0.07   0.00     0.17  -0.45   0.00    -0.14  -0.22  -0.00
   9   6    -0.00   0.01  -0.00    -0.15   0.50  -0.00     0.14   0.16   0.00
  10   6     0.02  -0.03  -0.00     0.28  -0.02   0.00    -0.22   0.03  -0.00
  11   6     0.02   0.06   0.00    -0.06  -0.13  -0.00    -0.01  -0.24  -0.00
  12   6    -0.01   0.01   0.00    -0.20   0.16  -0.00     0.18   0.07   0.00
  13   6    -0.06  -0.05  -0.00     0.21   0.04   0.00    -0.16   0.10  -0.00
  14   1    -0.26   0.02   0.43    -0.01  -0.00  -0.00     0.21  -0.02   0.05
  15   1    -0.06  -0.23   0.46     0.00   0.00   0.01     0.09   0.21   0.05
  16   1    -0.38  -0.18   0.28    -0.01   0.02   0.00    -0.07  -0.04   0.05
  17   1     0.11   0.00  -0.15     0.08   0.00  -0.01     0.14  -0.01  -0.01
  18   1     0.00   0.01   0.06     0.00   0.01   0.01     0.00   0.03   0.22
  19   1     0.01  -0.00   0.07    -0.00  -0.00   0.01     0.04  -0.02   0.20
  20   1     0.04   0.03   0.03     0.00   0.01   0.01     0.18   0.09   0.13
  21   1     0.05  -0.05  -0.00     0.06  -0.03   0.00    -0.05  -0.04   0.00
  22   1     0.03  -0.00   0.00    -0.05  -0.01  -0.00    -0.16  -0.06  -0.00
  23   1    -0.02  -0.01  -0.00    -0.08  -0.00  -0.00    -0.20  -0.05  -0.00
  24   1    -0.02  -0.02   0.00     0.05  -0.01   0.00     0.20   0.07   0.00
  25   1    -0.02  -0.05  -0.00    -0.04  -0.10  -0.00     0.09   0.21   0.00
  26   1     0.04  -0.04  -0.00    -0.00  -0.02  -0.00     0.00   0.08   0.00
  27   1     0.02  -0.01   0.00     0.09   0.01   0.00     0.13   0.07   0.00
                     52                     53                     54
                        a                      a                      a 
 Frequencies --  1422.2669              1427.6332              1430.4255
 Red. masses --     3.8435                 2.3035                 2.5131
 Frc consts  --     0.0000                 0.0000                 0.0000
 IR Inten    --    58.9216                48.2721                39.0756
 Raman Activ --     0.0000                 0.0000                 0.0000
 Depolar     --     0.0000                 0.0000                 0.0000
 Atom AN      X      Y      Z        X      Y      Z        X      Y      Z
   1   7    -0.07  -0.11  -0.04     0.07  -0.16  -0.04    -0.14   0.03  -0.11
   2   6     0.01   0.02  -0.01    -0.01  -0.04  -0.03    -0.02  -0.00  -0.03
   3   6    -0.09  -0.04  -0.21     0.08   0.06   0.18     0.11   0.05   0.18
   4   6     0.03  -0.16  -0.00     0.04   0.06   0.00    -0.08  -0.03   0.00
   5   6     0.11   0.06   0.00    -0.06   0.01   0.00     0.05  -0.04  -0.00
   6   6    -0.15   0.04  -0.00     0.03  -0.03  -0.00     0.02   0.03  -0.00
   7   6    -0.10   0.00   0.00     0.01  -0.03  -0.00     0.03   0.05   0.00
   8   6     0.07   0.13   0.00    -0.06  -0.03  -0.00     0.08   0.00   0.00
   9   6    -0.07  -0.11  -0.00     0.06   0.02   0.00    -0.08   0.01   0.00
  10   6     0.13  -0.01   0.00    -0.02   0.03  -0.00    -0.02  -0.05  -0.00
  11   6    -0.00   0.14   0.00    -0.04  -0.06   0.00     0.06   0.04   0.00
  12   6    -0.10  -0.06  -0.00     0.06  -0.01  -0.00    -0.06   0.05  -0.00
  13   6     0.11  -0.05   0.00    -0.01   0.03   0.00    -0.03  -0.05  -0.00
  14   1     0.31  -0.04  -0.07    -0.04  -0.02  -0.29     0.50  -0.03   0.33
  15   1     0.17   0.40   0.17     0.13   0.24   0.39     0.12   0.33  -0.01
  16   1    -0.20   0.12   0.06    -0.37   0.48   0.05    -0.03  -0.39   0.13
  17   1    -0.12   0.00   0.02     0.01  -0.01   0.07    -0.00  -0.00   0.03
  18   1    -0.00   0.04   0.29    -0.02  -0.08  -0.21    -0.02  -0.11  -0.25
  19   1     0.05  -0.03   0.27    -0.07   0.03  -0.26    -0.13   0.03  -0.21
  20   1     0.25   0.13   0.18    -0.18  -0.15  -0.14    -0.20  -0.08  -0.14
  21   1     0.01   0.04   0.00     0.02  -0.04   0.00    -0.03   0.04   0.01
  22   1     0.10   0.04  -0.00    -0.00  -0.01  -0.00    -0.04   0.00  -0.00
  23   1     0.14   0.03   0.00    -0.02  -0.01   0.00    -0.02   0.01   0.00
  24   1    -0.13  -0.04  -0.00     0.02   0.01  -0.00     0.02  -0.01   0.00
  25   1    -0.05  -0.11  -0.00     0.01   0.05  -0.00     0.00  -0.04   0.00
  26   1    -0.01  -0.03   0.00    -0.02   0.04   0.00     0.05  -0.05   0.00
  27   1    -0.09  -0.04  -0.00    -0.00   0.01   0.00     0.04  -0.00   0.00
                     55                     56                     57
                        a                      a                      a 
 Frequencies --  1440.2000              1479.4069              1483.3751
 Red. masses --     8.7906                 1.5868                 1.6191
 Frc consts  --     0.0000                 0.0000                 0.0000
 IR Inten    --     3.7055                20.9589                 7.2381
 Raman Activ --     0.0000                 0.0000                 0.0000
 Depolar     --     0.0000                 0.0000                 0.0000
 Atom AN      X      Y      Z        X      Y      Z        X      Y      Z
   1   7    -0.04   0.03  -0.01     0.00  -0.01  -0.00    -0.01  -0.01  -0.02
   2   6    -0.14   0.02  -0.03     0.05  -0.05   0.02    -0.06  -0.01   0.03
   3   6     0.05  -0.01   0.03     0.06  -0.19  -0.01    -0.20  -0.08   0.06
   4   6     0.38   0.11   0.01    -0.04  -0.02   0.00     0.03  -0.01  -0.00
   5   6    -0.10   0.14  -0.00    -0.01   0.01  -0.00     0.01  -0.00   0.00
   6   6    -0.18  -0.11  -0.00     0.02  -0.00   0.00    -0.01   0.01   0.00
   7   6    -0.15  -0.20   0.00     0.00   0.02  -0.00    -0.00  -0.00   0.00
   8   6    -0.31   0.02  -0.00     0.03  -0.01   0.00    -0.01   0.00   0.00
   9   6     0.23  -0.04   0.00     0.00   0.01   0.00     0.01  -0.00  -0.00
  10   6     0.16   0.16   0.00    -0.03  -0.01  -0.00     0.01   0.00   0.00
  11   6    -0.24  -0.08  -0.00     0.02  -0.01  -0.00    -0.01   0.00  -0.00
  12   6     0.17  -0.21   0.00    -0.01   0.02   0.00     0.01  -0.01  -0.00
  13   6     0.15   0.16   0.00    -0.02  -0.01  -0.00     0.00   0.01   0.00
  14   1     0.10  -0.00   0.13    -0.00  -0.00  -0.04     0.07  -0.01   0.03
  15   1     0.00   0.03  -0.06     0.01   0.02   0.04     0.03   0.06   0.00
  16   1     0.04  -0.16   0.03    -0.03   0.05  -0.00    -0.02  -0.04   0.02
  17   1     0.09   0.00   0.00    -0.05  -0.01  -0.03     0.02  -0.00  -0.03
  18   1     0.00  -0.01  -0.07     0.13   0.27  -0.43     0.21   0.57   0.02
  19   1    -0.06   0.00   0.01    -0.01  -0.04   0.43     0.67  -0.04  -0.16
  20   1    -0.07   0.06  -0.02    -0.39   0.57  -0.00    -0.11  -0.23  -0.13
  21   1     0.17  -0.17   0.00    -0.02   0.02  -0.00    -0.01   0.01  -0.01
  22   1     0.16   0.01   0.00    -0.01  -0.00   0.00     0.00   0.00   0.00
  23   1     0.10  -0.03  -0.00    -0.00   0.01  -0.00     0.01  -0.00  -0.00
  24   1    -0.11   0.02  -0.00     0.01   0.00   0.00    -0.01  -0.00  -0.00
  25   1    -0.03   0.10  -0.00     0.01   0.00   0.00    -0.00   0.00   0.00
  26   1    -0.16   0.18  -0.00     0.01  -0.01  -0.00    -0.01   0.01   0.00
  27   1    -0.18   0.00  -0.00     0.02   0.00  -0.00    -0.00   0.00   0.00
                     58                     59                     60
                        a                      a                      a 
 Frequencies --  1533.1127              1557.9233              1563.0083
 Red. masses --    10.8857                11.5583                11.4606
 Frc consts  --     0.0000                 0.0000                 0.0000
 IR Inten    --     0.4564                 1.3263                 4.8972
 Raman Activ --     0.0000                 0.0000                 0.0000
 Depolar     --     0.0000                 0.0000                 0.0000
 Atom AN      X      Y      Z        X      Y      Z        X      Y      Z
   1   7    -0.00   0.00   0.00    -0.01   0.00   0.00     0.01   0.00  -0.01
   2   6    -0.00   0.05  -0.00    -0.03  -0.03  -0.01     0.03  -0.01   0.01
   3   6    -0.00   0.00  -0.00    -0.00   0.00   0.00     0.01  -0.00   0.00
   4   6     0.05  -0.43   0.00     0.20   0.36   0.00    -0.26   0.07  -0.00
   5   6    -0.13   0.37   0.00    -0.04  -0.16  -0.00     0.39  -0.29   0.00
   6   6    -0.17  -0.19  -0.00     0.15   0.10   0.00    -0.42   0.07  -0.00
   7   6    -0.11   0.12  -0.00    -0.30  -0.20  -0.00     0.32   0.04   0.00
   8   6     0.26   0.03   0.00     0.06   0.26   0.00    -0.16   0.21  -0.00
   9   6     0.31   0.12   0.00     0.04  -0.32  -0.00     0.14  -0.12   0.00
  10   6    -0.13   0.11  -0.00    -0.13   0.08  -0.00     0.18   0.19   0.00
  11   6    -0.02  -0.36  -0.00     0.09  -0.27   0.00    -0.17  -0.34  -0.00
  12   6    -0.05   0.28   0.00    -0.33   0.37  -0.00     0.07   0.13   0.00
  13   6    -0.17  -0.14  -0.00     0.23  -0.15   0.00    -0.12  -0.06  -0.00
  14   1     0.01  -0.00   0.01    -0.00  -0.00  -0.00    -0.00   0.00  -0.01
  15   1     0.00   0.00  -0.01    -0.00  -0.00   0.01     0.00   0.00   0.00
  16   1     0.01  -0.01   0.00    -0.00  -0.00   0.00    -0.00   0.01  -0.00
  17   1    -0.10   0.01   0.00     0.07  -0.01   0.00     0.00  -0.00  -0.00
  18   1    -0.00  -0.00   0.02     0.00   0.00  -0.00     0.00  -0.00  -0.01
  19   1     0.00   0.00  -0.02     0.01  -0.00   0.01    -0.00  -0.00   0.01
  20   1     0.02  -0.02   0.00    -0.00   0.00  -0.00    -0.01   0.01  -0.00
  21   1     0.12  -0.07  -0.00    -0.03  -0.02   0.00    -0.07   0.11  -0.00
  22   1     0.13  -0.02   0.00    -0.03   0.01  -0.00     0.07   0.06  -0.00
  23   1     0.08   0.05   0.00     0.09  -0.02  -0.00    -0.08  -0.02   0.00
  24   1     0.08   0.06   0.00     0.03   0.03   0.00    -0.04   0.03  -0.00
  25   1     0.06   0.10   0.00     0.05   0.01   0.00     0.02   0.10   0.00
  26   1     0.08  -0.03   0.00     0.08  -0.10   0.00     0.02   0.04   0.00
  27   1     0.12  -0.00   0.00    -0.01  -0.06  -0.00     0.03   0.00   0.00
                     61                     62                     63
                        a                      a                      a 
 Frequencies --  1580.1603              2897.4272              3024.1207
 Red. masses --    11.4938                 1.7583                 1.8856
 Frc consts  --     0.0000                 0.0000                 0.0000
 IR Inten    --     0.7050                 5.2942                30.9534
 Raman Activ --     0.0000                 0.0000                 0.0000
 Depolar     --     0.0000                 0.0000                 0.0000
 Atom AN      X      Y      Z        X      Y      Z        X      Y      Z
   1   7     0.00  -0.00  -0.00    -0.00  -0.00   0.00     0.00   0.00   0.00
   2   6    -0.00   0.01   0.00    -0.00  -0.26  -0.01    -0.01   0.01   0.00
   3   6     0.00   0.00   0.00    -0.00   0.01  -0.00    -0.24   0.13   0.04
   4   6    -0.07  -0.08  -0.00     0.00  -0.01  -0.00     0.00  -0.00  -0.00
   5   6     0.08   0.01   0.00     0.00   0.00  -0.00    -0.00  -0.00  -0.00
   6   6    -0.22  -0.07  -0.00    -0.00   0.00   0.00     0.00   0.00  -0.00
   7   6     0.21   0.04   0.00    -0.00   0.00   0.00     0.00  -0.00  -0.00
   8   6    -0.35  -0.11  -0.00     0.00  -0.00   0.00    -0.00  -0.00   0.00
   9   6     0.38   0.08   0.00     0.00   0.00   0.00     0.00  -0.00  -0.00
  10   6    -0.42  -0.14  -0.00    -0.00   0.00  -0.00    -0.00  -0.00  -0.00
  11   6     0.23   0.19   0.00    -0.00   0.00   0.00    -0.00   0.00   0.00
  12   6    -0.27   0.06  -0.00    -0.00  -0.00  -0.00    -0.00  -0.00  -0.00
  13   6     0.43   0.05   0.00    -0.00   0.00  -0.00     0.00  -0.00   0.00
  14   1    -0.00  -0.00   0.00    -0.00  -0.02   0.00    -0.00  -0.00   0.00
  15   1     0.00   0.00  -0.00     0.00  -0.00   0.00     0.00  -0.00  -0.00
  16   1    -0.00   0.00   0.00    -0.00  -0.00   0.00    -0.00  -0.00  -0.00
  17   1    -0.01   0.00  -0.00     0.02   0.96   0.02     0.00  -0.02  -0.00
  18   1     0.00  -0.00   0.00     0.02  -0.00  -0.00     0.85  -0.34   0.02
  19   1    -0.00   0.00  -0.00    -0.00  -0.04  -0.00    -0.05  -0.22  -0.00
  20   1     0.00  -0.00  -0.00    -0.01  -0.00   0.01     0.06   0.08  -0.15
  21   1     0.01   0.01  -0.00    -0.00  -0.00   0.00     0.01   0.00   0.00
  22   1     0.07   0.01   0.00     0.00  -0.00   0.00     0.00  -0.00   0.00
  23   1    -0.06  -0.01   0.00     0.00  -0.00  -0.00    -0.00   0.00  -0.00
  24   1     0.11   0.01   0.00    -0.00  -0.00   0.00    -0.00   0.00   0.00
  25   1     0.02  -0.08   0.00    -0.00  -0.00   0.00     0.00  -0.00   0.00
  26   1     0.01  -0.08  -0.00     0.00   0.00  -0.00     0.00   0.00  -0.00
  27   1    -0.11  -0.03  -0.00     0.00  -0.00  -0.00    -0.00   0.00  -0.00
                     64                     65                     66
                        a                      a                      a 
 Frequencies --  3033.4337              3045.0990              3108.5976
 Red. masses --     1.8996                 1.3933                 1.7705
 Frc consts  --     0.0000                 0.0000                 0.0000
 IR Inten    --     0.5722                 8.7015                 2.9028
 Raman Activ --     0.0000                 0.0000                 0.0000
 Depolar     --     0.0000                 0.0000                 0.0000
 Atom AN      X      Y      Z        X      Y      Z        X      Y      Z
   1   7     0.00   0.00  -0.00     0.00   0.00   0.00     0.00   0.00   0.00
   2   6    -0.00  -0.01   0.00    -0.00  -0.01  -0.00    -0.00   0.00  -0.00
   3   6    -0.10  -0.20   0.18    -0.03  -0.15  -0.10     0.00   0.00  -0.00
   4   6     0.00  -0.00   0.00     0.00  -0.00  -0.00     0.00   0.00   0.00
   5   6     0.00   0.00   0.00     0.01   0.01   0.00     0.00   0.00   0.00
   6   6    -0.00   0.00  -0.00     0.00  -0.00  -0.00     0.00  -0.01  -0.00
   7   6    -0.00   0.00  -0.00    -0.00   0.00  -0.00     0.00  -0.00  -0.00
   8   6     0.00   0.00  -0.00     0.00   0.00   0.00    -0.00   0.00  -0.00
   9   6     0.00  -0.00   0.00     0.00  -0.00  -0.00     0.00   0.00   0.00
  10   6    -0.00   0.00   0.00    -0.00   0.00   0.00    -0.01   0.05   0.00
  11   6    -0.00   0.00  -0.00     0.00   0.00  -0.00     0.17  -0.06   0.00
  12   6    -0.00  -0.00  -0.00     0.00   0.00   0.00    -0.13  -0.12  -0.00
  13   6    -0.00   0.00  -0.00    -0.00   0.00  -0.00    -0.01   0.05  -0.00
  14   1    -0.00  -0.00  -0.00    -0.00   0.00  -0.00    -0.00  -0.00   0.00
  15   1    -0.00   0.00  -0.00    -0.00  -0.00  -0.00    -0.00  -0.00   0.00
  16   1    -0.00  -0.00  -0.00    -0.00  -0.00  -0.00     0.00   0.00  -0.00
  17   1     0.00   0.03  -0.00     0.00   0.02  -0.00     0.00  -0.00  -0.00
  18   1    -0.07  -0.00   0.02     0.27  -0.13  -0.00    -0.00  -0.00  -0.00
  19   1     0.01   0.43   0.04     0.04   0.83   0.03    -0.00  -0.00  -0.00
  20   1     0.42   0.26  -0.70    -0.20  -0.16   0.33    -0.00  -0.00   0.00
  21   1    -0.01  -0.01   0.00    -0.02  -0.02   0.00    -0.01  -0.01  -0.00
  22   1    -0.00   0.00   0.00    -0.00   0.00  -0.00    -0.00   0.02   0.00
  23   1     0.00  -0.00   0.00     0.00  -0.00   0.00    -0.00   0.01   0.00
  24   1     0.00  -0.00   0.00     0.00  -0.00  -0.00     0.04  -0.19   0.00
  25   1    -0.00   0.00  -0.00    -0.00   0.00   0.00    -0.63   0.21  -0.01
  26   1     0.00   0.00  -0.00     0.00   0.00   0.00     0.48   0.43   0.00
  27   1     0.00  -0.00  -0.00     0.00  -0.00   0.00     0.04  -0.20   0.00
                     67                     68                     69
                        a                      a                      a 
 Frequencies --  3114.3946              3116.3983              3126.0639
 Red. masses --     1.7897                 1.8261                 1.8560
 Frc consts  --     0.0000                 0.0000                 0.0000
 IR Inten    --    35.9324                 2.2940                11.7651
 Raman Activ --     0.0000                 0.0000                 0.0000
 Depolar     --     0.0000                 0.0000                 0.0000
 Atom AN      X      Y      Z        X      Y      Z        X      Y      Z
   1   7    -0.00  -0.00  -0.00    -0.00  -0.00  -0.00     0.00   0.00   0.00
   2   6    -0.00  -0.00   0.00    -0.00  -0.00   0.00    -0.00   0.00  -0.00
   3   6     0.00  -0.01  -0.00    -0.00  -0.00  -0.00     0.00   0.00   0.00
   4   6    -0.01  -0.00  -0.00    -0.00  -0.00  -0.00    -0.00   0.00  -0.00
   5   6    -0.18  -0.16  -0.00    -0.05  -0.04  -0.00     0.02   0.02   0.00
   6   6    -0.02   0.10   0.00    -0.00   0.01   0.00    -0.01   0.05   0.00
   7   6     0.01  -0.01  -0.00    -0.00   0.01   0.00    -0.01   0.06   0.00
   8   6    -0.00   0.00   0.00     0.00  -0.00   0.00     0.01  -0.00   0.00
   9   6    -0.00   0.00   0.00    -0.00   0.00   0.00    -0.01  -0.00  -0.00
  10   6     0.01  -0.03  -0.00    -0.02   0.08  -0.00     0.03  -0.14   0.00
  11   6    -0.03   0.01  -0.00     0.15  -0.05   0.00     0.03  -0.01   0.00
  12   6    -0.03  -0.03  -0.00     0.12   0.10   0.00    -0.07  -0.06  -0.00
  13   6    -0.00   0.02  -0.00     0.02  -0.11   0.00     0.04  -0.20   0.00
  14   1     0.00   0.02  -0.00     0.00   0.00  -0.00    -0.00  -0.00   0.00
  15   1    -0.00   0.00  -0.00    -0.00   0.00  -0.00     0.00   0.00   0.00
  16   1     0.00   0.00   0.00     0.00   0.00   0.00    -0.00   0.00  -0.00
  17   1    -0.00   0.00   0.00     0.00   0.00   0.00     0.00  -0.00  -0.00
  18   1     0.00  -0.00   0.00     0.00  -0.00   0.00    -0.00   0.00  -0.00
  19   1     0.00   0.03   0.00     0.00   0.01   0.00    -0.00  -0.00  -0.00
  20   1    -0.00  -0.00   0.00    -0.00  -0.00   0.00     0.00   0.00   0.00
  21   1     0.64   0.57   0.01     0.17   0.15   0.00    -0.06  -0.06  -0.00
  22   1     0.07  -0.36  -0.00     0.01  -0.06  -0.00     0.03  -0.16  -0.00
  23   1    -0.01   0.05   0.00     0.01  -0.04   0.00     0.04  -0.22  -0.00
  24   1    -0.02   0.09  -0.00     0.07  -0.32   0.00    -0.11   0.50  -0.00
  25   1     0.11  -0.04   0.00    -0.53   0.17  -0.00    -0.08   0.03  -0.00
  26   1     0.11   0.10   0.00    -0.41  -0.36  -0.00     0.21   0.19   0.00
  27   1     0.02  -0.09   0.00    -0.08   0.39  -0.00    -0.14   0.68  -0.00
                     70                     71                     72
                        a                      a                      a 
 Frequencies --  3127.9446              3130.7796              3132.6211
 Red. masses --     1.8934                 1.8598                 1.8308
 Frc consts  --     0.0000                 0.0000                 0.0000
 IR Inten    --    19.0228                32.0241                10.0020
 Raman Activ --     0.0000                 0.0000                 0.0000
 Depolar     --     0.0000                 0.0000                 0.0000
 Atom AN      X      Y      Z        X      Y      Z        X      Y      Z
   1   7     0.00   0.00   0.00     0.00   0.00   0.00     0.00  -0.00  -0.00
   2   6     0.00   0.00  -0.00     0.00   0.00  -0.00    -0.00   0.00   0.00
   3   6    -0.00   0.00   0.00     0.00   0.00   0.00    -0.00   0.00   0.00
   4   6     0.00  -0.00   0.00    -0.00  -0.00   0.00    -0.01   0.01  -0.00
   5   6     0.04   0.04   0.00     0.07   0.06   0.00    -0.03  -0.03  -0.00
   6   6    -0.03   0.12   0.00    -0.04   0.21   0.00     0.01  -0.06  -0.00
   7   6     0.01  -0.05  -0.00    -0.02   0.09   0.00    -0.05   0.24   0.00
   8   6    -0.00   0.00  -0.00     0.00   0.00   0.00     0.00   0.01  -0.00
   9   6    -0.01  -0.00  -0.00    -0.00   0.01  -0.00     0.00  -0.00   0.00
  10   6     0.03  -0.16   0.00    -0.02   0.12   0.00     0.01  -0.04   0.00
  11   6     0.10  -0.03   0.00    -0.05   0.02  -0.00     0.02  -0.01   0.00
  12   6     0.07   0.06   0.00    -0.01  -0.01  -0.00     0.03   0.02   0.00
  13   6    -0.02   0.11  -0.00     0.00   0.00   0.00    -0.02   0.08  -0.00
  14   1    -0.00  -0.00   0.00    -0.00  -0.01   0.00     0.00   0.01   0.00
  15   1     0.00  -0.00   0.00    -0.00   0.00   0.00     0.00  -0.00  -0.00
  16   1    -0.00  -0.00  -0.00    -0.00   0.00  -0.00    -0.00   0.00  -0.00
  17   1    -0.00   0.00   0.00     0.00  -0.00  -0.00     0.00  -0.00  -0.00
  18   1     0.00  -0.00  -0.00     0.00  -0.00  -0.00     0.00  -0.00  -0.00
  19   1    -0.00  -0.00  -0.00    -0.00  -0.01  -0.00    -0.00  -0.00  -0.00
  20   1     0.00   0.00  -0.00     0.00   0.00   0.00    -0.00   0.00   0.00
  21   1    -0.14  -0.13  -0.00    -0.21  -0.19  -0.00     0.09   0.08   0.00
  22   1     0.08  -0.41  -0.00     0.14  -0.72  -0.00    -0.04   0.20   0.00
  23   1    -0.03   0.17  -0.00     0.06  -0.30  -0.00     0.17  -0.85  -0.00
  24   1    -0.12   0.55  -0.00     0.09  -0.41   0.00    -0.03   0.14  -0.00
  25   1    -0.32   0.11  -0.00     0.15  -0.05   0.00    -0.08   0.03  -0.00
  26   1    -0.23  -0.21  -0.00     0.04   0.04   0.00    -0.09  -0.08  -0.00
  27   1     0.08  -0.39   0.00     0.00  -0.01  -0.00     0.05  -0.28   0.00
                     73                     74                     75
                        a                      a                      a 
 Frequencies --  3262.2423              3268.8874              3279.2389
 Red. masses --     1.9988                 2.0357                 1.3120
 Frc consts  --     0.0000                 0.0000                 0.0000
 IR Inten    --    60.0078                63.0476                24.3419
 Raman Activ --     0.0000                 0.0000                 0.0000
 Depolar     --     0.0000                 0.0000                 0.0000
 Atom AN      X      Y      Z        X      Y      Z        X      Y      Z
   1   7    -0.20   0.18  -0.01    -0.16  -0.19  -0.14    -0.00   0.07  -0.14
   2   6    -0.00   0.00   0.00    -0.00  -0.01   0.00     0.00   0.01  -0.01
   3   6     0.00  -0.00   0.00    -0.00   0.00   0.00     0.00  -0.00  -0.00
   4   6     0.00  -0.00   0.00     0.00  -0.00  -0.00     0.00   0.00  -0.00
   5   6    -0.00  -0.00  -0.00     0.00   0.00   0.00    -0.00  -0.00  -0.00
   6   6     0.00  -0.00  -0.00    -0.00   0.00   0.00     0.00  -0.00  -0.00
   7   6     0.00   0.00   0.00    -0.00  -0.00   0.00    -0.00   0.00  -0.00
   8   6    -0.00  -0.00  -0.00     0.00  -0.00  -0.00    -0.00   0.00  -0.00
   9   6     0.00  -0.00   0.00    -0.00  -0.00  -0.00    -0.00  -0.00   0.00
  10   6    -0.00   0.00   0.00    -0.00   0.00  -0.00     0.00  -0.00   0.00
  11   6     0.00  -0.00  -0.00    -0.00   0.00   0.00     0.00  -0.00  -0.00
  12   6    -0.00  -0.00   0.00     0.00  -0.00   0.00     0.00   0.00   0.00
  13   6     0.00   0.00  -0.00    -0.00  -0.00  -0.00    -0.00   0.00  -0.00
  14   1    -0.05  -0.39  -0.00     0.03   0.63  -0.01    -0.04  -0.62  -0.02
  15   1     0.81  -0.33  -0.02     0.22  -0.12  -0.02    -0.31   0.14  -0.00
  16   1     0.01   0.04   0.05     0.34   0.19   0.56     0.35   0.21   0.55
  17   1     0.00  -0.01  -0.00     0.00   0.01   0.00     0.00  -0.01   0.00
  18   1    -0.00   0.00   0.00     0.00  -0.00   0.00     0.00  -0.00  -0.00
  19   1    -0.00   0.00  -0.00    -0.00   0.00   0.00     0.00   0.00  -0.00
  20   1     0.00   0.00  -0.00     0.00   0.00  -0.00    -0.00  -0.00   0.00
  21   1     0.01   0.01   0.00    -0.01  -0.01  -0.00     0.01   0.00   0.00
  22   1    -0.00   0.00   0.00     0.00  -0.00  -0.00    -0.00   0.00   0.00
  23   1    -0.00  -0.00   0.00     0.00   0.00   0.00     0.00  -0.00   0.00
  24   1     0.00  -0.00   0.00     0.00  -0.00  -0.00    -0.00   0.00   0.00
  25   1     0.00  -0.00   0.00     0.00  -0.00   0.00    -0.00   0.00  -0.00
  26   1     0.00   0.00   0.00     0.00   0.00   0.00    -0.00  -0.00  -0.00
  27   1    -0.00   0.00  -0.00    -0.00   0.00   0.00     0.00  -0.00   0.00
