      -----------------------------------------------------------      
     |                   =====================                   |     
     |                           x T B                           |     
     |                   =====================                   |     
     |                         S. Grimme                         |     
     |          Mulliken Center for Theoretical Chemistry        |     
     |                    University of Bonn                     |     
      -----------------------------------------------------------      

   * xtb version 6.5.1 (fef0646) compiled by 'conda@b96dff2e9fd6' on 2023-01-04

   xtb is free software: you can redistribute it and/or modify it under
   the terms of the GNU Lesser General Public License as published by
   the Free Software Foundation, either version 3 of the License, or
   (at your option) any later version.
   
   xtb is distributed in the hope that it will be useful,
   but WITHOUT ANY WARRANTY; without even the implied warranty of
   MERCHANTABILITY or FITNESS FOR A PARTICULAR PURPOSE.  See the
   GNU Lesser General Public License for more details.
   
   Cite this work as:
   * C. Bannwarth, E. Caldeweyher, S. Ehlert, A. Hansen, P. Pracht,
     J. Seibert, S. Spicher, S. Grimme, WIREs Comput. Mol. Sci., 2020, 11,
     e01493. DOI: 10.1002/wcms.1493
   
   for GFN2-xTB:
   * C. Bannwarth, S. Ehlert and S. Grimme., J. Chem. Theory Comput., 2019,
     15, 1652-1671. DOI: 10.1021/acs.jctc.8b01176
   for GFN1-xTB:
   * S. Grimme, C. Bannwarth, P. Shushkov, J. Chem. Theory Comput., 2017,
     13, 1989-2009. DOI: 10.1021/acs.jctc.7b00118
   for GFN0-xTB:
   * P. Pracht, E. Caldeweyher, S. Ehlert, S. Grimme, ChemRxiv, 2019, preprint.
     DOI: 10.26434/chemrxiv.8326202.v1
   for GFN-FF:
   * S. Spicher and S. Grimme, Angew. Chem. Int. Ed., 2020, 59, 15665-15673.
     DOI: 10.1002/anie.202004239
   
   for ALPB and GBSA implicit solvation:
   * S. Ehlert, M. Stahn, S. Spicher, S. Grimme, J. Chem. Theory Comput.,
     2021, 17, 4250-4261. DOI: 10.1021/acs.jctc.1c00471
   
   for DFT-D4:
   * E. Caldeweyher, C. Bannwarth and S. Grimme, J. Chem. Phys., 2017,
     147, 034112. DOI: 10.1063/1.4993215
   * E. Caldeweyher, S. Ehlert, A. Hansen, H. Neugebauer, S. Spicher,
     C. Bannwarth and S. Grimme, J. Chem. Phys., 2019, 150, 154122.
     DOI: 10.1063/1.5090222
   * E. Caldeweyher, J.-M. Mewes, S. Ehlert and S. Grimme, Phys. Chem. Chem. Phys.
     2020, 22, 8499-8512. DOI: 10.1039/D0CP00502A
   
   for sTDA-xTB:
   * S. Grimme and C. Bannwarth, J. Chem. Phys., 2016, 145, 054103.
     DOI: 10.1063/1.4959605
   
   in the mass-spec context:
   * V. Asgeirsson, C. Bauer and S. Grimme, Chem. Sci., 2017, 8, 4879.
     DOI: 10.1039/c7sc00601b
   * J. Koopman and S. Grimme, ACS Omega 2019, 4, 12, 15120-15133.
     DOI: 10.1021/acsomega.9b02011
   
   for metadynamics refer to:
   * S. Grimme, J. Chem. Theory Comput., 2019, 155, 2847-2862
     DOI: 10.1021/acs.jctc.9b00143
   
   for SPH calculations refer to:
   * S. Spicher and S. Grimme, J. Chem. Theory Comput., 2021, 17, 1701-1714
     DOI: 10.1021/acs.jctc.0c01306
   
   with help from (in alphabetical order)
   P. Atkinson, C. Bannwarth, F. Bohle, G. Brandenburg, E. Caldeweyher
   M. Checinski, S. Dohm, S. Ehlert, S. Ehrlich, I. Gerasimov, C. Hölzer
   A. Katbashev, J. Koopman, C. Lavigne, S. Lehtola, F. März, M. Müller,
   F. Musil, H. Neugebauer, J. Pisarek, C. Plett, P. Pracht, F. Pultar,
   J. Seibert, P. Shushkov, S. Spicher, M. Stahn, M. Steiner, T. Strunk,
   J. Stückrath, T. Rose, and J. Unsleber
   
 * started run on 2023/01/23 at 14:06:24.376     

           -------------------------------------------------
          |                Calculation Setup                |
           -------------------------------------------------

          program call               : xtb init.xyz --opt -c 1 -u 0 -P 16
          hostname                   : gpg-woodward
          coordinate file            : init.xyz
          omp threads                :                    16

   ID    Z sym.   atoms
    1    7 N      1
    2    6 C      2-11
    3   16 S      12, 13
    4    1 H      14-25

           -------------------------------------------------
          |                 G F N 2 - x T B                 |
           -------------------------------------------------

        Reference                      10.1021/acs.jctc.8b01176
      * Hamiltonian:
        H0-scaling (s, p, d)           1.850000    2.230000    2.230000
        zeta-weighting                 0.500000
      * Dispersion:
        s8                             2.700000
        a1                             0.520000
        a2                             5.000000
        s9                             5.000000
      * Repulsion:
        kExp                           1.500000    1.000000
        rExp                           1.000000
      * Coulomb:
        alpha                          2.000000
        third order                    shell-resolved
        anisotropic                    true
        a3                             3.000000
        a5                             4.000000
        cn-shift                       1.200000
        cn-exp                         4.000000
        max-rad                        5.000000


          ...................................................
          :                      SETUP                      :
          :.................................................:
          :  # basis functions                  76          :
          :  # atomic orbitals                  74          :
          :  # shells                           40          :
          :  # electrons                        68          :
          :  max. iterations                   250          :
          :  Hamiltonian                  GFN2-xTB          :
          :  restarted?                      false          :
          :  GBSA solvation                  false          :
          :  PC potential                    false          :
          :  electronic temp.          300.0000000     K    :
          :  accuracy                    1.0000000          :
          :  -> integral cutoff          0.2500000E+02      :
          :  -> integral neglect         0.1000000E-07      :
          :  -> SCF convergence          0.1000000E-05 Eh   :
          :  -> wf. convergence          0.1000000E-03 e    :
          :  Broyden damping             0.4000000          :
          ...................................................

 iter      E             dE          RMSdq      gap      omega  full diag
   1    -36.8709229 -0.368709E+02  0.400E+00    2.88       0.0  T
   2    -36.9911670 -0.120244E+00  0.264E+00    2.70       1.0  T
   3    -36.9938989 -0.273188E-02  0.138E+00    2.74       1.0  T
   4    -36.9949036 -0.100474E-02  0.101E+00    2.63       1.0  T
   5    -37.0061522 -0.112486E-01  0.232E-01    2.65       1.0  T
   6    -37.0063020 -0.149821E-03  0.140E-01    2.66       1.0  T
   7    -37.0065422 -0.240124E-03  0.443E-02    2.66       1.0  T
   8    -37.0065544 -0.122029E-04  0.227E-02    2.66       1.0  T
   9    -37.0065561 -0.168910E-05  0.138E-02    2.66       1.4  T
  10    -37.0065575 -0.143599E-05  0.553E-03    2.66       3.6  T
  11    -37.0065577 -0.186863E-06  0.296E-03    2.66       6.8  T
  12    -37.0065577 -0.334414E-07  0.876E-04    2.66      22.8  T
  13    -37.0065577 -0.397485E-08  0.404E-04    2.66      49.5  T

   *** convergence criteria satisfied after 13 iterations ***

         #    Occupation            Energy/Eh            Energy/eV
      -------------------------------------------------------------
         1        2.0000           -0.8884469             -24.1759
       ...           ...                  ...                  ...
        28        2.0000           -0.5550747             -15.1044
        29        2.0000           -0.5498673             -14.9627
        30        2.0000           -0.5397825             -14.6882
        31        2.0000           -0.5170969             -14.0709
        32        2.0000           -0.5157413             -14.0340
        33        2.0000           -0.4880373             -13.2802
        34        2.0000           -0.4722026             -12.8493 (HOMO)
        35                         -0.3744689             -10.1898 (LUMO)
        36                         -0.3323216              -9.0429
        37                         -0.3199494              -8.7063
        38                         -0.2916851              -7.9372
        39                         -0.2873372              -7.8188
       ...                                ...                  ...
        74                          0.5916974              16.1009
      -------------------------------------------------------------
                  HL-Gap            0.0977337 Eh            2.6595 eV
             Fermi-level           -0.4233358 Eh          -11.5196 eV

 SCC (total)                   0 d,  0 h,  0 min,  0.063 sec
 SCC setup                      ...        0 min,  0.000 sec (  0.362%)
 Dispersion                     ...        0 min,  0.000 sec (  0.688%)
 classical contributions        ...        0 min,  0.000 sec (  0.177%)
 integral evaluation            ...        0 min,  0.002 sec (  3.941%)
 iterations                     ...        0 min,  0.054 sec ( 85.291%)
 molecular gradient             ...        0 min,  0.005 sec (  8.047%)
 printout                       ...        0 min,  0.001 sec (  0.954%)

         :::::::::::::::::::::::::::::::::::::::::::::::::::::
         ::                     SUMMARY                     ::
         :::::::::::::::::::::::::::::::::::::::::::::::::::::
         :: total energy             -36.486408899613 Eh    ::
         :: gradient norm              0.055245709026 Eh/a0 ::
         :: HOMO-LUMO gap              2.659470635184 eV    ::
         ::.................................................::
         :: SCC energy               -37.006557722746 Eh    ::
         :: -> isotropic ES            0.107711943780 Eh    ::
         :: -> anisotropic ES         -0.017260566566 Eh    ::
         :: -> anisotropic XC          0.021329938076 Eh    ::
         :: -> dispersion             -0.024750474409 Eh    ::
         :: repulsion energy           0.520191208331 Eh    ::
         :: add. restraining           0.000000000000 Eh    ::
         :: total charge               1.000000000000 e     ::
         :::::::::::::::::::::::::::::::::::::::::::::::::::::

      ----------------------------------------------------------- 
     |                   =====================                   |
     |                        A N C O P T                        |
     |                   =====================                   |
     |               Approximate Normal Coordinate               |
     |                Rational Function Optimizer                |
      ----------------------------------------------------------- 

          ...................................................
          :                      SETUP                      :
          :.................................................:
          :   optimization level            normal          :
          :   max. optcycles                   200          :
          :   ANC micro-cycles                  20          :
          :   degrees of freedom                69          :
          :.................................................:
          :   RF solver                   davidson          :
          :   write xtbopt.log                true          :
          :   linear?                        false          :
          :   energy convergence         0.5000000E-05 Eh   :
          :   grad. convergence          0.1000000E-02 Eh/α :
          :   maximium RF displ.         1.0000000          :
          :   Hlow (freq-cutoff)         0.1000000E-01      :
          :   Hmax (freq-cutoff)         5.0000000          :
          :   S6 in model hess.         20.0000000          :
          ...................................................

generating ANC from model Hessian ...
Using Lindh-Hessian (1995)
 Shifting diagonal of input Hessian by    9.3322191561243089E-003
 Lowest  eigenvalues of input Hessian
    0.000000    0.000000    0.000000    0.000000    0.000000    0.000000
    0.010000    0.010690    0.011495    0.012571    0.013271    0.015110
    0.020793    0.022797    0.024444    0.026153    0.027296    0.031973
 Highest eigenvalues
    1.635364    1.657896    1.776076    1.799773    1.841345    1.918212


........................................................................
.............................. CYCLE    1 ..............................
........................................................................
   1    -37.0065577 -0.370066E+02  0.183E-04    2.66       0.0  T
   2    -37.0065577 -0.125823E-09  0.117E-04    2.66     170.6  T
   3    -37.0065577 -0.915037E-10  0.798E-05    2.66     250.6  T
     SCC iter.                  ...        0 min,  0.012 sec
     gradient                   ...        0 min,  0.005 sec
 * total energy  :   -36.4864089 Eh     change       -0.1674657E-08 Eh
   gradient norm :     0.0552475 Eh/α   predicted     0.0000000E+00 (-100.00%)
   displ. norm   :     0.2408075 α      lambda       -0.5532886E-02
   maximum displ.:     0.1166714 α      in ANC's #7, #5, #13, ...

........................................................................
.............................. CYCLE    2 ..............................
........................................................................
   1    -37.0292604 -0.370293E+02  0.173E-01    2.62       0.0  T
   2    -37.0293350 -0.746762E-04  0.116E-01    2.64       1.0  T
   3    -37.0293553 -0.202914E-04  0.629E-02    2.64       1.0  T
   4    -37.0293843 -0.289315E-04  0.284E-02    2.64       1.0  T
   5    -37.0293922 -0.794656E-05  0.106E-02    2.64       1.9  T
   6    -37.0293927 -0.437191E-06  0.557E-03    2.64       3.6  T
   7    -37.0293931 -0.425369E-06  0.213E-03    2.64       9.4  T
   8    -37.0293931  0.120812E-07  0.136E-03    2.64      14.8  T
   9    -37.0293931 -0.229581E-07  0.571E-04    2.64      35.0  T
  10    -37.0293931 -0.215474E-08  0.208E-04    2.64      96.2  T
     SCC iter.                  ...        0 min,  0.039 sec
     gradient                   ...        0 min,  0.004 sec
 * total energy  :   -36.4902581 Eh     change       -0.3849246E-02 Eh
   gradient norm :     0.0261985 Eh/α   predicted    -0.2927522E-02 ( -23.95%)
   displ. norm   :     0.3043498 α      lambda       -0.2308547E-02
   maximum displ.:     0.1536568 α      in ANC's #7, #5, #1, ...

........................................................................
.............................. CYCLE    3 ..............................
........................................................................
   1    -37.0392812 -0.370393E+02  0.166E-01    2.58       0.0  T
   2    -37.0393711 -0.899479E-04  0.112E-01    2.60       1.0  T
   3    -37.0394197 -0.485913E-04  0.610E-02    2.60       1.0  T
   4    -37.0394404 -0.206774E-04  0.280E-02    2.60       1.0  T
   5    -37.0394477 -0.726812E-05  0.107E-02    2.60       1.9  T
   6    -37.0394484 -0.697341E-06  0.563E-03    2.60       3.6  T
   7    -37.0394487 -0.346211E-06  0.227E-03    2.60       8.8  T
   8    -37.0394487  0.745640E-08  0.149E-03    2.60      13.4  T
   9    -37.0394487 -0.225869E-07  0.681E-04    2.60      29.4  T
  10    -37.0394487 -0.303876E-08  0.222E-04    2.60      90.1  T
     SCC iter.                  ...        0 min,  0.038 sec
     gradient                   ...        0 min,  0.004 sec
 * total energy  :   -36.4917839 Eh     change       -0.1525746E-02 Eh
   gradient norm :     0.0098099 Eh/α   predicted    -0.1261192E-02 ( -17.34%)
   displ. norm   :     0.3180611 α      lambda       -0.1009783E-02
   maximum displ.:     0.1528259 α      in ANC's #5, #1, #4, ...

........................................................................
.............................. CYCLE    4 ..............................
........................................................................
   1    -37.0382495 -0.370382E+02  0.152E-01    2.55       0.0  T
   2    -37.0382965 -0.470363E-04  0.956E-02    2.56       1.0  T
   3    -37.0382968 -0.331544E-06  0.586E-02    2.56       1.0  T
   4    -37.0383329 -0.360229E-04  0.190E-02    2.56       1.1  T
   5    -37.0383367 -0.381204E-05  0.690E-03    2.56       2.9  T
   6    -37.0383370 -0.386949E-06  0.381E-03    2.56       5.3  T
   7    -37.0383372 -0.158391E-06  0.161E-03    2.56      12.4  T
   8    -37.0383372  0.675371E-09  0.105E-03    2.56      19.1  T
   9    -37.0383372 -0.905790E-08  0.544E-04    2.56      36.8  T
  10    -37.0383372 -0.178269E-08  0.161E-04    2.56     123.9  T
     SCC iter.                  ...        0 min,  0.039 sec
     gradient                   ...        0 min,  0.003 sec
 * total energy  :   -36.4925431 Eh     change       -0.7591985E-03 Eh
   gradient norm :     0.0099832 Eh/α   predicted    -0.5559691E-03 ( -26.77%)
   displ. norm   :     0.3894922 α      lambda       -0.9002463E-03
   maximum displ.:     0.2180292 α      in ANC's #4, #1, #5, ...

........................................................................
.............................. CYCLE    5 ..............................
........................................................................
   1    -37.0331029 -0.370331E+02  0.181E-01    2.51       0.0  T
   2    -37.0331406 -0.376327E-04  0.106E-01    2.52       1.0  T
   3    -37.0330967  0.438268E-04  0.640E-02    2.52       1.0  T
   4    -37.0331592 -0.624977E-04  0.168E-02    2.52       1.2  T
   5    -37.0331628 -0.353026E-05  0.567E-03    2.52       3.5  T
   6    -37.0331630 -0.241395E-06  0.322E-03    2.52       6.2  T
   7    -37.0331631 -0.146977E-06  0.115E-03    2.52      17.4  T
   8    -37.0331631 -0.136065E-08  0.733E-04    2.52      27.3  T
   9    -37.0331632 -0.328566E-08  0.462E-04    2.52      43.3  T
     SCC iter.                  ...        0 min,  0.035 sec
     gradient                   ...        0 min,  0.003 sec
 * total energy  :   -36.4931682 Eh     change       -0.6251252E-03 Eh
   gradient norm :     0.0128217 Eh/α   predicted    -0.5184144E-03 ( -17.07%)
   displ. norm   :     0.2931187 α      lambda       -0.6126326E-03
   maximum displ.:     0.1848858 α      in ANC's #4, #1, #9, ...

........................................................................
.............................. CYCLE    6 ..............................
........................................................................
   1    -37.0308830 -0.370309E+02  0.125E-01    2.51       0.0  T
   2    -37.0308887 -0.574563E-05  0.711E-02    2.51       1.0  T
   3    -37.0308851  0.364528E-05  0.162E-02    2.51       1.2  T
   4    -37.0308887 -0.364725E-05  0.718E-03    2.51       2.8  T
   5    -37.0308897 -0.983950E-06  0.246E-03    2.51       8.1  T
   6    -37.0308898 -0.420918E-07  0.101E-03    2.51      19.8  T
   7    -37.0308898 -0.138820E-07  0.396E-04    2.51      50.5  T
   8    -37.0308898 -0.114520E-08  0.198E-04    2.51     100.9  T
     SCC iter.                  ...        0 min,  0.032 sec
     gradient                   ...        0 min,  0.003 sec
 * total energy  :   -36.4936429 Eh     change       -0.4747173E-03 Eh
   gradient norm :     0.0115788 Eh/α   predicted    -0.3327004E-03 ( -29.92%)
   displ. norm   :     0.3455480 α      lambda       -0.6867283E-03
   maximum displ.:     0.2270596 α      in ANC's #1, #4, #9, ...

........................................................................
.............................. CYCLE    7 ..............................
........................................................................
   1    -37.0314024 -0.370314E+02  0.129E-01    2.52       0.0  T
   2    -37.0314055 -0.309356E-05  0.756E-02    2.51       1.0  T
   3    -37.0313647  0.407892E-04  0.484E-02    2.52       1.0  T
   4    -37.0314124 -0.476753E-04  0.590E-03    2.51       3.4  T
   5    -37.0314126 -0.196022E-06  0.277E-03    2.51       7.2  T
   6    -37.0314126 -0.166821E-07  0.139E-03    2.51      14.4  T
   7    -37.0314126 -0.313253E-07  0.702E-04    2.51      28.5  T
   8    -37.0314126 -0.146476E-08  0.365E-04    2.51      54.8  T
     SCC iter.                  ...        0 min,  0.032 sec
     gradient                   ...        0 min,  0.005 sec
 * total energy  :   -36.4941488 Eh     change       -0.5058774E-03 Eh
   gradient norm :     0.0078741 Eh/α   predicted    -0.3843649E-03 ( -24.02%)
   displ. norm   :     0.3539178 α      lambda       -0.4472359E-03
   maximum displ.:     0.2432818 α      in ANC's #1, #4, #3, ...

........................................................................
.............................. CYCLE    8 ..............................
........................................................................
   1    -37.0321450 -0.370321E+02  0.126E-01    2.51       0.0  T
   2    -37.0321484 -0.336193E-05  0.721E-02    2.50       1.0  T
   3    -37.0321217  0.266857E-04  0.393E-02    2.51       1.0  T
   4    -37.0321523 -0.306009E-04  0.662E-03    2.51       3.0  T
   5    -37.0321525 -0.201516E-06  0.257E-03    2.51       7.8  T
   6    -37.0321526 -0.251562E-07  0.105E-03    2.51      19.1  T
   7    -37.0321526 -0.170065E-07  0.532E-04    2.51      37.6  T
   8    -37.0321526 -0.161288E-08  0.277E-04    2.51      72.2  T
     SCC iter.                  ...        0 min,  0.031 sec
     gradient                   ...        0 min,  0.004 sec
 * total energy  :   -36.4944653 Eh     change       -0.3164590E-03 Eh
   gradient norm :     0.0064331 Eh/α   predicted    -0.2516305E-03 ( -20.49%)
   displ. norm   :     0.2608072 α      lambda       -0.2842509E-03
   maximum displ.:     0.1792341 α      in ANC's #1, #3, #4, ...

........................................................................
.............................. CYCLE    9 ..............................
........................................................................
   1    -37.0368554 -0.370369E+02  0.956E-02    2.51       0.0  T
   2    -37.0368564 -0.101076E-05  0.572E-02    2.51       1.0  T
   3    -37.0368326  0.237778E-04  0.388E-02    2.51       1.0  T
   4    -37.0368618 -0.291636E-04  0.461E-03    2.51       4.3  T
   5    -37.0368617  0.447001E-07  0.259E-03    2.51       7.7  T
   6    -37.0368618 -0.129091E-06  0.714E-04    2.51      28.0  T
   7    -37.0368618 -0.369592E-08  0.433E-04    2.51      46.2  T
     SCC iter.                  ...        0 min,  0.028 sec
     gradient                   ...        0 min,  0.003 sec
 * total energy  :   -36.4946390 Eh     change       -0.1737593E-03 Eh
   gradient norm :     0.0055685 Eh/α   predicted    -0.1518083E-03 ( -12.63%)
   displ. norm   :     0.2921772 α      lambda       -0.2043076E-03
   maximum displ.:     0.2000589 α      in ANC's #1, #4, #3, ...

........................................................................
.............................. CYCLE   10 ..............................
........................................................................
   1    -37.0360702 -0.370361E+02  0.118E-01    2.49       0.0  T
   2    -37.0360745 -0.424411E-05  0.664E-02    2.49       1.0  T
   3    -37.0360694  0.509538E-05  0.185E-02    2.49       1.1  T
   4    -37.0360751 -0.573125E-05  0.724E-03    2.49       2.8  T
   5    -37.0360757 -0.572391E-06  0.281E-03    2.49       7.1  T
   6    -37.0360757 -0.418824E-07  0.119E-03    2.49      16.8  T
   7    -37.0360758 -0.294350E-07  0.382E-04    2.49      52.3  T
   8    -37.0360758 -0.408825E-09  0.199E-04    2.49     100.4  T
     SCC iter.                  ...        0 min,  0.032 sec
     gradient                   ...        0 min,  0.004 sec
 * total energy  :   -36.4947639 Eh     change       -0.1249102E-03 Eh
   gradient norm :     0.0047843 Eh/α   predicted    -0.1108802E-03 ( -11.23%)
   displ. norm   :     0.1650892 α      lambda       -0.1319144E-03
   maximum displ.:     0.1053412 α      in ANC's #1, #3, #4, ...

........................................................................
.............................. CYCLE   11 ..............................
........................................................................
   1    -37.0376628 -0.370377E+02  0.713E-02    2.49       0.0  T
   2    -37.0376634 -0.657362E-06  0.402E-02    2.49       1.0  T
   3    -37.0376632  0.273356E-06  0.651E-03    2.49       3.1  T
   4    -37.0376634 -0.251841E-06  0.375E-03    2.49       5.3  T
   5    -37.0376636 -0.182458E-06  0.139E-03    2.49      14.4  T
   6    -37.0376636 -0.240856E-07  0.473E-04    2.49      42.3  T
   7    -37.0376636 -0.162319E-08  0.278E-04    2.49      71.8  T
     SCC iter.                  ...        0 min,  0.027 sec
     gradient                   ...        0 min,  0.004 sec
 * total energy  :   -36.4948696 Eh     change       -0.1056274E-03 Eh
   gradient norm :     0.0037051 Eh/α   predicted    -0.6775887E-04 ( -35.85%)
   displ. norm   :     0.2530720 α      lambda       -0.1660914E-03
   maximum displ.:     0.1662813 α      in ANC's #3, #1, #2, ...

........................................................................
.............................. CYCLE   12 ..............................
........................................................................
   1    -37.0377245 -0.370377E+02  0.111E-01    2.49       0.0  T
   2    -37.0377257 -0.117681E-05  0.629E-02    2.49       1.0  T
   3    -37.0377246  0.109076E-05  0.105E-02    2.49       1.9  T
   4    -37.0377257 -0.112463E-05  0.559E-03    2.49       3.6  T
   5    -37.0377261 -0.378539E-06  0.158E-03    2.49      12.7  T
   6    -37.0377261 -0.282636E-07  0.707E-04    2.49      28.3  T
   7    -37.0377261 -0.555932E-08  0.360E-04    2.49      55.5  T
     SCC iter.                  ...        0 min,  0.027 sec
     gradient                   ...        0 min,  0.003 sec
 * total energy  :   -36.4949895 Eh     change       -0.1199398E-03 Eh
   gradient norm :     0.0041515 Eh/α   predicted    -0.8836487E-04 ( -26.33%)
   displ. norm   :     0.2048259 α      lambda       -0.9677524E-04
   maximum displ.:     0.1342738 α      in ANC's #3, #1, #9, ...

........................................................................
.............................. CYCLE   13 ..............................
........................................................................
   1    -37.0370147 -0.370370E+02  0.858E-02    2.49       0.0  T
   2    -37.0370154 -0.707216E-06  0.490E-02    2.49       1.0  T
   3    -37.0370133  0.213057E-05  0.117E-02    2.49       1.7  T
   4    -37.0370157 -0.241781E-05  0.402E-03    2.49       5.0  T
   5    -37.0370158 -0.100995E-06  0.132E-03    2.49      15.2  T
   6    -37.0370158 -0.207144E-07  0.557E-04    2.49      35.9  T
   7    -37.0370159 -0.392869E-08  0.265E-04    2.49      75.6  T
     SCC iter.                  ...        0 min,  0.026 sec
     gradient                   ...        0 min,  0.003 sec
 * total energy  :   -36.4950598 Eh     change       -0.7032319E-04 Eh
   gradient norm :     0.0041095 Eh/α   predicted    -0.5041997E-04 ( -28.30%)
   displ. norm   :     0.1700097 α      lambda       -0.7008224E-04
   maximum displ.:     0.1122750 α      in ANC's #3, #1, #2, ...

........................................................................
.............................. CYCLE   14 ..............................
........................................................................
   1    -37.0366814 -0.370367E+02  0.686E-02    2.49       0.0  T
   2    -37.0366819 -0.425453E-06  0.394E-02    2.49       1.0  T
   3    -37.0366810  0.867574E-06  0.775E-03    2.49       2.6  T
   4    -37.0366820 -0.963314E-06  0.325E-03    2.49       6.2  T
   5    -37.0366820 -0.949795E-07  0.826E-04    2.49      24.2  T
   6    -37.0366821 -0.874333E-08  0.315E-04    2.49      63.6  T
     SCC iter.                  ...        0 min,  0.021 sec
     gradient                   ...        0 min,  0.003 sec
 * total energy  :   -36.4951106 Eh     change       -0.5077333E-04 Eh
   gradient norm :     0.0028254 Eh/α   predicted    -0.3605435E-04 ( -28.99%)
   displ. norm   :     0.1713804 α      lambda       -0.5328667E-04
   maximum displ.:     0.1043519 α      in ANC's #3, #1, #2, ...

........................................................................
.............................. CYCLE   15 ..............................
........................................................................
   1    -37.0362198 -0.370362E+02  0.676E-02    2.48       0.0  T
   2    -37.0362203 -0.422581E-06  0.388E-02    2.48       1.0  T
   3    -37.0362180  0.224017E-05  0.107E-02    2.48       1.9  T
   4    -37.0362205 -0.247498E-05  0.329E-03    2.48       6.1  T
   5    -37.0362206 -0.778615E-07  0.986E-04    2.48      20.3  T
   6    -37.0362206 -0.121925E-07  0.374E-04    2.48      53.5  T
     SCC iter.                  ...        0 min,  0.021 sec
     gradient                   ...        0 min,  0.003 sec
 * total energy  :   -36.4951438 Eh     change       -0.3322003E-04 Eh
   gradient norm :     0.0022659 Eh/α   predicted    -0.2742748E-04 ( -17.44%)
   displ. norm   :     0.0695003 α      lambda       -0.1960529E-04
   maximum displ.:     0.0395660 α      in ANC's #3, #1, #2, ...

........................................................................
.............................. CYCLE   16 ..............................
........................................................................
   1    -37.0370702 -0.370371E+02  0.270E-02    2.48       0.0  T
   2    -37.0370704 -0.157241E-06  0.157E-02    2.48       1.3  T
   3    -37.0370687  0.164092E-05  0.968E-03    2.48       2.1  T
   4    -37.0370707 -0.195121E-05  0.149E-03    2.48      13.4  T
   5    -37.0370707 -0.901696E-08  0.822E-04    2.48      24.3  T
   6    -37.0370707 -0.782681E-08  0.308E-04    2.48      64.8  T
     SCC iter.                  ...        0 min,  0.022 sec
     gradient                   ...        0 min,  0.003 sec
 * total energy  :   -36.4951554 Eh     change       -0.1161231E-04 Eh
   gradient norm :     0.0015410 Eh/α   predicted    -0.9852740E-05 ( -15.15%)
   displ. norm   :     0.0891686 α      lambda       -0.8829718E-05
   maximum displ.:     0.0498866 α      in ANC's #1, #3, #2, ...

........................................................................
.............................. CYCLE   17 ..............................
........................................................................
   1    -37.0368227 -0.370368E+02  0.411E-02    2.48       0.0  T
   2    -37.0368229 -0.215504E-06  0.235E-02    2.47       1.0  T
   3    -37.0368212  0.168737E-05  0.947E-03    2.48       2.1  T
   4    -37.0368231 -0.187802E-05  0.221E-03    2.47       9.0  T
   5    -37.0368231 -0.272097E-07  0.714E-04    2.47      28.0  T
   6    -37.0368231 -0.414201E-08  0.327E-04    2.47      61.2  T
     SCC iter.                  ...        0 min,  0.022 sec
     gradient                   ...        0 min,  0.003 sec
 * total energy  :   -36.4951600 Eh     change       -0.4551436E-05 Eh
   gradient norm :     0.0017953 Eh/α   predicted    -0.4433932E-05 (  -2.58%)
   displ. norm   :     0.0318214 α      lambda       -0.6573245E-05
   maximum displ.:     0.0231675 α      in ANC's #1, #3, #5, ...

........................................................................
.............................. CYCLE   18 ..............................
........................................................................
   1    -37.0379262 -0.370379E+02  0.149E-02    2.48       0.0  T
   2    -37.0379263 -0.741676E-07  0.860E-03    2.48       2.3  T
   3    -37.0379261  0.202935E-06  0.351E-03    2.48       5.7  T
   4    -37.0379263 -0.243474E-06  0.742E-04    2.48      27.0  T
   5    -37.0379263 -0.228123E-08  0.442E-04    2.48      45.3  T
     SCC iter.                  ...        0 min,  0.018 sec
     gradient                   ...        0 min,  0.003 sec
 * total energy  :   -36.4951633 Eh     change       -0.3287424E-05 Eh
   gradient norm :     0.0010865 Eh/α   predicted    -0.3291880E-05 (   0.14%)
   displ. norm   :     0.0237354 α      lambda       -0.4965909E-05
   maximum displ.:     0.0154461 α      in ANC's #2, #3, #4, ...

........................................................................
.............................. CYCLE   19 ..............................
........................................................................
   1    -37.0374083 -0.370374E+02  0.144E-02    2.48       0.0  T
   2    -37.0374083 -0.478622E-07  0.801E-03    2.48       2.5  T
   3    -37.0374082  0.145053E-06  0.301E-03    2.48       6.6  T
   4    -37.0374084 -0.168992E-06  0.877E-04    2.48      22.8  T
   5    -37.0374084 -0.289847E-08  0.450E-04    2.48      44.5  T
     SCC iter.                  ...        0 min,  0.019 sec
     gradient                   ...        0 min,  0.004 sec
 * total energy  :   -36.4951671 Eh     change       -0.3811106E-05 Eh
   gradient norm :     0.0009033 Eh/α   predicted    -0.2485230E-05 ( -34.79%)
   displ. norm   :     0.0348532 α      lambda       -0.3786655E-05
   maximum displ.:     0.0278064 α      in ANC's #2, #3, #6, ...

   *** GEOMETRY OPTIMIZATION CONVERGED AFTER 19 ITERATIONS ***

------------------------------------------------------------------------
 total energy gain   :        -0.0087582 Eh       -5.4958 kcal/mol
 total RMSD          :         0.6294941 a0        0.3331 Å
 total power (kW/mol):        -1.2102430 (step)  -34.6137 (real)
------------------------------------------------------------------------

 ANCopt (total)                0 d,  0 h,  0 min,  0.664 sec
 optimizer setup                ...        0 min,  0.000 sec (  0.021%)
 model hessian                  ...        0 min,  0.006 sec (  0.962%)
 ANC generation                 ...        0 min,  0.002 sec (  0.351%)
 coordinate transformation      ...        0 min,  0.000 sec (  0.068%)
 single point calculation       ...        0 min,  0.646 sec ( 97.293%)
 optimization log               ...        0 min,  0.003 sec (  0.466%)
 hessian update                 ...        0 min,  0.001 sec (  0.097%)
 rational function              ...        0 min,  0.003 sec (  0.406%)

================
 final structure:
================
25
 xtb: 6.5.1 (fef0646)
N            3.22378771124510        1.33196206950846        0.93365906245802
C            2.66881482631526        0.11967750617769        0.26927366832775
C            3.03074797807548        0.14665985454129       -1.21859058775998
C            4.50873455965828        0.07035419805144       -1.41863594353810
C            5.26564740291406       -0.98675483461881       -1.81253528656224
C            6.64980220828867       -0.72027021843045       -1.81983605415339
C            6.97595386680034        0.54611361382567       -1.41623223560293
C            8.25948070230866        1.15309367216780       -1.27904118300559
C            9.47806706248919        0.65089152412336       -1.66835312178319
C           10.54350334995546        1.51672941501065       -1.36921019021242
C           10.14095307493937        2.66249431529319       -0.75626222836267
S            8.44552381670963        2.71821653216203       -0.53293602606373
S            5.52973914284558        1.45746582999422       -1.06526494187531
H            3.17720182346169        1.27124939199740        1.95538924500127
H            2.72290343389123        2.17233895422258        0.62302110334040
H            4.22404511041020        1.43185811967772        0.61646994215110
H            1.58750224519281        0.09365157922632        0.40512238955808
H            3.10902520587596       -0.76102808767303        0.73866478645221
H            2.62685504462973        1.05036496692032       -1.67991604787249
H            2.56532925981819       -0.71157390151750       -1.70240949821155
H            4.85121052606384       -1.93782726410941       -2.09437264628401
H            7.38787844034271       -1.44532729347282       -2.10614422031348
H            9.59923108455813       -0.29650804503435       -2.15951880075352
H           11.57001921700597        1.29967957263258       -1.60059375055848
H           10.73920290620472        3.48618852932247       -0.42100743437489

 Bond Distances (Angstroems)
 ---------------------------
N1-C2=1.4896         N1-H14=1.0246        N1-H15=1.0265        N1-H16=1.0541        C2-N1=1.4896         C2-C3=1.5315         
C2-H17=1.0901        C2-H18=1.0908        C3-C2=1.5315         C3-C4=1.4934         C3-H19=1.0921        C3-H20=1.0896        
C4-C3=1.4934         C4-C5=1.3585         C4-S13=1.7582        C5-C4=1.3585         C5-C6=1.4096         C5-H21=1.0750        
C6-C5=1.4096         C6-C7=1.3686         C6-H22=1.0735        C7-C6=1.3686         C7-C8=1.4264         C7-S13=1.7451        
C8-C7=1.4264         C8-C9=1.3743         C8-S12=1.7438        C9-C8=1.3743         C9-C10=1.4051        C9-H23=1.0740        
C10-C9=1.4051        C10-C11=1.3603       C10-H24=1.0744       C11-C10=1.3603       C11-S12=1.7110       C11-H25=1.0718       
S12-C8=1.7438        S12-C11=1.7110       S13-C4=1.7582        S13-C7=1.7451        H14-N1=1.0246        H15-N1=1.0265        
H16-N1=1.0541        H17-C2=1.0901        H18-C2=1.0908        H19-C3=1.0921        H20-C3=1.0896        H21-C5=1.0750        
H22-C6=1.0735        H23-C9=1.0740        H24-C10=1.0744       H25-C11=1.0718       
 C  H  Rav=1.0813 sigma=0.0085  Rmin=1.0718  Rmax=1.0921     9
 C  C  Rav=1.4142 sigma=0.0577  Rmin=1.3585  Rmax=1.5315     9
 N  H  Rav=1.0350 sigma=0.0135  Rmin=1.0246  Rmax=1.0541     3
 N  C  Rav=1.4896 sigma=0.0000  Rmin=1.4896  Rmax=1.4896     1
 S  C  Rav=1.7395 sigma=0.0174  Rmin=1.7110  Rmax=1.7582     4

 selected bond angles (degree)
 --------------------
H14-N1-C2=112.31               H15-N1-C2=110.46               H15-N1-H14=109.15              H16-N1-C2=107.24               
H16-N1-H14=110.42              H16-N1-H15=107.12              C3-C2-N1=109.32                H17-C2-N1=109.47               
H17-C2-C3=110.85               H18-C2-N1=108.35               H18-C2-C3=109.69               H18-C2-H17=109.11              
C4-C3-C2=111.29                H19-C3-C2=109.73               H19-C3-C4=110.59               H20-C3-C2=108.45               
H20-C3-C4=108.84               H20-C3-H19=107.83              C5-C4-C3=129.05                S13-C4-C3=120.50               
S13-C4-C5=110.40               C6-C5-C4=113.67                H21-C5-C4=123.34               H21-C5-C6=122.99               
C7-C6-C5=114.04                H22-C6-C5=123.29               H22-C6-C7=122.67               C8-C7-C6=129.54                
S13-C7-C6=110.19               S13-C7-C8=120.27               C9-C8-C7=127.96                S12-C8-C7=121.27               
S12-C8-C9=110.77               C10-C9-C8=112.76               H23-C9-C8=123.50               H23-C9-C10=123.74              
C11-C10-C9=112.99              H24-C10-C9=123.65              H24-C10-C11=123.36             

 selected dihedral angles (degree)
 ---------------------------------
C3-C2-N1-H14=191.67           C3-C2-N1-H15= 69.56           C3-C2-N1-H16=313.15           H17-C2-N1-H14= 70.07          
H17-C2-N1-H15=307.96          H17-C2-N1-H16=191.55          H18-C2-N1-H14=311.18          H18-C2-N1-H15=189.06          
H18-C2-N1-H16= 72.65          C4-C3-C2-N1= 63.85            C4-C3-C2-H17=184.62           C4-C3-C2-H18=305.17           
H19-C3-C2-N1=301.11           H19-C3-C2-H17= 61.88          H19-C3-C2-H18=182.44          H20-C3-C2-N1=183.55           
H20-C3-C2-H17=304.32          H20-C3-C2-H18= 64.88          C5-C4-C3-C2=103.66            C5-C4-C3-H19=225.90           
C5-C4-C3-H20=344.19           S13-C4-C3-C2=286.53           S13-C4-C3-H19= 48.77          S13-C4-C3-H20=167.06          
C6-C5-C4-C3=183.53            C6-C5-C4-S13=  0.90           H21-C5-C4-C3=  3.63           H21-C5-C4-S13=180.99          
C7-C6-C5-C4=  0.66            C7-C6-C5-H21=180.56           H22-C6-C5-C4=180.08           H22-C6-C5-H21=  0.00          
C8-C7-C6-C5=178.88            C8-C7-C6-H22=359.45           S13-C7-C6-C5=358.10           S13-C7-C6-H22=178.68          
C9-C8-C7-C6=  8.15            C9-C8-C7-S13=188.99           S12-C8-C7-C6=188.65           S12-C8-C7-S13=  9.49          
C10-C9-C8-C7=180.43           C10-C9-C8-S12=359.97          H23-C9-C8-C7=  1.15           H23-C9-C8-S12=180.69          
C11-C10-C9-C8=  0.17          C11-C10-C9-H23=179.45         H24-C10-C9-C8=180.25          H24-C10-C9-H23=359.53         
           -------------------------------------------------
          |                Final Singlepoint                |
           -------------------------------------------------

          ...................................................
          :                      SETUP                      :
          :.................................................:
          :  # basis functions                  76          :
          :  # atomic orbitals                  74          :
          :  # shells                           40          :
          :  # electrons                        68          :
          :  max. iterations                   250          :
          :  Hamiltonian                  GFN2-xTB          :
          :  restarted?                      false          :
          :  GBSA solvation                  false          :
          :  PC potential                    false          :
          :  electronic temp.          300.0000000     K    :
          :  accuracy                    1.0000000          :
          :  -> integral cutoff          0.2500000E+02      :
          :  -> integral neglect         0.1000000E-07      :
          :  -> SCF convergence          0.1000000E-05 Eh   :
          :  -> wf. convergence          0.1000000E-03 e    :
          :  Broyden damping             0.4000000          :
          ...................................................

 iter      E             dE          RMSdq      gap      omega  full diag
   1    -37.0374084 -0.370374E+02  0.110E-04    2.48       0.0  T
   2    -37.0374084 -0.371827E-10  0.850E-05    2.48     235.2  T
   3    -37.0374084 -0.107001E-09  0.448E-05    2.48     446.1  T

   *** convergence criteria satisfied after 3 iterations ***

         #    Occupation            Energy/Eh            Energy/eV
      -------------------------------------------------------------
         1        2.0000           -0.8774839             -23.8776
       ...           ...                  ...                  ...
        28        2.0000           -0.5630854             -15.3223
        29        2.0000           -0.5525526             -15.0357
        30        2.0000           -0.5462924             -14.8654
        31        2.0000           -0.5309913             -14.4490
        32        2.0000           -0.5238538             -14.2548
        33        2.0000           -0.4958665             -13.4932
        34        2.0000           -0.4768944             -12.9770 (HOMO)
        35                         -0.3858155             -10.4986 (LUMO)
        36                         -0.3462763              -9.4227
        37                         -0.3289615              -8.9515
        38                         -0.2964450              -8.0667
        39                         -0.2894035              -7.8751
       ...                                ...                  ...
        74                          0.6053823              16.4733
      -------------------------------------------------------------
                  HL-Gap            0.0910789 Eh            2.4784 eV
             Fermi-level           -0.4313550 Eh          -11.7378 eV

 SCC (total)                   0 d,  0 h,  0 min,  0.018 sec
 SCC setup                      ...        0 min,  0.000 sec (  0.511%)
 Dispersion                     ...        0 min,  0.000 sec (  1.188%)
 classical contributions        ...        0 min,  0.000 sec (  0.190%)
 integral evaluation            ...        0 min,  0.002 sec (  9.010%)
 iterations                     ...        0 min,  0.012 sec ( 65.472%)
 molecular gradient             ...        0 min,  0.003 sec ( 18.641%)
 printout                       ...        0 min,  0.001 sec (  3.988%)

         :::::::::::::::::::::::::::::::::::::::::::::::::::::
         ::                     SUMMARY                     ::
         :::::::::::::::::::::::::::::::::::::::::::::::::::::
         :: total energy             -36.495167090236 Eh    ::
         :: gradient norm              0.000902978122 Eh/a0 ::
         :: HOMO-LUMO gap              2.478381696730 eV    ::
         ::.................................................::
         :: SCC energy               -37.037408360388 Eh    ::
         :: -> isotropic ES            0.102738122909 Eh    ::
         :: -> anisotropic ES         -0.020851864709 Eh    ::
         :: -> anisotropic XC          0.020749586223 Eh    ::
         :: -> dispersion             -0.024906863327 Eh    ::
         :: repulsion energy           0.542274303836 Eh    ::
         :: add. restraining           0.000000000000 Eh    ::
         :: total charge               1.000000000000 e     ::
         :::::::::::::::::::::::::::::::::::::::::::::::::::::

           -------------------------------------------------
          |                Property Printout                |
           -------------------------------------------------

    * Orbital Energies and Occupations

         #    Occupation            Energy/Eh            Energy/eV
      -------------------------------------------------------------
         1        2.0000           -0.8774839             -23.8776
       ...           ...                  ...                  ...
        22        2.0000           -0.6095693             -16.5872
        23        2.0000           -0.5978533             -16.2684
        24        2.0000           -0.5808411             -15.8055
        25        2.0000           -0.5795569             -15.7705
        26        2.0000           -0.5793000             -15.7636
        27        2.0000           -0.5677356             -15.4489
        28        2.0000           -0.5630854             -15.3223
        29        2.0000           -0.5525526             -15.0357
        30        2.0000           -0.5462924             -14.8654
        31        2.0000           -0.5309913             -14.4490
        32        2.0000           -0.5238538             -14.2548
        33        2.0000           -0.4958665             -13.4932
        34        2.0000           -0.4768944             -12.9770 (HOMO)
        35                         -0.3858155             -10.4986 (LUMO)
        36                         -0.3462763              -9.4227
        37                         -0.3289615              -8.9515
        38                         -0.2964450              -8.0667
        39                         -0.2894035              -7.8751
        40                         -0.2617718              -7.1232
        41                         -0.2525007              -6.8709
        42                         -0.2347047              -6.3866
        43                         -0.2165520              -5.8927
        44                         -0.1578739              -4.2960
        45                         -0.1338788              -3.6430
       ...                                ...                  ...
        74                          0.6053823              16.4733
      -------------------------------------------------------------
                  HL-Gap            0.0910789 Eh            2.4784 eV
             Fermi-level           -0.4313550 Eh          -11.7378 eV

     #   Z          covCN         q      C6AA      α(0)
     1   7 N        3.482    -0.148    24.183     7.304
     2   6 C        3.732    -0.031    21.220     6.575
     3   6 C        3.822    -0.087    22.143     6.696
     4   6 C        2.984    -0.004    28.111     8.697
     5   6 C        3.096    -0.043    28.938     8.816
     6   6 C        3.112    -0.049    29.065     8.832
     7   6 C        3.012     0.034    27.214     8.557
     8   6 C        3.026     0.011    27.753     8.641
     9   6 C        3.104    -0.041    28.875     8.805
    10   6 C        3.116    -0.035    28.708     8.777
    11   6 C        2.939    -0.009    28.252     8.717
    12  16 S        2.352    -0.009   141.423    20.015
    13  16 S        2.392    -0.089   144.754    20.250
    14   1 H        0.859     0.264     0.831     1.428
    15   1 H        0.859     0.268     0.817     1.416
    16   1 H        0.876     0.285     0.757     1.362
    17   1 H        0.925     0.105     1.738     2.062
    18   1 H        0.924     0.107     1.722     2.052
    19   1 H        0.924     0.078     1.995     2.209
    20   1 H        0.925     0.100     1.789     2.092
    21   1 H        0.926     0.059     2.205     2.322
    22   1 H        0.926     0.060     2.198     2.319
    23   1 H        0.926     0.052     2.290     2.367
    24   1 H        0.926     0.059     2.209     2.324
    25   1 H        0.926     0.061     2.189     2.313

 Mol. C6AA /au·bohr⁶  :       9242.740152
 Mol. C8AA /au·bohr⁸  :     273475.231590
 Mol. α(0) /au        :        154.948309


Wiberg/Mayer (AO) data.
largest (>0.10) Wiberg bond orders for each atom

 ---------------------------------------------------------------------------
     #   Z sym  total        # sym  WBO       # sym  WBO       # sym  WBO
 ---------------------------------------------------------------------------
     1   7 N    3.661 --     2 C    0.940    14 H    0.916    15 H    0.912
                            16 H    0.836
     2   6 C    3.901 --     3 C    0.993    18 H    0.967    17 H    0.967
                             1 N    0.940
     3   6 C    3.982 --     4 C    1.022     2 C    0.993    19 H    0.962
                            20 H    0.956
     4   6 C    3.918 --     5 C    1.600    13 S    1.107     3 C    1.022
                             7 C    0.101
     5   6 C    3.988 --     4 C    1.600     6 C    1.282    21 H    0.960
     6   6 C    3.986 --     7 C    1.528     5 C    1.282    22 H    0.959
     7   6 C    3.948 --     6 C    1.528     8 C    1.159    13 S    1.090
                             4 C    0.101
     8   6 C    3.951 --     9 C    1.490     7 C    1.159    12 S    1.134
     9   6 C    3.986 --     8 C    1.490    10 C    1.312    23 H    0.963
    10   6 C    3.987 --    11 C    1.595     9 C    1.312    24 H    0.962
    11   6 C    3.935 --    10 C    1.595    12 S    1.208    25 H    0.969
    12  16 S    2.630 --    11 C    1.208     8 C    1.134
    13  16 S    2.574 --     4 C    1.107     7 C    1.090
    14   1 H    0.930 --     1 N    0.916
    15   1 H    0.928 --     1 N    0.912
    16   1 H    0.918 --     1 N    0.836
    17   1 H    0.988 --     2 C    0.967
    18   1 H    0.989 --     2 C    0.967
    19   1 H    0.993 --     3 C    0.962
    20   1 H    0.990 --     3 C    0.956
    21   1 H    0.996 --     5 C    0.960
    22   1 H    0.996 --     6 C    0.959
    23   1 H    0.997 --     9 C    0.963
    24   1 H    0.996 --    10 C    0.962
    25   1 H    0.996 --    11 C    0.969
 ---------------------------------------------------------------------------

Topologies differ in total number of bonds
Writing topology from bond orders to xtbtopo.mol

molecular dipole:
                 x           y           z       tot (Debye)
 q only:        7.224       1.843       0.924
   full:        7.891       1.727       0.667      20.601
molecular quadrupole (traceless):
                xx          xy          yy          xz          yz          zz
 q only:       66.819      21.493     -30.795       3.220       7.381     -36.023
  q+dip:       85.559      20.971     -40.061      -4.718       8.339     -45.498
   full:       84.805      21.510     -40.887      -4.325       7.474     -43.918

           -------------------------------------------------
          |                Geometry Summary                 |
           -------------------------------------------------

      molecular mass/u    :      210.3389260
   center of mass at/Å    :        6.5081812       1.0469294      -0.9302126
  moments of inertia/u·Å² :        0.3206043E+03   0.1479094E+04   0.1726598E+04
rotational constants/cm⁻¹ :        0.5258080E-01   0.1139727E-01   0.9763498E-02

 * 25 selected distances

     #   Z          #   Z                                           value/Å
     1   7 N        2   6 C                                       1.4896433
     2   6 C        3   6 C                                       1.5314908
     4   6 C        5   6 C                                       1.3585115
     5   6 C        6   6 C                                       1.4095929
     6   6 C        7   6 C                                       1.3685756
     7   6 C        8   6 C                                       1.4264248
     8   6 C        9   6 C                                       1.3743085
     9   6 C       10   6 C                                       1.4051038
    10   6 C       11   6 C                                       1.3603417
     8   6 C       12  16 S                                       1.7438162
    11   6 C       12  16 S                                       1.7109823
     4   6 C       13  16 S                                       1.7582379 (max)
     7   6 C       13  16 S                                       1.7450726
     1   7 N       14   1 H                                       1.0245921 (min)
     1   7 N       15   1 H                                       1.0264573
     1   7 N       16   1 H                                       1.0540888
     2   6 C       17   1 H                                       1.0901235
     2   6 C       18   1 H                                       1.0907593
     3   6 C       19   1 H                                       1.0920778
     3   6 C       20   1 H                                       1.0896149
     5   6 C       21   1 H                                       1.0750485
     6   6 C       22   1 H                                       1.0735161
     9   6 C       23   1 H                                       1.0740068
    10   6 C       24   1 H                                       1.0744226
    11   6 C       25   1 H                                       1.0718074

 * 5 distinct bonds (by element types)

   Z      Z             #   av. dist./Å        max./Å        min./Å
   1 H    6 C           9     1.0812641     1.0920778     1.0718074
   6 C    6 C           8     1.4042937     1.5314908     1.3585115
   1 H    7 N           3     1.0350461     1.0540888     1.0245921
   6 C    7 N           1     1.4896433     1.4896433     1.4896433
   6 C   16 S           4     1.7395273     1.7582379     1.7109823


optimized geometry written to: xtbopt.xyz


           -------------------------------------------------
          | TOTAL ENERGY              -36.495167090236 Eh   |
          | GRADIENT NORM               0.000902978122 Eh/α |
          | HOMO-LUMO GAP               2.478381696730 eV   |
           -------------------------------------------------

------------------------------------------------------------------------
 * finished run on 2023/01/23 at 14:06:25.139     
------------------------------------------------------------------------
 total:
 * wall-time:     0 d,  0 h,  0 min,  0.764 sec
 *  cpu-time:     0 d,  0 h,  1 min, 14.559 sec
 * ratio c/w:    97.650 speedup
 SCF:
 * wall-time:     0 d,  0 h,  0 min,  0.063 sec
 *  cpu-time:     0 d,  0 h,  0 min,  8.957 sec
 * ratio c/w:   141.463 speedup
 ANC optimizer:
 * wall-time:     0 d,  0 h,  0 min,  0.684 sec
 *  cpu-time:     0 d,  0 h,  1 min,  3.529 sec
 * ratio c/w:    92.945 speedup

