 Entering Gaussian System
 *********************************************
 Gaussian 98:
 frequency output generated by the xtb code
 *********************************************
                         Standard orientation:
 --------------------------------------------------------------------
  Center     Atomic     Atomic              Coordinates (Angstroms)
  Number     Number      Type              X           Y           Z
 --------------------------------------------------------------------
    1          7             0       -1.719632   -0.000122   -0.485264
    2          6             0       -0.867047    0.002236    0.739023
    3          6             0        0.649692    0.000037    0.463248
    4          6             0        1.095053   -1.267366   -0.273332
    5          6             0        1.097946    1.265364   -0.275166
    6          1             0       -1.551758   -0.832374   -1.068213
    7          1             0       -1.555190    0.832296   -1.068856
    8          1             0       -2.721481   -0.002206   -0.241881
    9          1             0       -1.129230   -0.869542    1.350886
   10          1             0       -1.127501    0.877778    1.346223
   11          1             0        1.155525    0.000136    1.446086
   12          1             0        0.781750   -2.170344    0.253921
   13          1             0        2.180972   -1.308382   -0.378285
   14          1             0        0.673809   -1.307596   -1.277900
   15          1             0        0.675192    1.305974   -1.279105
   16          1             0        2.183936    1.303018   -0.381550
   17          1             0        0.788182    2.169837    0.251563
 --------------------------------------------------------------------
     1 basis functions        1 primitive gaussians
     1 alpha electrons        1 beta electrons

 Harmonic frequencies (cm**-1), IR intensities (km*mol⁻¹),
 Raman scattering activities (A**4/amu), Raman depolarization ratios,
 reduced masses (AMU), force constants (mDyne/A) and normal coordinates:
                      1                      2                      3
                        a                      a                      a 
 Frequencies --   113.6210               147.9786               236.3532
 Red. masses --     6.7092                 2.4153                 9.2907
 Frc consts  --     0.0000                 0.0000                 0.0000
 IR Inten    --     9.0922                 4.0311                27.5217
 Raman Activ --     0.0000                 0.0000                 0.0000
 Depolar     --     0.0000                 0.0000                 0.0000
 Atom AN      X      Y      Z        X      Y      Z        X      Y      Z
   1   7     0.00   0.45  -0.00     0.00   0.17  -0.00    -0.60   0.00   0.10
   2   6    -0.00  -0.26   0.00    -0.00  -0.15   0.00    -0.06  -0.00  -0.21
   3   6     0.00  -0.05   0.00    -0.00  -0.06   0.00     0.00  -0.00  -0.10
   4   6     0.23  -0.09   0.21     0.18  -0.01   0.03     0.35   0.03   0.06
   5   6    -0.23  -0.09  -0.21    -0.19  -0.01  -0.03     0.35  -0.03   0.06
   6   1     0.11   0.28  -0.20    -0.42  -0.17   0.20    -0.26   0.00  -0.00
   7   1    -0.11   0.28   0.20     0.42  -0.17  -0.19    -0.26  -0.00  -0.00
   8   1     0.00  -0.07  -0.00    -0.00   0.58  -0.00    -0.13   0.00   0.17
   9   1     0.01  -0.17  -0.14    -0.02  -0.06  -0.04     0.01   0.00  -0.04
  10   1    -0.01  -0.17   0.14     0.02  -0.06   0.04     0.01  -0.00  -0.04
  11   1     0.00   0.05  -0.00     0.00   0.01  -0.00    -0.08   0.00   0.01
  12   1     0.16  -0.02   0.13     0.10  -0.01   0.02     0.10   0.00   0.01
  13   1     0.06   0.05   0.01     0.05   0.05  -0.00     0.11   0.06   0.09
  14   1     0.02  -0.13   0.08     0.03  -0.03   0.02     0.16  -0.02  -0.01
  15   1    -0.02  -0.13  -0.08    -0.03  -0.03  -0.02     0.17   0.02  -0.01
  16   1    -0.06   0.05  -0.01    -0.05   0.05   0.00     0.11  -0.05   0.10
  17   1    -0.16  -0.02  -0.13    -0.10  -0.01  -0.02     0.10  -0.00   0.00
                      4                      5                      6
                        a                      a                      a 
 Frequencies --   258.6639               264.5640               371.1053
 Red. masses --     1.6545                 1.6777                 7.1356
 Frc consts  --     0.0000                 0.0000                 0.0000
 IR Inten    --     0.4647                 0.0083                 0.1049
 Raman Activ --     0.0000                 0.0000                 0.0000
 Depolar     --     0.0000                 0.0000                 0.0000
 Atom AN      X      Y      Z        X      Y      Z        X      Y      Z
   1   7    -0.00   0.07   0.00    -0.04   0.00  -0.09    -0.00  -0.08  -0.00
   2   6    -0.00  -0.04   0.00    -0.00  -0.00  -0.10     0.00  -0.42  -0.00
   3   6    -0.00  -0.01   0.00     0.02  -0.00  -0.05     0.00   0.30  -0.00
   4   6     0.14  -0.02   0.08     0.02  -0.09   0.10    -0.32   0.14   0.14
   5   6    -0.13  -0.02  -0.09     0.01   0.09   0.10     0.32   0.15  -0.14
   6   1    -0.01   0.03  -0.02    -0.02  -0.00  -0.03    -0.09  -0.02  -0.03
   7   1     0.00   0.03   0.02    -0.02   0.00  -0.03     0.09  -0.02   0.03
   8   1    -0.00   0.02   0.00    -0.01   0.00  -0.01    -0.00   0.07   0.00
   9   1    -0.00  -0.02  -0.01    -0.00  -0.00  -0.03     0.15  -0.28  -0.17
  10   1     0.00  -0.02   0.01     0.00   0.00  -0.03    -0.15  -0.28   0.17
  11   1    -0.00   0.02   0.00     0.01   0.00  -0.01     0.00   0.10  -0.00
  12   1    -0.29  -0.01  -0.18     0.31   0.01   0.26    -0.18   0.09   0.07
  13   1     0.07  -0.18   0.39    -0.02   0.14  -0.28    -0.10  -0.08   0.03
  14   1     0.38   0.18  -0.12    -0.29  -0.26   0.16    -0.11   0.05   0.05
  15   1    -0.36   0.17   0.12    -0.31   0.27   0.17     0.11   0.06  -0.04
  16   1    -0.07  -0.17  -0.37    -0.02  -0.15  -0.30     0.10  -0.08  -0.03
  17   1     0.28  -0.01   0.16     0.33  -0.01   0.27     0.18   0.09  -0.06
                      7                      8                      9
                        a                      a                      a 
 Frequencies --   378.0188               543.5868               798.8968
 Red. masses --     7.2888                 7.7317                 8.5818
 Frc consts  --     0.0000                 0.0000                 0.0000
 IR Inten    --     1.5254                11.3923                11.0336
 Raman Activ --     0.0000                 0.0000                 0.0000
 Depolar     --     0.0000                 0.0000                 0.0000
 Atom AN      X      Y      Z        X      Y      Z        X      Y      Z
   1   7    -0.05   0.00   0.01    -0.15  -0.00  -0.17     0.26   0.00   0.13
   2   6     0.23   0.00  -0.17     0.26  -0.00  -0.27     0.34   0.00  -0.29
   3   6     0.18  -0.00  -0.27     0.38   0.00   0.43    -0.33   0.00  -0.23
   4   6    -0.12  -0.39   0.14    -0.12   0.14   0.05    -0.16   0.28   0.11
   5   6    -0.13   0.39   0.15    -0.12  -0.14   0.05    -0.16  -0.28   0.11
   6   1    -0.07   0.00  -0.01    -0.18  -0.00  -0.08    -0.09  -0.00  -0.01
   7   1    -0.07  -0.00  -0.01    -0.18   0.00  -0.08    -0.09   0.00  -0.01
   8   1     0.01  -0.00   0.09     0.01   0.00   0.18     0.13   0.00   0.29
   9   1     0.08   0.00  -0.04     0.04   0.00  -0.09     0.13  -0.00  -0.07
  10   1     0.09   0.00  -0.04     0.04  -0.00  -0.09     0.13   0.00  -0.07
  11   1     0.06  -0.00  -0.08     0.07   0.00   0.14    -0.12   0.00  -0.05
  12   1    -0.21  -0.00   0.13    -0.09   0.01  -0.06     0.01   0.09   0.08
  13   1    -0.03  -0.28   0.13    -0.06  -0.08  -0.13    -0.03   0.19   0.14
  14   1     0.03  -0.18   0.02    -0.17   0.22   0.06     0.05  -0.04  -0.00
  15   1     0.03   0.17   0.02    -0.17  -0.22   0.06     0.05   0.04  -0.00
  16   1    -0.04   0.29   0.13    -0.05   0.08  -0.13    -0.03  -0.19   0.14
  17   1    -0.21  -0.00   0.13    -0.09  -0.01  -0.06     0.01  -0.09   0.08
                     10                     11                     12
                        a                      a                      a 
 Frequencies --   810.6960               930.6164               958.5634
 Red. masses --     2.2498                 6.3405                 3.1587
 Frc consts  --     0.0000                 0.0000                 0.0000
 IR Inten    --    44.8382                35.0930                 2.0790
 Raman Activ --     0.0000                 0.0000                 0.0000
 Depolar     --     0.0000                 0.0000                 0.0000
 Atom AN      X      Y      Z        X      Y      Z        X      Y      Z
   1   7    -0.00   0.16  -0.00    -0.30   0.00  -0.03     0.00   0.03   0.00
   2   6    -0.00   0.26  -0.00     0.08  -0.00   0.06    -0.00  -0.03  -0.00
   3   6     0.00   0.02   0.00     0.24  -0.00  -0.25    -0.00  -0.17   0.00
   4   6     0.00  -0.08  -0.03    -0.02   0.34   0.08    -0.08  -0.04   0.27
   5   6    -0.00  -0.07   0.03    -0.03  -0.34   0.08     0.08  -0.04  -0.27
   6   1     0.23  -0.18   0.39     0.20   0.01   0.06     0.02  -0.01   0.03
   7   1    -0.23  -0.18  -0.39     0.20  -0.01   0.06    -0.02  -0.01  -0.03
   8   1     0.00  -0.13   0.00    -0.18  -0.00  -0.42    -0.00  -0.01  -0.00
   9   1     0.10  -0.22  -0.36     0.10   0.00   0.05    -0.03   0.00   0.01
  10   1    -0.10  -0.22   0.37     0.11  -0.00   0.05     0.03   0.00  -0.01
  11   1    -0.00  -0.04   0.00     0.09  -0.00  -0.07    -0.00   0.25   0.00
  12   1     0.04  -0.04  -0.02    -0.12   0.22   0.18     0.11  -0.26  -0.29
  13   1     0.01   0.04   0.02    -0.01  -0.06   0.03    -0.03   0.18  -0.08
  14   1     0.05  -0.04  -0.03    -0.03  -0.02   0.04    -0.08   0.39   0.08
  15   1    -0.05  -0.04   0.03    -0.03   0.02   0.04     0.08   0.39  -0.08
  16   1    -0.01   0.04  -0.03    -0.01   0.06   0.03     0.03   0.18   0.08
  17   1    -0.05  -0.04   0.02    -0.12  -0.22   0.18    -0.11  -0.26   0.29
                     13                     14                     15
                        a                      a                      a 
 Frequencies --   967.9062               973.3753               997.7559
 Red. masses --     8.6346                 2.9932                 5.4813
 Frc consts  --     0.0000                 0.0000                 0.0000
 IR Inten    --    15.9366                 5.5685                 1.2099
 Raman Activ --     0.0000                 0.0000                 0.0000
 Depolar     --     0.0000                 0.0000                 0.0000
 Atom AN      X      Y      Z        X      Y      Z        X      Y      Z
   1   7    -0.09  -0.00  -0.49    -0.00   0.16  -0.01    -0.00   0.14  -0.00
   2   6     0.22   0.00   0.58     0.00  -0.25   0.01     0.00  -0.31   0.00
   3   6     0.00  -0.00  -0.01    -0.00  -0.01   0.00    -0.00  -0.29   0.00
   4   6    -0.07   0.04  -0.03     0.20   0.06   0.02    -0.22   0.21   0.08
   5   6    -0.06  -0.04  -0.03    -0.20   0.06  -0.02     0.22   0.21  -0.08
   6   1    -0.22  -0.00  -0.17     0.14  -0.08   0.21     0.11  -0.06   0.16
   7   1    -0.22   0.00  -0.17    -0.15  -0.08  -0.21    -0.10  -0.06  -0.16
   8   1     0.04   0.00   0.14     0.00  -0.09   0.00    -0.00  -0.06  -0.00
   9   1    -0.02  -0.01   0.10    -0.28   0.06   0.05    -0.30   0.06   0.08
  10   1    -0.03   0.01   0.10     0.29   0.06  -0.05     0.30   0.06  -0.08
  11   1     0.24  -0.00  -0.12     0.00   0.17  -0.00    -0.00  -0.25   0.00
  12   1     0.03   0.02   0.04    -0.16   0.11   0.05     0.05   0.05   0.08
  13   1    -0.00   0.11   0.10     0.02  -0.32  -0.19    -0.04   0.24   0.19
  14   1     0.08  -0.10  -0.04    -0.17   0.13   0.09     0.10  -0.09  -0.03
  15   1     0.08   0.10  -0.04     0.17   0.13  -0.09    -0.10  -0.09   0.03
  16   1    -0.00  -0.10   0.10    -0.02  -0.33   0.20     0.04   0.24  -0.19
  17   1     0.03  -0.03   0.05     0.16   0.11  -0.05    -0.05   0.05  -0.08
                     16                     17                     18
                        a                      a                      a 
 Frequencies --  1020.0473              1116.4865              1168.6337
 Red. masses --     6.0105                 5.3983                 6.9569
 Frc consts  --     0.0000                 0.0000                 0.0000
 IR Inten    --    39.0201                13.6487                 0.0107
 Raman Activ --     0.0000                 0.0000                 0.0000
 Depolar     --     0.0000                 0.0000                 0.0000
 Atom AN      X      Y      Z        X      Y      Z        X      Y      Z
   1   7     0.28   0.00   0.07    -0.04   0.00   0.15     0.00   0.19  -0.00
   2   6    -0.47  -0.00  -0.00    -0.14  -0.00  -0.24     0.00  -0.32   0.00
   3   6     0.19  -0.00  -0.08     0.38   0.00   0.20     0.00   0.50  -0.00
   4   6     0.10   0.18  -0.07    -0.22  -0.02  -0.07    -0.08  -0.21  -0.15
   5   6     0.11  -0.18  -0.07    -0.22   0.02  -0.06     0.08  -0.21   0.15
   6   1    -0.15  -0.01  -0.03     0.07   0.01   0.05     0.08  -0.03   0.14
   7   1    -0.15   0.01  -0.03     0.07  -0.01   0.05    -0.08  -0.03  -0.14
   8   1     0.14   0.00   0.33    -0.03  -0.00  -0.04     0.00  -0.04   0.00
   9   1    -0.22   0.01  -0.03    -0.11   0.01  -0.08     0.02   0.08   0.24
  10   1    -0.22  -0.01  -0.03    -0.11  -0.01  -0.08    -0.02   0.08  -0.24
  11   1     0.13  -0.00  -0.06     0.39   0.00  -0.10    -0.00   0.39  -0.00
  12   1    -0.13   0.21   0.17     0.14  -0.05   0.02     0.10  -0.10  -0.06
  13   1     0.02  -0.18  -0.02    -0.02   0.25   0.20    -0.00   0.09   0.04
  14   1    -0.04  -0.08   0.02     0.18  -0.16  -0.10     0.11  -0.11  -0.09
  15   1    -0.04   0.08   0.02     0.18   0.16  -0.10    -0.11  -0.11   0.09
  16   1     0.02   0.18  -0.02    -0.02  -0.25   0.20     0.00   0.09  -0.04
  17   1    -0.13  -0.21   0.17     0.14   0.05   0.02    -0.10  -0.10   0.06
                     19                     20                     21
                        a                      a                      a 
 Frequencies --  1189.6710              1248.1305              1312.2668
 Red. masses --     7.0269                 2.4400                 4.7336
 Frc consts  --     0.0000                 0.0000                 0.0000
 IR Inten    --     2.5164                27.6951                 0.6575
 Raman Activ --     0.0000                 0.0000                 0.0000
 Depolar     --     0.0000                 0.0000                 0.0000
 Atom AN      X      Y      Z        X      Y      Z        X      Y      Z
   1   7     0.07   0.00  -0.02    -0.00   0.23  -0.00     0.07   0.00  -0.04
   2   6    -0.22  -0.00   0.05     0.00  -0.14   0.00    -0.13   0.00   0.14
   3   6     0.21  -0.00  -0.51    -0.00  -0.14   0.00     0.47  -0.00  -0.17
   4   6    -0.05  -0.02   0.30     0.05   0.07   0.08    -0.13  -0.02  -0.05
   5   6    -0.05   0.02   0.30    -0.05   0.07  -0.08    -0.13   0.02  -0.05
   6   1    -0.04  -0.02  -0.00     0.08  -0.03   0.15    -0.07  -0.01  -0.02
   7   1    -0.05   0.01  -0.00    -0.08  -0.03  -0.15    -0.07   0.01  -0.02
   8   1     0.03  -0.00   0.05     0.00  -0.06   0.00     0.02  -0.00   0.01
   9   1    -0.02  -0.00   0.02     0.48   0.04   0.31     0.04  -0.00   0.06
  10   1    -0.02   0.00   0.02    -0.48   0.04  -0.31     0.04   0.00   0.06
  11   1     0.21  -0.00  -0.21    -0.00  -0.36   0.00    -0.66   0.00   0.37
  12   1     0.05  -0.16  -0.17    -0.03   0.02   0.00     0.07   0.00   0.05
  13   1    -0.02   0.13  -0.07     0.00  -0.05  -0.03    -0.02   0.12   0.08
  14   1    -0.05   0.30   0.07    -0.05   0.06   0.04     0.06  -0.01  -0.04
  15   1    -0.05  -0.30   0.07     0.05   0.06  -0.04     0.06   0.01  -0.04
  16   1    -0.02  -0.13  -0.07    -0.00  -0.05   0.03    -0.02  -0.12   0.08
  17   1     0.05   0.16  -0.17     0.03   0.02  -0.00     0.07  -0.00   0.04
                     22                     23                     24
                        a                      a                      a 
 Frequencies --  1324.2993              1324.4058              1384.3754
 Red. masses --     4.8157                 3.6142                 2.9805
 Frc consts  --     0.0000                 0.0000                 0.0000
 IR Inten    --     3.5648                14.1618               207.3751
 Raman Activ --     0.0000                 0.0000                 0.0000
 Depolar     --     0.0000                 0.0000                 0.0000
 Atom AN      X      Y      Z        X      Y      Z        X      Y      Z
   1   7    -0.00  -0.04   0.04     0.02  -0.01  -0.19    -0.25  -0.00  -0.28
   2   6     0.08  -0.06   0.02    -0.39  -0.01  -0.09     0.09  -0.00   0.02
   3   6     0.00   0.53  -0.03    -0.01   0.11   0.13     0.03  -0.00  -0.05
   4   6     0.04  -0.10   0.12    -0.00  -0.01   0.01    -0.01   0.00   0.01
   5   6    -0.04  -0.10  -0.11    -0.02  -0.03  -0.04    -0.01  -0.00   0.01
   6   1     0.00   0.02  -0.03     0.02  -0.08   0.07     0.38  -0.12   0.27
   7   1    -0.01  -0.01  -0.00     0.02   0.08   0.08     0.38   0.13   0.27
   8   1    -0.01   0.02  -0.04     0.06   0.01   0.18     0.12   0.00   0.55
   9   1    -0.29   0.02  -0.08     0.50  -0.02   0.20    -0.16   0.04  -0.00
  10   1     0.06   0.01  -0.01     0.57   0.02   0.21    -0.16  -0.04  -0.00
  11   1    -0.03  -0.69   0.01     0.12  -0.15  -0.03    -0.07   0.00   0.03
  12   1     0.03  -0.11  -0.11     0.03  -0.03  -0.03     0.01   0.00   0.01
  13   1     0.00  -0.01  -0.10    -0.00  -0.03  -0.01    -0.00  -0.00  -0.02
  14   1     0.01   0.07   0.02     0.03  -0.03  -0.01     0.02   0.02  -0.01
  15   1    -0.02   0.05  -0.01     0.02   0.06  -0.02     0.02  -0.02  -0.01
  16   1    -0.00  -0.03   0.10    -0.00   0.03   0.03    -0.00   0.00  -0.02
  17   1    -0.04  -0.12   0.11     0.01  -0.02   0.02     0.01  -0.00   0.01
                     25                     26                     27
                        a                      a                      a 
 Frequencies --  1428.3535              1431.0174              1435.8312
 Red. masses --     2.9540                 2.0604                 1.8077
 Frc consts  --     0.0000                 0.0000                 0.0000
 IR Inten    --     0.0056                80.5430                90.3484
 Raman Activ --     0.0000                 0.0000                 0.0000
 Depolar     --     0.0000                 0.0000                 0.0000
 Atom AN      X      Y      Z        X      Y      Z        X      Y      Z
   1   7    -0.00  -0.08   0.00    -0.12   0.00   0.12    -0.00   0.20  -0.00
   2   6    -0.00   0.00   0.00    -0.06   0.00   0.05     0.00   0.03  -0.00
   3   6     0.00  -0.07  -0.00     0.05   0.00  -0.03    -0.00  -0.00  -0.00
   4   6    -0.09   0.25   0.11    -0.05   0.12   0.08    -0.03   0.10   0.03
   5   6     0.09   0.25  -0.11    -0.05  -0.13   0.08     0.03   0.10  -0.03
   6   1     0.15   0.03  -0.02     0.23   0.33  -0.39    -0.40  -0.08   0.03
   7   1    -0.15   0.03   0.01     0.24  -0.33  -0.39     0.40  -0.07  -0.02
   8   1    -0.00   0.28   0.00     0.04  -0.00   0.23     0.00  -0.69   0.00
   9   1     0.02   0.00   0.01     0.05  -0.05  -0.03    -0.02  -0.00  -0.02
  10   1    -0.01   0.00  -0.01     0.05   0.05  -0.03     0.02  -0.00   0.02
  11   1    -0.00   0.07   0.00    -0.04  -0.00   0.02    -0.00   0.01  -0.00
  12   1     0.18  -0.19  -0.24     0.07  -0.10  -0.15     0.08  -0.09  -0.11
  13   1    -0.03  -0.32  -0.12    -0.02  -0.15  -0.09    -0.01  -0.13  -0.01
  14   1     0.14  -0.29  -0.04     0.08  -0.17  -0.02     0.02  -0.12   0.00
  15   1    -0.14  -0.29   0.04     0.09   0.17  -0.02    -0.02  -0.12  -0.00
  16   1     0.03  -0.32   0.11    -0.02   0.15  -0.09     0.01  -0.13   0.01
  17   1    -0.18  -0.18   0.24     0.07   0.11  -0.15    -0.08  -0.09   0.11
                     28                     29                     30
                        a                      a                      a 
 Frequencies --  1445.1995              1475.3819              1492.5352
 Red. masses --     2.5694                 1.8688                 1.5474
 Frc consts  --     0.0000                 0.0000                 0.0000
 IR Inten    --     5.3513                19.5110                 2.6844
 Raman Activ --     0.0000                 0.0000                 0.0000
 Depolar     --     0.0000                 0.0000                 0.0000
 Atom AN      X      Y      Z        X      Y      Z        X      Y      Z
   1   7     0.08   0.00  -0.06     0.02  -0.00  -0.01     0.00  -0.01  -0.00
   2   6     0.04   0.00   0.04     0.10  -0.00  -0.25    -0.00  -0.01  -0.00
   3   6     0.01   0.00  -0.03     0.01  -0.00  -0.01     0.00   0.01   0.00
   4   6    -0.09   0.21   0.11    -0.00   0.04   0.04     0.15   0.03   0.04
   5   6    -0.09  -0.21   0.11    -0.00  -0.04   0.04    -0.15   0.04  -0.04
   6   1    -0.16  -0.19   0.23    -0.04   0.01  -0.04     0.02  -0.00   0.01
   7   1    -0.16   0.19   0.23    -0.04  -0.01  -0.04    -0.02  -0.00  -0.01
   8   1    -0.03  -0.00  -0.14    -0.01   0.00  -0.04    -0.00   0.02  -0.00
   9   1    -0.04  -0.06  -0.10    -0.16   0.41   0.50    -0.01  -0.00   0.00
  10   1    -0.04   0.06  -0.10    -0.16  -0.40   0.50     0.01  -0.00  -0.00
  11   1    -0.04  -0.00   0.01    -0.01   0.00   0.00    -0.00   0.03   0.00
  12   1     0.19  -0.17  -0.20    -0.02  -0.04  -0.08    -0.38  -0.05  -0.31
  13   1    -0.03  -0.31  -0.11    -0.01  -0.01  -0.06     0.02   0.24   0.03
  14   1     0.14  -0.24  -0.04     0.03  -0.09  -0.00    -0.23  -0.33   0.11
  15   1     0.14   0.24  -0.04     0.03   0.09  -0.00     0.23  -0.33  -0.11
  16   1    -0.03   0.31  -0.11    -0.01   0.01  -0.06    -0.02   0.24  -0.04
  17   1     0.19   0.17  -0.20    -0.02   0.04  -0.08     0.37  -0.05   0.31
                     31                     32                     33
                        a                      a                      a 
 Frequencies --  1503.3679              1503.6147              1511.4827
 Red. masses --     1.5868                 1.5660                 1.5141
 Frc consts  --     0.0000                 0.0000                 0.0000
 IR Inten    --     1.8588                 5.5482                21.1982
 Raman Activ --     0.0000                 0.0000                 0.0000
 Depolar     --     0.0000                 0.0000                 0.0000
 Atom AN      X      Y      Z        X      Y      Z        X      Y      Z
   1   7    -0.00   0.02  -0.00    -0.00  -0.00  -0.02    -0.01  -0.00   0.00
   2   6    -0.00   0.01   0.00    -0.02  -0.00   0.03     0.01  -0.00  -0.02
   3   6     0.01  -0.07  -0.00     0.09   0.01  -0.01    -0.00   0.00  -0.06
   4   6    -0.01  -0.03   0.15     0.13   0.06  -0.00    -0.00   0.06  -0.13
   5   6     0.05  -0.05  -0.14     0.13  -0.05   0.04    -0.00  -0.06  -0.13
   6   1    -0.04  -0.01   0.01     0.01  -0.03   0.05     0.03   0.02  -0.02
   7   1     0.04  -0.00   0.01     0.00   0.03   0.05     0.03  -0.02  -0.02
   8   1     0.00  -0.05   0.00     0.00   0.01   0.02     0.01   0.00   0.03
   9   1     0.01  -0.01  -0.01     0.01  -0.04  -0.05    -0.02   0.04   0.05
  10   1    -0.01   0.00  -0.01     0.01   0.04  -0.05    -0.02  -0.04   0.05
  11   1    -0.01   0.05   0.00    -0.03  -0.01   0.03     0.01  -0.00  -0.02
  12   1    -0.27   0.08   0.00    -0.28  -0.09  -0.32     0.29  -0.10  -0.02
  13   1    -0.04   0.19  -0.44     0.03   0.18   0.19     0.03  -0.22   0.45
  14   1     0.32  -0.09  -0.12    -0.33  -0.31   0.15    -0.32   0.08   0.12
  15   1    -0.41   0.01   0.16    -0.22   0.33   0.11    -0.32  -0.08   0.12
  16   1     0.05   0.13   0.48     0.02  -0.23   0.05     0.03   0.22   0.44
  17   1     0.18   0.11  -0.10    -0.35   0.06  -0.31     0.29   0.10  -0.01
                     34                     35                     36
                        a                      a                      a 
 Frequencies --  2860.7747              2956.2915              2980.7230
 Red. masses --     1.7648                 1.9825                 1.5193
 Frc consts  --     0.0000                 0.0000                 0.0000
 IR Inten    --     4.7564                 1.4091                 2.7571
 Raman Activ --     0.0000                 0.0000                 0.0000
 Depolar     --     0.0000                 0.0000                 0.0000
 Atom AN      X      Y      Z        X      Y      Z        X      Y      Z
   1   7     0.00   0.00   0.00     0.00   0.00  -0.00     0.00  -0.00  -0.00
   2   6    -0.01  -0.00  -0.00    -0.00  -0.30   0.00    -0.08   0.00   0.20
   3   6    -0.12  -0.00  -0.23     0.00  -0.01   0.00    -0.00   0.00   0.01
   4   6     0.01  -0.00   0.00     0.01   0.01  -0.00     0.00   0.00  -0.01
   5   6     0.01   0.00   0.00    -0.01   0.01   0.00     0.00  -0.00  -0.01
   6   1     0.00  -0.00  -0.00     0.00  -0.01  -0.01    -0.00   0.02   0.01
   7   1     0.00   0.00  -0.00    -0.00  -0.01   0.01    -0.00  -0.02   0.01
   8   1    -0.00  -0.00   0.00    -0.00   0.00   0.00    -0.00   0.00   0.00
   9   1     0.00   0.02  -0.01     0.16   0.53  -0.38     0.15   0.57  -0.36
  10   1     0.00  -0.02  -0.01    -0.16   0.53   0.38     0.15  -0.57  -0.36
  11   1     0.44   0.00   0.85    -0.00   0.00  -0.00    -0.01   0.00  -0.02
  12   1     0.01   0.01  -0.00    -0.01  -0.03   0.02    -0.01  -0.01   0.01
  13   1    -0.01  -0.00   0.00    -0.01   0.00  -0.00    -0.02   0.00   0.00
  14   1    -0.02  -0.00  -0.04    -0.00   0.00  -0.00     0.01   0.00   0.03
  15   1    -0.02   0.00  -0.04     0.00   0.00   0.00     0.01  -0.00   0.03
  16   1    -0.01   0.00   0.00     0.01   0.00   0.00    -0.02  -0.00   0.00
  17   1     0.01  -0.01  -0.00     0.01  -0.03  -0.02    -0.01   0.01   0.01
                     37                     38                     39
                        a                      a                      a 
 Frequencies --  3001.7616              3006.2549              3006.4784
 Red. masses --     1.9545                 1.9199                 1.8801
 Frc consts  --     0.0000                 0.0000                 0.0000
 IR Inten    --    12.4982                 7.3797                23.0396
 Raman Activ --     0.0000                 0.0000                 0.0000
 Depolar     --     0.0000                 0.0000                 0.0000
 Atom AN      X      Y      Z        X      Y      Z        X      Y      Z
   1   7    -0.00   0.00   0.00     0.00   0.00  -0.00    -0.00   0.00   0.00
   2   6    -0.00  -0.01   0.00     0.00   0.01  -0.00    -0.00   0.00   0.01
   3   6    -0.00  -0.01   0.00    -0.00   0.00  -0.00    -0.00   0.00   0.01
   4   6    -0.01  -0.11   0.18     0.18   0.06   0.04    -0.05  -0.13   0.13
   5   6     0.01  -0.11  -0.17    -0.20   0.05  -0.06    -0.06   0.14   0.13
   6   1     0.00  -0.01  -0.00    -0.00  -0.01  -0.01    -0.00  -0.00   0.00
   7   1    -0.00  -0.01   0.00     0.00  -0.01   0.01    -0.00   0.00   0.00
   8   1     0.00  -0.00  -0.00    -0.00   0.00   0.00     0.00   0.00  -0.00
   9   1     0.01   0.02  -0.01    -0.01  -0.02   0.01     0.01   0.02  -0.01
  10   1    -0.01   0.02   0.01     0.01  -0.02  -0.01     0.01  -0.02  -0.02
  11   1    -0.00   0.00  -0.00     0.00   0.00   0.00    -0.01   0.00  -0.02
  12   1     0.16   0.43  -0.25    -0.06  -0.23   0.16     0.18   0.52  -0.31
  13   1     0.07  -0.02   0.02    -0.44   0.02   0.05     0.08  -0.02   0.01
  14   1    -0.18  -0.02  -0.39    -0.13   0.00  -0.35    -0.09  -0.02  -0.17
  15   1     0.18  -0.02   0.39     0.15  -0.00   0.40    -0.09   0.02  -0.16
  16   1    -0.07  -0.02  -0.02     0.49   0.01  -0.05     0.12   0.02   0.01
  17   1    -0.15   0.42   0.24     0.04  -0.20  -0.14     0.19  -0.54  -0.32
                     40                     41                     42
                        a                      a                      a 
 Frequencies --  3009.6623              3020.9048              3022.8042
 Red. masses --     1.9136                 1.2952                 1.3525
 Frc consts  --     0.0000                 0.0000                 0.0000
 IR Inten    --    46.0267                13.6947                16.9289
 Raman Activ --     0.0000                 0.0000                 0.0000
 Depolar     --     0.0000                 0.0000                 0.0000
 Atom AN      X      Y      Z        X      Y      Z        X      Y      Z
   1   7     0.00  -0.00  -0.00     0.00  -0.00   0.00     0.00   0.00   0.00
   2   6     0.00  -0.00  -0.00    -0.00  -0.01   0.00    -0.00   0.00   0.01
   3   6    -0.01  -0.00  -0.02    -0.00  -0.01   0.00    -0.00   0.00   0.01
   4   6    -0.18  -0.02  -0.11     0.06  -0.07  -0.04    -0.09   0.06   0.08
   5   6    -0.16   0.02  -0.10    -0.07  -0.09   0.06    -0.07  -0.04   0.07
   6   1     0.00   0.01   0.01     0.00   0.01   0.01    -0.00  -0.01  -0.01
   7   1     0.00  -0.00   0.00    -0.00   0.01  -0.01    -0.00   0.01  -0.00
   8   1    -0.00  -0.00   0.00    -0.00  -0.00   0.00    -0.00   0.00   0.00
   9   1    -0.00  -0.01   0.00     0.00   0.01  -0.01     0.01   0.02  -0.01
  10   1    -0.00   0.01   0.01    -0.00   0.01   0.01     0.01  -0.02  -0.01
  11   1     0.03  -0.00   0.04    -0.00  -0.00  -0.00    -0.01   0.00  -0.01
  12   1     0.01   0.09  -0.07     0.10   0.26  -0.17    -0.08  -0.20   0.13
  13   1     0.43  -0.01  -0.06    -0.43   0.00   0.03     0.59  -0.01  -0.04
  14   1     0.20   0.01   0.51     0.12  -0.00   0.27    -0.18  -0.01  -0.39
  15   1     0.18  -0.01   0.46    -0.16  -0.00  -0.36    -0.15   0.01  -0.32
  16   1     0.40   0.01  -0.05     0.54   0.00  -0.04     0.46   0.01  -0.03
  17   1    -0.00  -0.06  -0.05    -0.12   0.31   0.20    -0.06   0.14   0.10
                     43                     44                     45
                        a                      a                      a 
 Frequencies --  3206.7776              3214.2012              3235.8348
 Red. masses --     2.0261                 2.0434                 1.2779
 Frc consts  --     0.0000                 0.0000                 0.0000
 IR Inten    --    95.4685                93.8217                23.2354
 Raman Activ --     0.0000                 0.0000                 0.0000
 Depolar     --     0.0000                 0.0000                 0.0000
 Atom AN      X      Y      Z        X      Y      Z        X      Y      Z
   1   7    -0.23   0.01   0.16    -0.01  -0.28   0.00    -0.07   0.00  -0.12
   2   6    -0.00   0.00   0.01    -0.00  -0.01   0.00    -0.00   0.00  -0.01
   3   6     0.00  -0.00  -0.00     0.00   0.00  -0.00     0.00  -0.00  -0.00
   4   6    -0.00   0.00  -0.00     0.00   0.00   0.00     0.00   0.00   0.00
   5   6    -0.00  -0.00  -0.00    -0.00   0.00  -0.00     0.00  -0.00   0.00
   6   1     0.05  -0.32  -0.20    -0.12   0.54   0.38    -0.11   0.48   0.31
   7   1     0.04   0.28  -0.17     0.12   0.55  -0.39    -0.11  -0.50   0.32
   8   1     0.79   0.00  -0.21     0.04  -0.03  -0.01     0.50   0.00  -0.15
   9   1     0.00   0.01  -0.01     0.00   0.01  -0.01    -0.00  -0.01   0.01
  10   1     0.00  -0.01  -0.01    -0.00   0.01   0.01    -0.00   0.01   0.01
  11   1    -0.00  -0.00   0.00     0.00   0.00   0.00     0.00  -0.00   0.00
  12   1    -0.00  -0.00  -0.00    -0.00  -0.00   0.00    -0.00  -0.00   0.00
  13   1     0.00   0.00  -0.00     0.00   0.00  -0.00     0.00  -0.00  -0.00
  14   1     0.00  -0.00   0.01    -0.00   0.00  -0.01    -0.00   0.00  -0.01
  15   1     0.00   0.00   0.00     0.00   0.00   0.01    -0.00  -0.00  -0.01
  16   1     0.00  -0.00  -0.00    -0.00   0.00   0.00     0.00   0.00  -0.00
  17   1    -0.00   0.00  -0.00     0.00  -0.00  -0.00    -0.00   0.00   0.00
