 Entering Gaussian System
 *********************************************
 Gaussian 98:
 frequency output generated by the xtb code
 *********************************************
                         Standard orientation:
 --------------------------------------------------------------------
  Center     Atomic     Atomic              Coordinates (Angstroms)
  Number     Number      Type              X           Y           Z
 --------------------------------------------------------------------
    1          7             0       -2.515042   -0.938025    0.857840
    2          6             0       -2.246740   -1.590119   -0.455869
    3          6             0       -0.789303   -1.995837   -0.653564
    4          6             0        0.218654   -0.820032   -0.611069
    5          6             0        1.412369   -1.056490   -1.570113
    6          6             0        2.392235    0.129195   -1.557009
    7          6             0        2.905282    0.406025   -0.133491
    8          6             0        1.734506    0.637602    0.836173
    9          6             0        0.757950   -0.549923    0.816238
   10         17             0       -1.312085    2.344909    0.890271
   11          1             0       -2.081997    0.001652    0.907417
   12          1             0       -2.139772   -1.503376    1.637960
   13          1             0       -3.528201   -0.810820    1.025944
   14          1             0       -2.554109   -0.915439   -1.261780
   15          1             0       -2.893315   -2.472766   -0.554986
   16          1             0       -0.687459   -2.516149   -1.615463
   17          1             0       -0.502124   -2.737397    0.100867
   18          1             0       -0.300363    0.089300   -0.954749
   19          1             0        1.049774   -1.256620   -2.587102
   20          1             0        1.934335   -1.969803   -1.261213
   21          1             0        1.884099    1.023537   -1.939839
   22          1             0        3.229292   -0.048871   -2.246721
   23          1             0        3.594177    1.262141   -0.125955
   24          1             0        3.499359   -0.449828    0.211639
   25          1             0        1.200670    1.551425    0.546133
   26          1             0        2.100911    0.824992    1.855371
   27          1             0       -0.064167   -0.395587    1.524881
   28          1             0        1.274367   -1.450725    1.168518
 --------------------------------------------------------------------
     1 basis functions        1 primitive gaussians
     1 alpha electrons        1 beta electrons

 Harmonic frequencies (cm**-1), IR intensities (km*mol⁻¹),
 Raman scattering activities (A**4/amu), Raman depolarization ratios,
 reduced masses (AMU), force constants (mDyne/A) and normal coordinates:
                      1                      2                      3
                        a                      a                      a 
 Frequencies --  -134.9822                56.7466               102.1070
 Red. masses --    22.5394                15.9857                24.6112
 Frc consts  --     0.0000                 0.0000                 0.0000
 IR Inten    --   120.1838                 6.0549                21.9932
 Raman Activ --     0.0000                 0.0000                 0.0000
 Depolar     --     0.0000                 0.0000                 0.0000
 Atom AN      X      Y      Z        X      Y      Z        X      Y      Z
   1   7    -0.14  -0.54   0.04    -0.11  -0.07  -0.01    -0.17  -0.11  -0.02
   2   6    -0.01  -0.22  -0.08     0.02   0.08  -0.06    -0.07  -0.01  -0.04
   3   6     0.03  -0.10  -0.05     0.02   0.05  -0.00    -0.04   0.05   0.05
   4   6    -0.03  -0.04  -0.01     0.07   0.01  -0.12    -0.09   0.10   0.01
   5   6    -0.01  -0.00   0.00     0.16  -0.24   0.05    -0.03   0.02   0.10
   6   6    -0.04   0.02   0.01     0.24  -0.31  -0.07    -0.03   0.02   0.03
   7   6    -0.06   0.03   0.02     0.11  -0.08  -0.07    -0.10   0.16   0.02
   8   6    -0.08   0.00   0.00     0.02   0.20  -0.24    -0.15   0.25  -0.06
   9   6    -0.06  -0.02  -0.01    -0.09   0.29  -0.12    -0.17   0.27   0.01
  10  17     0.27   0.64   0.04    -0.29   0.06   0.43     0.58  -0.49  -0.05
  11   1    -0.00  -0.19   0.08    -0.05  -0.01   0.04     0.02  -0.06   0.03
  12   1    -0.08  -0.20  -0.01    -0.04  -0.04  -0.01    -0.11  -0.07  -0.01
  13   1    -0.04  -0.12  -0.02    -0.03  -0.03  -0.02    -0.04   0.02  -0.04
  14   1     0.00  -0.02   0.01     0.03   0.05  -0.00    -0.01   0.01  -0.01
  15   1     0.01  -0.07  -0.08     0.00   0.03  -0.06    -0.01  -0.01  -0.04
  16   1     0.02  -0.02  -0.02     0.00  -0.01   0.01     0.01  -0.00   0.03
  17   1     0.02  -0.03  -0.02     0.00   0.03   0.02    -0.01   0.03   0.03
  18   1    -0.02  -0.02  -0.01     0.04  -0.01  -0.11    -0.03   0.01  -0.03
  19   1     0.00  -0.00  -0.00     0.08  -0.12   0.01     0.01  -0.03   0.03
  20   1     0.00   0.00   0.00     0.02  -0.06   0.08    -0.01   0.02   0.07
  21   1    -0.02   0.00   0.00     0.10  -0.10  -0.08    -0.01  -0.00  -0.02
  22   1    -0.01   0.01   0.01     0.09  -0.14   0.02    -0.00  -0.01   0.02
  23   1    -0.02   0.01   0.01     0.05  -0.04  -0.04    -0.03   0.04  -0.01
  24   1    -0.01   0.01   0.01     0.00  -0.02   0.05    -0.03   0.05   0.04
  25   1    -0.03  -0.00   0.00     0.04   0.06  -0.13    -0.03   0.07  -0.05
  26   1    -0.03   0.00   0.00    -0.02   0.10  -0.07    -0.06   0.10  -0.02
  27   1    -0.02  -0.01  -0.01    -0.05   0.16  -0.08    -0.06   0.12  -0.02
  28   1    -0.02  -0.00   0.00    -0.07   0.09   0.05    -0.07   0.09   0.05
                      4                      5                      6
                        a                      a                      a 
 Frequencies --   110.5546               143.8104               159.5776
 Red. masses --    12.9459                 9.4958                 8.4996
 Frc consts  --     0.0000                 0.0000                 0.0000
 IR Inten    --    13.6647                 8.4572                 3.4028
 Raman Activ --     0.0000                 0.0000                 0.0000
 Depolar     --     0.0000                 0.0000                 0.0000
 Atom AN      X      Y      Z        X      Y      Z        X      Y      Z
   1   7    -0.05  -0.31   0.32     0.41   0.06   0.25     0.07   0.18  -0.21
   2   6    -0.07   0.07   0.12    -0.00   0.01   0.17     0.03  -0.46   0.11
   3   6    -0.05   0.24  -0.10    -0.07  -0.00  -0.32     0.12  -0.11   0.04
   4   6    -0.05   0.25  -0.04    -0.03  -0.05  -0.21    -0.13   0.11  -0.07
   5   6    -0.08   0.19  -0.06     0.12  -0.09   0.00    -0.14   0.18  -0.11
   6   6     0.15  -0.00   0.06     0.09  -0.06   0.11     0.04   0.03   0.05
   7   6     0.19  -0.25   0.09    -0.16   0.08   0.17     0.05  -0.24   0.09
   8   6     0.21  -0.06   0.05    -0.32   0.03  -0.02     0.03   0.02  -0.02
   9   6    -0.05   0.15  -0.02    -0.21  -0.05  -0.14    -0.18   0.20  -0.06
  10  17    -0.13  -0.14  -0.32     0.09   0.05  -0.02     0.07   0.08   0.13
  11   1    -0.08  -0.06   0.10     0.05   0.05  -0.01    -0.01   0.07  -0.17
  12   1     0.06  -0.10   0.04     0.22   0.05   0.04     0.05   0.16   0.01
  13   1    -0.01  -0.16   0.13     0.12  -0.04   0.16     0.02   0.03  -0.05
  14   1    -0.06   0.07   0.09    -0.07  -0.00   0.07    -0.09  -0.28  -0.06
  15   1     0.00   0.01  -0.02    -0.01   0.00   0.11     0.08  -0.20   0.20
  16   1    -0.04   0.11  -0.06    -0.09   0.08  -0.14     0.05  -0.05   0.02
  17   1     0.02   0.04  -0.07     0.03  -0.07  -0.17     0.10   0.00   0.02
  18   1    -0.01   0.08   0.01     0.01  -0.01  -0.09    -0.08   0.00  -0.03
  19   1    -0.03   0.10  -0.02     0.09  -0.05  -0.02    -0.05   0.11  -0.04
  20   1    -0.07   0.02  -0.05     0.03  -0.02   0.04    -0.07   0.02  -0.07
  21   1     0.09   0.04   0.04     0.03  -0.03  -0.01     0.05   0.05   0.05
  22   1     0.03  -0.03   0.01     0.06  -0.02   0.08     0.00  -0.01   0.01
  23   1     0.11  -0.12   0.05    -0.07   0.04   0.06     0.09  -0.13   0.06
  24   1    -0.01  -0.12   0.01    -0.04   0.04   0.09    -0.06  -0.13   0.02
  25   1     0.12   0.02   0.02    -0.10  -0.01  -0.03     0.07   0.03  -0.03
  26   1     0.06  -0.05   0.02    -0.14   0.02   0.01    -0.01  -0.01   0.00
  27   1    -0.02   0.10  -0.02    -0.07  -0.04  -0.05    -0.06   0.12  -0.04
  28   1    -0.08   0.01   0.01    -0.05  -0.01  -0.04    -0.11   0.04   0.02
                      7                      8                      9
                        a                      a                      a 
 Frequencies --   248.6541               262.1416               278.6731
 Red. masses --     7.2827                 7.4674                 7.8389
 Frc consts  --     0.0000                 0.0000                 0.0000
 IR Inten    --     4.5834                 4.6883                 3.5306
 Raman Activ --     0.0000                 0.0000                 0.0000
 Depolar     --     0.0000                 0.0000                 0.0000
 Atom AN      X      Y      Z        X      Y      Z        X      Y      Z
   1   7    -0.31   0.06   0.09    -0.32   0.08   0.02     0.17  -0.08  -0.18
   2   6    -0.08  -0.09   0.19    -0.19  -0.22   0.17    -0.13  -0.14  -0.17
   3   6    -0.02   0.05   0.07    -0.09   0.13  -0.17    -0.08   0.13  -0.19
   4   6     0.03   0.03  -0.08     0.03   0.05  -0.11    -0.12   0.16   0.28
   5   6    -0.02   0.14  -0.21     0.24  -0.13   0.17    -0.24   0.01   0.20
   6   6     0.32  -0.10   0.05    -0.00   0.07  -0.03     0.08  -0.27  -0.03
   7   6     0.03   0.12   0.13     0.12   0.22  -0.11     0.03   0.13  -0.08
   8   6    -0.16   0.08  -0.09     0.21  -0.16   0.11     0.04   0.11  -0.04
   9   6     0.24  -0.22  -0.13    -0.00  -0.02  -0.08     0.17  -0.03   0.22
  10  17     0.00  -0.03  -0.01     0.03  -0.00   0.01     0.01   0.01   0.04
  11   1     0.02  -0.03   0.05    -0.12   0.04  -0.06    -0.05   0.03  -0.12
  12   1    -0.23  -0.01   0.07    -0.07   0.10   0.05     0.21   0.05  -0.08
  13   1    -0.09   0.13  -0.09    -0.09  -0.02  -0.01     0.05  -0.12   0.08
  14   1    -0.06  -0.07   0.03    -0.18  -0.16   0.01    -0.11  -0.08  -0.05
  15   1     0.02  -0.06   0.09     0.04  -0.14   0.15     0.00  -0.08   0.01
  16   1    -0.04  -0.00   0.03    -0.08   0.11  -0.09     0.02   0.14  -0.10
  17   1     0.03   0.03   0.02     0.04  -0.02  -0.13    -0.02  -0.03  -0.13
  18   1    -0.00   0.02   0.03     0.05   0.02  -0.06    -0.02   0.07   0.13
  19   1    -0.02   0.16  -0.08     0.14  -0.16   0.05    -0.10   0.02   0.06
  20   1    -0.07  -0.03  -0.15     0.10   0.02   0.18    -0.13  -0.03   0.05
  21   1     0.20  -0.01  -0.08    -0.07  -0.02  -0.01     0.10  -0.08  -0.12
  22   1     0.14  -0.13   0.10    -0.01   0.06  -0.03     0.03  -0.21   0.04
  23   1    -0.02   0.06   0.03    -0.05   0.13  -0.05    -0.04   0.08  -0.09
  24   1     0.02   0.07   0.11     0.14   0.12  -0.07     0.06   0.10   0.02
  25   1    -0.10  -0.03  -0.09     0.07  -0.01   0.14    -0.03  -0.00  -0.03
  26   1    -0.10   0.09  -0.02     0.10  -0.15   0.04     0.04   0.09  -0.03
  27   1     0.09  -0.23   0.03    -0.01   0.04  -0.04     0.10  -0.06   0.14
  28   1     0.19  -0.04  -0.16    -0.06  -0.04  -0.02     0.11  -0.00  -0.01
                     10                     11                     12
                        a                      a                      a 
 Frequencies --   305.4437               353.9361               379.7660
 Red. masses --     3.1402                 6.2685                 9.0134
 Frc consts  --     0.0000                 0.0000                 0.0000
 IR Inten    --     4.8453                 0.9790                 4.0127
 Raman Activ --     0.0000                 0.0000                 0.0000
 Depolar     --     0.0000                 0.0000                 0.0000
 Atom AN      X      Y      Z        X      Y      Z        X      Y      Z
   1   7     0.23   0.01   0.00    -0.13   0.03   0.01     0.16  -0.06  -0.04
   2   6    -0.02  -0.07   0.03    -0.08  -0.04   0.04    -0.31  -0.02  -0.12
   3   6    -0.03   0.02  -0.16    -0.06   0.02  -0.19    -0.31  -0.19   0.14
   4   6    -0.08   0.07   0.04     0.11  -0.11   0.14    -0.22  -0.12  -0.13
   5   6    -0.04  -0.01   0.11     0.14  -0.01   0.13    -0.00   0.04   0.09
   6   6    -0.03  -0.03   0.00    -0.14   0.21   0.06     0.03   0.10   0.25
   7   6     0.05  -0.03  -0.03     0.07  -0.27   0.04     0.33   0.12   0.12
   8   6     0.08  -0.02   0.01    -0.07   0.21  -0.28     0.16   0.06  -0.11
   9   6    -0.03   0.05   0.04     0.21  -0.04   0.10     0.11   0.04  -0.26
  10  17    -0.12  -0.00  -0.02     0.01  -0.00   0.01    -0.01   0.00   0.01
  11   1     0.50  -0.21   0.12    -0.05   0.02  -0.01     0.07  -0.03  -0.05
  12   1    -0.37  -0.24   0.04    -0.03   0.03   0.02     0.12  -0.04  -0.07
  13   1     0.10   0.50  -0.18    -0.04  -0.01  -0.00     0.07   0.01   0.12
  14   1    -0.04  -0.03   0.01    -0.07  -0.03   0.01    -0.06   0.02  -0.03
  15   1    -0.01  -0.02   0.05     0.00  -0.03   0.04    -0.14   0.03  -0.03
  16   1    -0.02   0.08  -0.08    -0.06   0.13  -0.13    -0.03  -0.17   0.11
  17   1     0.02  -0.04  -0.10    -0.01  -0.10  -0.16    -0.14   0.04   0.15
  18   1    -0.02   0.02   0.00     0.05  -0.02   0.06    -0.09  -0.06  -0.06
  19   1     0.00  -0.04   0.04     0.04  -0.06   0.05     0.08   0.01  -0.00
  20   1    -0.02   0.01   0.07     0.10   0.04   0.06    -0.00   0.02   0.06
  21   1    -0.01  -0.01   0.00    -0.13   0.07   0.16    -0.03   0.04   0.14
  22   1    -0.02  -0.02  -0.01    -0.09   0.18  -0.08    -0.04   0.06   0.00
  23   1     0.01  -0.01  -0.02     0.16  -0.19   0.07     0.07   0.06   0.01
  24   1     0.02  -0.01  -0.02    -0.14  -0.19   0.00     0.12   0.06   0.04
  25   1     0.04   0.01   0.01    -0.04  -0.01  -0.27     0.07   0.02  -0.07
  26   1     0.03  -0.02   0.00    -0.10   0.25  -0.09    -0.04   0.01  -0.00
  27   1     0.02   0.03   0.04     0.07  -0.07   0.06     0.08  -0.01  -0.01
  28   1    -0.02   0.00   0.01     0.15   0.04   0.02     0.07   0.01  -0.13
                     13                     14                     15
                        a                      a                      a 
 Frequencies --   417.3534               440.7530               489.6026
 Red. masses --     8.0088                 7.9833                 8.2887
 Frc consts  --     0.0000                 0.0000                 0.0000
 IR Inten    --     2.6230                 1.1507                 3.9137
 Raman Activ --     0.0000                 0.0000                 0.0000
 Depolar     --     0.0000                 0.0000                 0.0000
 Atom AN      X      Y      Z        X      Y      Z        X      Y      Z
   1   7    -0.07   0.07   0.06     0.07  -0.03  -0.02    -0.13   0.07   0.05
   2   6    -0.04   0.04   0.04     0.02  -0.00  -0.03     0.39   0.08   0.09
   3   6    -0.10  -0.29  -0.09     0.05   0.14   0.19     0.22  -0.18  -0.14
   4   6    -0.01  -0.28   0.20    -0.14   0.26  -0.00    -0.27   0.08  -0.05
   5   6     0.05   0.25   0.02     0.12   0.19   0.30    -0.25   0.04   0.22
   6   6     0.27   0.14  -0.10     0.16   0.15  -0.19    -0.14  -0.09   0.20
   7   6     0.18   0.12  -0.09    -0.02  -0.11  -0.11     0.18   0.05   0.03
   8   6     0.01  -0.16  -0.20    -0.18  -0.27  -0.22     0.04  -0.06  -0.14
   9   6    -0.22  -0.04   0.23    -0.14  -0.22  -0.02    -0.02  -0.03  -0.19
  10  17     0.00   0.01  -0.00    -0.00   0.00   0.01     0.01   0.00  -0.00
  11   1    -0.03   0.02   0.02     0.02  -0.01  -0.00    -0.13   0.06   0.06
  12   1    -0.03   0.02   0.03     0.04  -0.02  -0.02    -0.09   0.07   0.07
  13   1    -0.02   0.01  -0.01     0.02  -0.01   0.02    -0.07  -0.08  -0.12
  14   1     0.05   0.05   0.02    -0.00  -0.01  -0.01     0.22   0.09   0.04
  15   1    -0.07   0.06  -0.01     0.03  -0.02  -0.00     0.04   0.09  -0.06
  16   1    -0.07   0.01  -0.08     0.07  -0.08   0.13    -0.00   0.05  -0.10
  17   1    -0.06  -0.17  -0.10     0.02   0.15   0.16     0.14  -0.11  -0.13
  18   1    -0.04  -0.09   0.08    -0.04   0.08   0.02    -0.13  -0.01  -0.01
  19   1    -0.04   0.15   0.01     0.11  -0.16   0.10    -0.01  -0.02   0.05
  20   1     0.04   0.05  -0.10     0.06   0.14   0.29    -0.12   0.00   0.13
  21   1     0.15   0.06  -0.07     0.10   0.05  -0.09    -0.05  -0.02   0.10
  22   1     0.07  -0.05  -0.01     0.04  -0.04  -0.04    -0.10  -0.04  -0.01
  23   1    -0.02   0.10   0.02     0.00  -0.04   0.08    -0.02   0.07  -0.05
  24   1     0.12   0.08  -0.04    -0.04  -0.07  -0.07     0.12   0.07   0.02
  25   1    -0.02  -0.07  -0.11    -0.08  -0.11  -0.11     0.03  -0.02  -0.08
  26   1    -0.01   0.03  -0.06    -0.07  -0.01  -0.07    -0.05  -0.01  -0.02
  27   1    -0.09   0.21  -0.02     0.01  -0.10   0.06     0.05  -0.05   0.02
  28   1    -0.19  -0.01   0.25    -0.03  -0.10  -0.11     0.02  -0.03  -0.15
                     16                     17                     18
                        a                      a                      a 
 Frequencies --   551.9414               803.2711               815.5879
 Red. masses --     5.8551                 5.2124                 6.2439
 Frc consts  --     0.0000                 0.0000                 0.0000
 IR Inten    --     1.2067                14.4451                 1.6158
 Raman Activ --     0.0000                 0.0000                 0.0000
 Depolar     --     0.0000                 0.0000                 0.0000
 Atom AN      X      Y      Z        X      Y      Z        X      Y      Z
   1   7     0.05  -0.04  -0.04    -0.04  -0.03  -0.01    -0.01   0.04   0.09
   2   6     0.01  -0.00  -0.02    -0.08  -0.14   0.06    -0.02  -0.04  -0.03
   3   6     0.08   0.33   0.08    -0.02  -0.09   0.09    -0.01  -0.15  -0.20
   4   6     0.15   0.09   0.01    -0.11   0.22   0.03    -0.08   0.14  -0.22
   5   6    -0.03  -0.14  -0.11     0.18  -0.11  -0.14    -0.09  -0.01  -0.28
   6   6    -0.13  -0.10   0.21     0.22  -0.06  -0.16    -0.09   0.01  -0.11
   7   6     0.19   0.05   0.05     0.09  -0.10  -0.04     0.05  -0.05   0.12
   8   6    -0.07  -0.22  -0.23    -0.09   0.04   0.07     0.14   0.05   0.28
   9   6    -0.10  -0.12   0.08    -0.21   0.10   0.21     0.11  -0.06   0.29
  10  17    -0.00   0.00   0.00    -0.00  -0.00   0.01     0.00   0.00   0.00
  11   1     0.04  -0.02  -0.00     0.06  -0.03  -0.22    -0.03   0.02   0.03
  12   1     0.01  -0.03  -0.02     0.04   0.13   0.07    -0.02   0.03   0.05
  13   1     0.02   0.01   0.01     0.01   0.08   0.06    -0.01  -0.01  -0.02
  14   1    -0.09  -0.06  -0.02     0.21   0.14   0.07     0.01   0.02   0.01
  15   1     0.09  -0.07   0.04    -0.17   0.10  -0.20    -0.06   0.03  -0.01
  16   1     0.05   0.03   0.06    -0.03   0.08  -0.03     0.02  -0.21   0.04
  17   1     0.02   0.14   0.07     0.09  -0.08  -0.07     0.02   0.10   0.08
  18   1     0.11   0.07   0.02    -0.03   0.03  -0.06    -0.05   0.05   0.03
  19   1    -0.07   0.12  -0.04     0.00   0.02  -0.03     0.12  -0.28  -0.07
  20   1    -0.06  -0.11  -0.16    -0.03  -0.08  -0.07     0.02   0.12   0.21
  21   1    -0.17  -0.04   0.21    -0.15  -0.03   0.19     0.06   0.04  -0.06
  22   1    -0.10   0.14  -0.06    -0.00   0.26  -0.19     0.02  -0.03   0.03
  23   1    -0.12   0.15  -0.05    -0.09   0.07  -0.02    -0.05   0.04  -0.05
  24   1     0.23   0.15   0.04     0.13   0.07   0.04     0.12   0.04  -0.01
  25   1    -0.07  -0.14  -0.24     0.03   0.04   0.01    -0.05  -0.13  -0.23
  26   1    -0.13   0.13  -0.06     0.02   0.01   0.00    -0.08   0.37   0.05
  27   1    -0.07   0.12  -0.06     0.02  -0.22   0.21    -0.01   0.06   0.01
  28   1    -0.15  -0.06   0.13     0.11   0.03  -0.18    -0.08  -0.07   0.12
                     19                     20                     21
                        a                      a                      a 
 Frequencies --   825.6909               863.9571               880.7185
 Red. masses --     4.3013                 6.5664                 6.4817
 Frc consts  --     0.0000                 0.0000                 0.0000
 IR Inten    --    18.0877                 6.5523                 4.9426
 Raman Activ --     0.0000                 0.0000                 0.0000
 Depolar     --     0.0000                 0.0000                 0.0000
 Atom AN      X      Y      Z        X      Y      Z        X      Y      Z
   1   7     0.02   0.09   0.09    -0.08   0.05   0.26    -0.06   0.07   0.02
   2   6     0.09   0.16  -0.11    -0.13  -0.15  -0.13    -0.08   0.04  -0.06
   3   6     0.02  -0.09  -0.25     0.12  -0.12  -0.34     0.06  -0.10   0.05
   4   6    -0.09  -0.05  -0.00     0.10   0.10  -0.07     0.08   0.02   0.03
   5   6     0.07   0.00   0.04     0.10   0.10   0.20     0.11   0.22  -0.05
   6   6     0.12  -0.05  -0.08    -0.05  -0.09   0.20    -0.05  -0.07   0.16
   7   6     0.12  -0.04  -0.08    -0.17   0.01  -0.14    -0.36  -0.35  -0.01
   8   6    -0.05   0.11   0.05     0.04  -0.01  -0.15     0.05  -0.14  -0.12
   9   6    -0.22   0.03   0.19     0.07  -0.04   0.05     0.12   0.24  -0.03
  10  17     0.01  -0.00  -0.01    -0.00   0.00   0.01    -0.00  -0.00  -0.00
  11   1    -0.10   0.06   0.34     0.03   0.00  -0.17     0.01  -0.00   0.11
  12   1    -0.06  -0.16  -0.08    -0.02   0.19   0.19     0.05  -0.11  -0.11
  13   1    -0.03  -0.14  -0.08    -0.01   0.12   0.07     0.00  -0.00   0.11
  14   1    -0.25  -0.16  -0.09    -0.00   0.12   0.09    -0.03  -0.06  -0.07
  15   1     0.14  -0.08   0.27    -0.11   0.03  -0.15    -0.02  -0.00   0.06
  16   1     0.08  -0.25   0.06     0.17  -0.31   0.07     0.02   0.06  -0.03
  17   1    -0.11   0.13   0.14     0.02   0.21   0.15    -0.00  -0.10  -0.05
  18   1    -0.04  -0.04  -0.03     0.08   0.07   0.01    -0.05  -0.04  -0.01
  19   1    -0.04   0.09   0.01    -0.00   0.22   0.03     0.09  -0.03  -0.01
  20   1    -0.03  -0.06  -0.07    -0.05  -0.06  -0.08     0.10   0.12   0.06
  21   1    -0.09  -0.02   0.11    -0.05  -0.06   0.02     0.08   0.05   0.09
  22   1    -0.04   0.11  -0.14    -0.01  -0.02   0.06     0.04  -0.01   0.10
  23   1     0.00   0.01  -0.04    -0.00  -0.04  -0.05    -0.41   0.16  -0.14
  24   1     0.06   0.02   0.02    -0.10  -0.02  -0.01     0.24   0.16   0.03
  25   1     0.05   0.09   0.07    -0.03   0.01   0.07     0.12   0.01  -0.08
  26   1     0.06  -0.04   0.00     0.12  -0.06  -0.07     0.06  -0.03  -0.05
  27   1     0.00  -0.21   0.17     0.02   0.06  -0.00     0.06   0.00   0.04
  28   1     0.12   0.05  -0.11    -0.01  -0.01   0.05     0.11   0.09  -0.05
                     22                     23                     24
                        a                      a                      a 
 Frequencies --   912.0117               916.0742               925.9128
 Red. masses --     5.6178                 6.8502                 3.9561
 Frc consts  --     0.0000                 0.0000                 0.0000
 IR Inten    --    14.5594                 7.3678                19.9770
 Raman Activ --     0.0000                 0.0000                 0.0000
 Depolar     --     0.0000                 0.0000                 0.0000
 Atom AN      X      Y      Z        X      Y      Z        X      Y      Z
   1   7    -0.05  -0.05   0.09     0.18  -0.19  -0.21    -0.11   0.11   0.01
   2   6    -0.02   0.00  -0.06     0.17   0.05   0.24    -0.08   0.00  -0.04
   3   6     0.11   0.12  -0.06    -0.28   0.14  -0.00     0.12  -0.09   0.09
   4   6     0.21  -0.23   0.02    -0.12  -0.08  -0.10    -0.03   0.11  -0.10
   5   6    -0.10   0.09   0.13     0.14   0.00  -0.00     0.16  -0.09   0.11
   6   6    -0.21   0.03  -0.12    -0.09   0.07   0.21    -0.14   0.07   0.11
   7   6     0.23  -0.13   0.04    -0.14  -0.04  -0.10    -0.02   0.11  -0.09
   8   6    -0.06   0.06   0.18     0.15  -0.02  -0.07     0.17  -0.07   0.11
   9   6    -0.23   0.07  -0.10    -0.08   0.05   0.19    -0.14   0.01   0.07
  10  17    -0.00  -0.00   0.01     0.00   0.00   0.00    -0.00  -0.00  -0.00
  11   1     0.06  -0.04  -0.21    -0.08   0.01  -0.11     0.05  -0.02   0.13
  12   1     0.02   0.13   0.11    -0.11   0.14   0.16     0.10  -0.17  -0.20
  13   1     0.01   0.11   0.08    -0.01  -0.12  -0.36     0.01   0.03   0.23
  14   1    -0.08   0.06   0.06    -0.01   0.08   0.13     0.08  -0.08  -0.11
  15   1     0.08  -0.05  -0.10     0.07  -0.00  -0.00    -0.06   0.02   0.04
  16   1     0.07  -0.02   0.02    -0.16  -0.05   0.04    -0.01   0.08  -0.04
  17   1    -0.05   0.05   0.03    -0.08   0.09   0.05     0.13  -0.08  -0.07
  18   1     0.09  -0.08  -0.11     0.03  -0.02  -0.12     0.00  -0.03  -0.21
  19   1    -0.14  -0.01   0.08     0.07   0.11  -0.03    -0.01   0.23  -0.00
  20   1     0.16   0.10  -0.06     0.07  -0.01  -0.10    -0.01  -0.13  -0.19
  21   1     0.14   0.08  -0.12     0.07   0.00  -0.09    -0.02  -0.09  -0.23
  22   1    -0.09  -0.25  -0.01     0.06  -0.08   0.18     0.05  -0.10   0.17
  23   1    -0.05   0.06  -0.05    -0.06   0.01  -0.04     0.10  -0.06   0.03
  24   1     0.22   0.04  -0.08     0.02  -0.01  -0.11    -0.07  -0.10  -0.23
  25   1     0.14   0.06  -0.11     0.07  -0.01  -0.09    -0.01  -0.12  -0.19
  26   1    -0.18   0.05   0.10     0.10   0.09  -0.06    -0.03   0.24   0.01
  27   1    -0.08  -0.24   0.00     0.05  -0.07   0.16     0.03  -0.08   0.12
  28   1     0.12   0.08  -0.12     0.05   0.00  -0.08    -0.06  -0.09  -0.18
                     25                     26                     27
                        a                      a                      a 
 Frequencies --   956.0170               963.0744              1000.0328
 Red. masses --     7.4485                 7.0203                 5.1062
 Frc consts  --     0.0000                 0.0000                 0.0000
 IR Inten    --     0.1751                21.8520                 1.4056
 Raman Activ --     0.0000                 0.0000                 0.0000
 Depolar     --     0.0000                 0.0000                 0.0000
 Atom AN      X      Y      Z        X      Y      Z        X      Y      Z
   1   7    -0.02  -0.03  -0.16     0.14  -0.02  -0.09     0.15   0.11  -0.05
   2   6    -0.03   0.05   0.17    -0.06  -0.04   0.10    -0.18  -0.23   0.06
   3   6    -0.02  -0.00   0.10    -0.16  -0.13  -0.02    -0.07  -0.06  -0.03
   4   6     0.11  -0.02  -0.20     0.16   0.14   0.03     0.24   0.19   0.04
   5   6     0.07   0.33   0.07     0.07   0.11   0.33    -0.03  -0.07  -0.09
   6   6    -0.06  -0.23   0.15     0.08  -0.07  -0.24    -0.18   0.06   0.08
   7   6     0.09  -0.07  -0.27    -0.09  -0.12   0.01     0.16   0.03   0.05
   8   6    -0.05   0.27   0.12    -0.02  -0.03   0.29    -0.10  -0.02  -0.16
   9   6    -0.11  -0.27   0.06     0.18   0.06  -0.27    -0.11  -0.00   0.05
  10  17    -0.00  -0.00   0.00     0.00   0.00  -0.00     0.00   0.00  -0.01
  11   1     0.04  -0.03  -0.02    -0.10   0.05   0.11    -0.13   0.10   0.29
  12   1     0.06  -0.09  -0.13    -0.09  -0.00   0.04    -0.08  -0.12  -0.06
  13   1     0.01   0.01   0.08    -0.01  -0.12  -0.22    -0.01  -0.16  -0.16
  14   1     0.08  -0.02  -0.01     0.03   0.02   0.04     0.21   0.02  -0.02
  15   1    -0.02   0.03   0.02    -0.12   0.06   0.05    -0.33   0.14   0.01
  16   1    -0.15   0.02  -0.00    -0.04  -0.04   0.00     0.00  -0.04   0.01
  17   1     0.09  -0.02  -0.03    -0.05  -0.02   0.01     0.15   0.06  -0.00
  18   1     0.02   0.02   0.03     0.06   0.04  -0.02     0.20   0.15   0.09
  19   1     0.15   0.08  -0.02    -0.16   0.21   0.11    -0.04  -0.08  -0.00
  20   1     0.02   0.11   0.07    -0.07  -0.08  -0.10     0.09   0.04  -0.01
  21   1     0.01   0.01   0.16    -0.13  -0.07   0.01     0.10   0.05  -0.09
  22   1    -0.13  -0.10  -0.09    -0.04   0.08  -0.16    -0.02  -0.15   0.09
  23   1     0.09  -0.06  -0.32    -0.11   0.03  -0.00     0.04   0.01   0.03
  24   1    -0.01   0.02   0.10     0.07   0.02  -0.04     0.04  -0.01  -0.02
  25   1    -0.11   0.04   0.12    -0.05  -0.10  -0.13     0.11   0.11   0.06
  26   1     0.11   0.07  -0.01    -0.17   0.18   0.10    -0.03  -0.19  -0.01
  27   1    -0.14  -0.08  -0.12    -0.03   0.08  -0.18    -0.06  -0.12  -0.00
  28   1    -0.08  -0.06   0.11    -0.07  -0.03  -0.02     0.12   0.09   0.04
                     28                     29                     30
                        a                      a                      a 
 Frequencies --  1013.5485              1064.7713              1065.2232
 Red. masses --     7.1182                 3.5066                 6.8873
 Frc consts  --     0.0000                 0.0000                 0.0000
 IR Inten    --    16.6005                 5.6666                 3.0358
 Raman Activ --     0.0000                 0.0000                 0.0000
 Depolar     --     0.0000                 0.0000                 0.0000
 Atom AN      X      Y      Z        X      Y      Z        X      Y      Z
   1   7    -0.15  -0.10  -0.29     0.04   0.01   0.04    -0.00  -0.12  -0.13
   2   6     0.00   0.20   0.39    -0.04  -0.02  -0.06    -0.12   0.23   0.16
   3   6     0.05  -0.08  -0.20     0.00  -0.01   0.05     0.14  -0.18  -0.03
   4   6     0.09  -0.01  -0.16     0.03   0.03  -0.09     0.02   0.15   0.14
   5   6    -0.15  -0.05   0.13     0.05   0.10  -0.01     0.22   0.15  -0.18
   6   6     0.03   0.07  -0.11    -0.15  -0.14  -0.09    -0.19  -0.21   0.03
   7   6    -0.01   0.00   0.14     0.09   0.07   0.11     0.16   0.10  -0.03
   8   6    -0.03  -0.09  -0.10    -0.10  -0.17  -0.05    -0.19  -0.17   0.03
   9   6     0.11   0.10   0.12     0.14   0.19   0.15     0.05   0.16   0.00
  10  17    -0.00  -0.00   0.00     0.00  -0.00  -0.00    -0.00   0.00   0.00
  11   1     0.12  -0.10  -0.13    -0.03   0.02   0.04     0.01  -0.03  -0.12
  12   1     0.14  -0.11  -0.22    -0.04   0.02   0.04     0.00   0.04   0.02
  13   1     0.02   0.06   0.19    -0.01  -0.05  -0.08     0.00   0.01  -0.05
  14   1     0.05  -0.00   0.04    -0.03   0.01  -0.00    -0.19   0.04   0.09
  15   1     0.02   0.04   0.07    -0.03   0.00  -0.00     0.02   0.01   0.09
  16   1    -0.21  -0.24   0.04     0.02   0.05  -0.02     0.12  -0.01  -0.01
  17   1     0.19   0.15   0.05    -0.03  -0.05  -0.02    -0.11  -0.08   0.01
  18   1     0.09   0.03  -0.06     0.02  -0.11  -0.35    -0.13   0.02   0.17
  19   1    -0.15  -0.02   0.07    -0.07  -0.01   0.03     0.25   0.05  -0.12
  20   1    -0.05  -0.03  -0.01     0.24   0.12  -0.11    -0.06   0.02   0.08
  21   1     0.00   0.02  -0.01     0.09   0.09   0.09    -0.15  -0.17  -0.13
  22   1    -0.03  -0.01  -0.07    -0.20  -0.21  -0.18    -0.03  -0.06   0.02
  23   1    -0.06   0.05   0.18     0.08  -0.03  -0.00     0.13  -0.05   0.01
  24   1     0.01   0.01   0.03    -0.11   0.03   0.28    -0.02  -0.08  -0.14
  25   1     0.03   0.01   0.03    -0.29  -0.15   0.14     0.01  -0.02  -0.01
  26   1     0.02  -0.08  -0.02     0.06  -0.03  -0.04    -0.25  -0.13   0.10
  27   1     0.07   0.06   0.07     0.20   0.16   0.20     0.04   0.03   0.04
  28   1     0.09   0.07   0.06    -0.09  -0.11  -0.16     0.08   0.08   0.01
                     31                     32                     33
                        a                      a                      a 
 Frequencies --  1078.7147              1098.9989              1107.3874
 Red. masses --     6.8796                 7.2312                 7.8781
 Frc consts  --     0.0000                 0.0000                 0.0000
 IR Inten    --     5.0994                 3.3404                 9.6053
 Raman Activ --     0.0000                 0.0000                 0.0000
 Depolar     --     0.0000                 0.0000                 0.0000
 Atom AN      X      Y      Z        X      Y      Z        X      Y      Z
   1   7    -0.05   0.10   0.14    -0.03   0.04  -0.10     0.11   0.02  -0.08
   2   6     0.25  -0.21  -0.18    -0.05  -0.06   0.19    -0.33  -0.02   0.08
   3   6    -0.25   0.19   0.02     0.11   0.20  -0.17     0.34   0.20   0.03
   4   6    -0.19  -0.14  -0.17    -0.40  -0.18   0.28    -0.11  -0.31  -0.17
   5   6     0.12   0.09   0.07     0.25  -0.03  -0.06    -0.19  -0.05   0.07
   6   6    -0.06  -0.06  -0.07    -0.07  -0.03  -0.10     0.17   0.10   0.09
   7   6     0.09  -0.05  -0.02    -0.03  -0.07   0.07     0.01  -0.03  -0.19
   8   6    -0.21  -0.08   0.07     0.06   0.11   0.05    -0.12  -0.07   0.11
   9   6     0.21   0.11   0.12     0.00  -0.10  -0.17     0.12   0.11   0.10
  10  17    -0.00  -0.00  -0.00    -0.00   0.00  -0.00     0.00   0.00  -0.00
  11   1     0.02   0.01   0.07     0.01  -0.00   0.07    -0.08   0.06   0.09
  12   1     0.03  -0.02  -0.02     0.03  -0.07  -0.10    -0.06  -0.02   0.01
  13   1     0.00   0.03   0.10    -0.00  -0.02   0.04    -0.00  -0.08  -0.13
  14   1     0.21  -0.07  -0.11     0.11   0.05   0.05    -0.07   0.10   0.10
  15   1     0.07  -0.05  -0.09    -0.09   0.06  -0.03    -0.16   0.06  -0.05
  16   1    -0.20  -0.00   0.02     0.16  -0.05   0.03     0.22   0.11  -0.01
  17   1     0.08   0.10  -0.00     0.17   0.21   0.06     0.17   0.06  -0.02
  18   1     0.00   0.03   0.06    -0.04   0.00   0.11    -0.12  -0.17  -0.14
  19   1     0.21   0.17  -0.08    -0.04   0.03   0.01     0.12   0.04  -0.05
  20   1    -0.05  -0.04  -0.03     0.25   0.05  -0.16    -0.14  -0.05   0.07
  21   1    -0.07  -0.08  -0.09     0.03   0.02  -0.02     0.03   0.04   0.07
  22   1    -0.10  -0.10  -0.10     0.04   0.02   0.04    -0.02   0.01  -0.05
  23   1    -0.03   0.03   0.10     0.01  -0.02  -0.22    -0.02   0.01   0.07
  24   1     0.07  -0.03  -0.13     0.02   0.04   0.11     0.02  -0.03  -0.14
  25   1     0.03   0.03   0.02     0.01   0.02  -0.00    -0.08  -0.05   0.01
  26   1    -0.16  -0.11   0.07    -0.16  -0.04   0.09     0.03   0.04  -0.00
  27   1     0.04   0.08   0.01     0.13   0.18   0.06    -0.03  -0.03  -0.03
  28   1     0.16   0.16   0.20    -0.09  -0.07  -0.02     0.09   0.09   0.10
                     34                     35                     36
                        a                      a                      a 
 Frequencies --  1111.5447              1157.8657              1185.4868
 Red. masses --     6.9560                 7.5944                 3.7967
 Frc consts  --     0.0000                 0.0000                 0.0000
 IR Inten    --     0.2624                 1.9388                 2.6646
 Raman Activ --     0.0000                 0.0000                 0.0000
 Depolar     --     0.0000                 0.0000                 0.0000
 Atom AN      X      Y      Z        X      Y      Z        X      Y      Z
   1   7    -0.06  -0.01   0.01     0.01  -0.08   0.02    -0.08   0.04  -0.07
   2   6     0.12   0.02   0.00    -0.06   0.18  -0.06     0.15  -0.08   0.16
   3   6    -0.11  -0.09  -0.07     0.09  -0.16   0.11    -0.13   0.01  -0.14
   4   6     0.02   0.13   0.10    -0.22   0.22  -0.11    -0.02   0.02   0.22
   5   6    -0.09  -0.21  -0.02     0.13  -0.25   0.10     0.01  -0.14  -0.08
   6   6     0.13   0.20   0.24    -0.13   0.24  -0.08     0.02   0.04   0.09
   7   6     0.12  -0.10  -0.36     0.12  -0.25   0.07     0.01  -0.00  -0.11
   8   6    -0.28  -0.08   0.15    -0.14   0.24  -0.06    -0.02  -0.03   0.09
   9   6     0.12   0.16  -0.04     0.15  -0.21   0.07    -0.02   0.13  -0.15
  10  17    -0.00  -0.00   0.00     0.00  -0.00   0.00    -0.00   0.00   0.00
  11   1     0.03  -0.03  -0.03    -0.00  -0.02  -0.08     0.05  -0.02   0.01
  12   1     0.03   0.00  -0.02    -0.02   0.06   0.07     0.05  -0.07  -0.10
  13   1    -0.00   0.03   0.05    -0.00   0.01  -0.06     0.00   0.02   0.11
  14   1     0.02  -0.03  -0.03    -0.14  -0.03  -0.03     0.10   0.02   0.06
  15   1     0.05  -0.01   0.03     0.02   0.01   0.10    -0.01   0.02  -0.00
  16   1    -0.06  -0.07   0.01     0.10   0.08  -0.03     0.25  -0.01   0.01
  17   1    -0.05   0.00   0.02     0.03  -0.10  -0.04    -0.23   0.02   0.06
  18   1     0.08   0.04  -0.05     0.00   0.08  -0.04     0.03   0.06   0.14
  19   1    -0.13  -0.09   0.04     0.07   0.16  -0.03     0.23   0.06  -0.12
  20   1     0.03  -0.03  -0.02     0.01  -0.13  -0.15     0.05  -0.01  -0.03
  21   1     0.19   0.16   0.11     0.12   0.10  -0.13     0.12   0.10   0.09
  22   1     0.13   0.07   0.17    -0.06  -0.17  -0.00    -0.22  -0.23  -0.19
  23   1     0.08  -0.06  -0.34    -0.14   0.08   0.05    -0.08   0.06   0.32
  24   1     0.06  -0.02  -0.13     0.19   0.06   0.02    -0.00  -0.02  -0.06
  25   1    -0.22  -0.09   0.08    -0.01   0.12   0.14    -0.15  -0.09   0.02
  26   1    -0.19  -0.06   0.09     0.10  -0.07  -0.04     0.27   0.19  -0.11
  27   1     0.07   0.09   0.02    -0.03   0.08  -0.09    -0.11  -0.12  -0.13
  28   1    -0.01   0.01  -0.03    -0.06  -0.05   0.15    -0.04  -0.01  -0.10
                     37                     38                     39
                        a                      a                      a 
 Frequencies --  1210.9322              1232.8604              1240.4975
 Red. masses --     4.1515                 3.0133                 2.8093
 Frc consts  --     0.0000                 0.0000                 0.0000
 IR Inten    --     4.7434                10.4374                 6.2553
 Raman Activ --     0.0000                 0.0000                 0.0000
 Depolar     --     0.0000                 0.0000                 0.0000
 Atom AN      X      Y      Z        X      Y      Z        X      Y      Z
   1   7    -0.05   0.16  -0.11     0.05   0.02   0.01    -0.04  -0.16   0.07
   2   6     0.11  -0.24   0.17    -0.07  -0.01  -0.07     0.04   0.10   0.03
   3   6    -0.05   0.07  -0.05     0.07   0.03  -0.01    -0.08   0.12  -0.08
   4   6     0.13   0.03  -0.09    -0.02  -0.05   0.12     0.08  -0.13   0.04
   5   6    -0.03   0.06   0.03     0.11   0.07  -0.05    -0.09   0.13  -0.03
   6   6    -0.07   0.07  -0.07    -0.12  -0.02   0.02    -0.01  -0.04  -0.00
   7   6     0.10  -0.13   0.10     0.22  -0.13   0.04     0.09  -0.09   0.03
   8   6    -0.08   0.12  -0.09    -0.12   0.02   0.01    -0.06   0.11  -0.03
   9   6     0.04  -0.07   0.10     0.02   0.15  -0.09     0.01  -0.01   0.00
  10  17     0.00   0.00  -0.00     0.00   0.00   0.00    -0.00  -0.00   0.00
  11   1     0.04   0.02   0.15    -0.03   0.03   0.03     0.03  -0.06  -0.16
  12   1     0.04  -0.11  -0.16    -0.03  -0.00   0.02     0.02   0.08   0.09
  13   1    -0.00  -0.03   0.10     0.01  -0.00  -0.01    -0.01   0.03  -0.04
  14   1    -0.01   0.17   0.26    -0.07   0.04   0.03     0.31  -0.25  -0.34
  15   1     0.06  -0.05  -0.21     0.08  -0.06  -0.12    -0.26   0.19   0.34
  16   1     0.20   0.03   0.00    -0.33  -0.12   0.02     0.24   0.07  -0.01
  17   1    -0.42  -0.09   0.04     0.21   0.07  -0.02    -0.07   0.06   0.03
  18   1    -0.10  -0.13  -0.19    -0.17  -0.06   0.15     0.06  -0.07  -0.15
  19   1     0.00   0.02   0.00    -0.15  -0.07   0.07     0.03  -0.03  -0.01
  20   1    -0.19  -0.06   0.09     0.02   0.02  -0.01    -0.06   0.04   0.09
  21   1    -0.10  -0.10  -0.18    -0.14  -0.15  -0.19    -0.14  -0.14  -0.11
  22   1     0.13   0.09   0.14     0.13   0.08   0.18     0.10   0.11   0.10
  23   1    -0.02   0.01  -0.10    -0.03   0.04   0.11    -0.04   0.03   0.08
  24   1     0.11   0.02   0.02     0.13  -0.00  -0.04     0.11  -0.02  -0.12
  25   1    -0.04   0.05   0.10    -0.34  -0.13   0.17    -0.11   0.01   0.10
  26   1     0.00  -0.10  -0.00     0.35   0.12  -0.15     0.07  -0.01  -0.03
  27   1     0.04   0.06   0.04    -0.09  -0.09  -0.10     0.06   0.06   0.05
  28   1    -0.09  -0.10  -0.03    -0.03  -0.01  -0.08    -0.10  -0.10  -0.09
                     40                     41                     42
                        a                      a                      a 
 Frequencies --  1243.4426              1249.5222              1294.8921
 Red. masses --     3.6168                 3.0756                 3.0073
 Frc consts  --     0.0000                 0.0000                 0.0000
 IR Inten    --     2.1166                 3.6710                 1.0899
 Raman Activ --     0.0000                 0.0000                 0.0000
 Depolar     --     0.0000                 0.0000                 0.0000
 Atom AN      X      Y      Z        X      Y      Z        X      Y      Z
   1   7     0.00  -0.04   0.02    -0.04  -0.02  -0.02    -0.02   0.05  -0.01
   2   6    -0.01   0.03   0.00     0.09   0.02   0.06     0.02   0.05  -0.02
   3   6    -0.01   0.04  -0.02    -0.09  -0.02  -0.00    -0.13  -0.18   0.10
   4   6     0.08  -0.10  -0.01    -0.23   0.10  -0.13    -0.05  -0.15  -0.08
   5   6     0.02  -0.09   0.08     0.05   0.04   0.05    -0.21   0.07   0.06
   6   6    -0.10   0.24  -0.18    -0.04  -0.11  -0.03     0.04  -0.04  -0.04
   7   6     0.01  -0.05   0.12     0.05   0.09   0.04     0.04  -0.05   0.03
   8   6     0.11  -0.18  -0.01    -0.00  -0.19  -0.01    -0.01   0.01   0.03
   9   6    -0.10   0.17  -0.02     0.10   0.04   0.06    -0.10   0.03  -0.08
  10  17    -0.00   0.00   0.00     0.00   0.00   0.00    -0.00  -0.00  -0.00
  11   1    -0.01  -0.01  -0.04     0.01  -0.01  -0.04     0.04  -0.01   0.02
  12   1    -0.00   0.02   0.03     0.02  -0.01  -0.02     0.01  -0.01  -0.03
  13   1     0.00   0.02  -0.01     0.00   0.03   0.05    -0.01  -0.05  -0.02
  14   1     0.08  -0.06  -0.09     0.03  -0.01   0.00    -0.16   0.09   0.13
  15   1    -0.05   0.04   0.07    -0.03   0.03   0.07     0.14  -0.08  -0.07
  16   1     0.01   0.00   0.00     0.30   0.11  -0.02     0.25   0.12  -0.03
  17   1     0.01   0.03   0.01    -0.11  -0.03   0.01     0.22  -0.00  -0.03
  18   1    -0.02   0.02   0.19    -0.03   0.01  -0.14     0.54   0.31   0.06
  19   1     0.23   0.15  -0.09    -0.23  -0.04   0.11     0.17   0.05  -0.07
  20   1    -0.31  -0.18   0.08     0.25   0.10  -0.13     0.10   0.10  -0.00
  21   1     0.05   0.07  -0.13    -0.05  -0.05  -0.01    -0.11  -0.11  -0.08
  22   1     0.02  -0.02   0.03     0.13   0.14   0.12     0.10   0.14   0.06
  23   1     0.08  -0.07  -0.38     0.09  -0.04  -0.09    -0.00  -0.00  -0.01
  24   1    -0.08   0.11   0.45    -0.06   0.00   0.10     0.05   0.00  -0.01
  25   1    -0.13  -0.15  -0.01    -0.01  -0.07  -0.04    -0.12  -0.05   0.06
  26   1     0.04   0.04  -0.03     0.12   0.04  -0.06     0.08   0.07  -0.03
  27   1    -0.05  -0.12  -0.00    -0.27  -0.23  -0.27     0.13   0.10   0.15
  28   1     0.09   0.10  -0.03     0.23   0.24   0.29     0.04   0.04  -0.03
                     43                     44                     45
                        a                      a                      a 
 Frequencies --  1307.7959              1330.2268              1333.6854
 Red. masses --     3.7730                 4.0912                 3.5853
 Frc consts  --     0.0000                 0.0000                 0.0000
 IR Inten    --     2.1561                 4.7008                11.6653
 Raman Activ --     0.0000                 0.0000                 0.0000
 Depolar     --     0.0000                 0.0000                 0.0000
 Atom AN      X      Y      Z        X      Y      Z        X      Y      Z
   1   7    -0.04  -0.03  -0.04    -0.06  -0.02  -0.05     0.09   0.08   0.13
   2   6     0.03  -0.05   0.00     0.15  -0.04  -0.10    -0.27   0.14   0.19
   3   6     0.09   0.07   0.06    -0.09  -0.02   0.01    -0.07  -0.07  -0.05
   4   6     0.02  -0.09  -0.39     0.00   0.06   0.24    -0.01   0.02   0.01
   5   6     0.16  -0.00   0.03     0.15   0.08  -0.14     0.16   0.05  -0.06
   6   6    -0.00   0.01   0.05     0.01   0.04   0.03    -0.06  -0.03  -0.01
   7   6     0.00   0.01   0.01    -0.06   0.02   0.17    -0.01   0.02   0.04
   8   6    -0.05  -0.02   0.07     0.03  -0.00   0.03     0.05   0.02  -0.00
   9   6    -0.14  -0.02  -0.08    -0.13  -0.17  -0.19    -0.06  -0.07  -0.06
  10  17    -0.00   0.00   0.00    -0.00  -0.00  -0.00     0.00   0.00   0.00
  11   1     0.03  -0.03   0.06     0.05  -0.04   0.07     0.00   0.04  -0.12
  12   1     0.04   0.07   0.02     0.05   0.07   0.01    -0.06  -0.12  -0.03
  13   1    -0.00   0.01   0.00    -0.00   0.01   0.04    -0.02  -0.11  -0.14
  14   1     0.01   0.01   0.02    -0.17   0.09   0.13     0.30  -0.17  -0.26
  15   1    -0.12   0.07   0.10    -0.13   0.09   0.13     0.38  -0.24  -0.34
  16   1     0.09   0.07  -0.01    -0.02   0.02  -0.01     0.19   0.02  -0.01
  17   1    -0.23  -0.11  -0.01     0.16   0.08   0.01    -0.00   0.01   0.00
  18   1    -0.09   0.14   0.48     0.06  -0.11  -0.35     0.03  -0.01  -0.07
  19   1    -0.33  -0.09   0.15    -0.06  -0.07   0.02    -0.14  -0.06   0.06
  20   1    -0.02  -0.05  -0.03    -0.27  -0.10   0.14    -0.20  -0.09   0.08
  21   1     0.03   0.03   0.04     0.03   0.02   0.00     0.09   0.09   0.08
  22   1    -0.05  -0.07  -0.02    -0.12  -0.12  -0.11    -0.03  -0.05  -0.01
  23   1     0.01  -0.00  -0.00     0.04  -0.03  -0.15    -0.00   0.00   0.01
  24   1     0.02  -0.02  -0.09     0.06  -0.04  -0.19     0.02  -0.02  -0.10
  25   1    -0.05  -0.02   0.02    -0.10  -0.06   0.02    -0.08  -0.04   0.03
  26   1     0.12   0.10  -0.05     0.15   0.07  -0.06     0.01   0.02  -0.00
  27   1     0.22   0.19   0.24     0.09   0.11   0.06     0.05   0.05   0.05
  28   1     0.11   0.11   0.03     0.23   0.22   0.21     0.10   0.10   0.09
                     46                     47                     48
                        a                      a                      a 
 Frequencies --  1340.4057              1349.8366              1351.6630
 Red. masses --     4.1095                 4.2123                 4.6681
 Frc consts  --     0.0000                 0.0000                 0.0000
 IR Inten    --     1.8491                 3.0460                 9.5047
 Raman Activ --     0.0000                 0.0000                 0.0000
 Depolar     --     0.0000                 0.0000                 0.0000
 Atom AN      X      Y      Z        X      Y      Z        X      Y      Z
   1   7    -0.03   0.01  -0.01    -0.03   0.01  -0.01     0.02  -0.00   0.00
   2   6     0.07  -0.04  -0.05     0.10   0.03  -0.03    -0.01  -0.01   0.00
   3   6    -0.00   0.01   0.03    -0.29  -0.07   0.04     0.08   0.02   0.00
   4   6     0.01  -0.01  -0.02     0.05  -0.08  -0.10    -0.03  -0.01  -0.05
   5   6     0.08   0.03   0.04     0.13   0.04  -0.08    -0.07  -0.05   0.09
   6   6    -0.22  -0.17  -0.14     0.11   0.13   0.15     0.05  -0.09  -0.13
   7   6     0.05  -0.04  -0.19    -0.06  -0.05  -0.01    -0.14   0.08   0.42
   8   6     0.30   0.14  -0.07     0.15   0.07  -0.12     0.13   0.06  -0.20
   9   6    -0.10  -0.03  -0.00     0.07   0.13   0.15     0.01   0.09   0.09
  10  17    -0.00  -0.00  -0.00    -0.00  -0.00   0.00    -0.00   0.00   0.00
  11   1     0.04  -0.03  -0.00     0.03  -0.01  -0.02    -0.04   0.02  -0.03
  12   1     0.01   0.00  -0.01     0.02  -0.01  -0.02    -0.03  -0.04  -0.01
  13   1    -0.01  -0.03   0.00    -0.00  -0.01   0.01     0.01   0.02   0.02
  14   1    -0.08   0.05   0.07    -0.10   0.05   0.08     0.01  -0.00  -0.00
  15   1    -0.09   0.06   0.08     0.03  -0.00   0.02    -0.02   0.01   0.01
  16   1    -0.01   0.02  -0.00     0.31   0.11  -0.02    -0.07  -0.02   0.01
  17   1     0.01   0.00   0.00     0.34   0.11  -0.03    -0.09  -0.04   0.00
  18   1    -0.00  -0.00  -0.01    -0.12  -0.03   0.14     0.01   0.05   0.11
  19   1     0.01   0.06   0.00    -0.25  -0.13   0.10     0.12   0.06  -0.04
  20   1    -0.10  -0.05   0.04    -0.11  -0.05   0.05     0.10   0.02  -0.08
  21   1     0.20   0.20   0.20    -0.11  -0.10  -0.10     0.10   0.10   0.15
  22   1     0.18   0.14   0.21    -0.16  -0.18  -0.13    -0.01   0.02  -0.07
  23   1    -0.11   0.08   0.38    -0.05   0.02  -0.03     0.07  -0.06  -0.29
  24   1    -0.03   0.01   0.07    -0.01  -0.00   0.00     0.15  -0.11  -0.53
  25   1    -0.32  -0.15   0.14    -0.11  -0.04   0.06    -0.25  -0.09   0.14
  26   1    -0.30  -0.08   0.14    -0.23  -0.14   0.09    -0.05  -0.09   0.00
  27   1    -0.01  -0.05   0.03    -0.12  -0.17  -0.08    -0.11  -0.12  -0.08
  28   1     0.09   0.09   0.08    -0.16  -0.14  -0.11    -0.04  -0.03  -0.07
                     49                     50                     51
                        a                      a                      a 
 Frequencies --  1356.7993              1364.4448              1378.7413
 Red. masses --     4.5507                 4.3903                 2.5866
 Frc consts  --     0.0000                 0.0000                 0.0000
 IR Inten    --     0.1272                 4.0809               152.5943
 Raman Activ --     0.0000                 0.0000                 0.0000
 Depolar     --     0.0000                 0.0000                 0.0000
 Atom AN      X      Y      Z        X      Y      Z        X      Y      Z
   1   7     0.01   0.02   0.02     0.03  -0.02  -0.01     0.07  -0.25  -0.20
   2   6    -0.06  -0.00   0.03    -0.04  -0.03  -0.01    -0.06   0.04   0.05
   3   6     0.11   0.02  -0.02     0.28   0.05   0.01    -0.06  -0.04  -0.02
   4   6     0.03   0.14   0.01    -0.31  -0.14   0.04     0.03   0.02  -0.00
   5   6    -0.18  -0.08  -0.01     0.17   0.14  -0.12    -0.01   0.00   0.00
   6   6     0.22   0.17   0.17     0.02   0.05   0.10    -0.01  -0.01  -0.01
   7   6    -0.06  -0.13  -0.05    -0.01  -0.03  -0.04    -0.00  -0.01  -0.02
   8   6     0.26   0.09  -0.04     0.06   0.00  -0.03     0.04   0.03  -0.01
   9   6    -0.15  -0.10  -0.07     0.09   0.10   0.06    -0.03  -0.02   0.00
  10  17    -0.00  -0.00   0.00     0.00  -0.00   0.00     0.01   0.00  -0.01
  11   1     0.03  -0.01  -0.01    -0.09   0.04  -0.01    -0.43   0.15   0.40
  12   1    -0.00   0.00   0.01    -0.04  -0.03  -0.00     0.04   0.23   0.15
  13   1    -0.01  -0.05  -0.04     0.02   0.05   0.04     0.12   0.56   0.21
  14   1     0.07  -0.04  -0.06     0.03   0.01   0.00     0.11  -0.02  -0.05
  15   1     0.01  -0.01  -0.05    -0.05   0.02   0.05     0.13  -0.09  -0.05
  16   1    -0.11  -0.05   0.01    -0.19  -0.07   0.01     0.08   0.03  -0.02
  17   1    -0.17  -0.05   0.01    -0.28  -0.14  -0.00     0.03   0.02   0.01
  18   1    -0.09  -0.03  -0.04     0.50   0.24  -0.11     0.00  -0.01  -0.02
  19   1     0.07  -0.00  -0.04    -0.17  -0.12   0.07     0.01   0.00  -0.01
  20   1     0.26   0.13  -0.09    -0.22  -0.07   0.10     0.00   0.00  -0.00
  21   1    -0.26  -0.25  -0.23    -0.05  -0.06  -0.08     0.00   0.01   0.01
  22   1    -0.13  -0.11  -0.14    -0.09  -0.08  -0.07     0.01   0.01   0.01
  23   1    -0.07   0.02   0.01    -0.04   0.02   0.02    -0.01   0.01   0.04
  24   1     0.01   0.03   0.10    -0.03   0.01   0.06     0.01   0.00   0.00
  25   1    -0.28  -0.15   0.09    -0.04  -0.02   0.02    -0.05  -0.02   0.02
  26   1    -0.19  -0.06   0.10    -0.09  -0.03   0.04    -0.04  -0.02   0.02
  27   1     0.04   0.03   0.06    -0.11  -0.13  -0.10     0.02   0.03   0.02
  28   1     0.20   0.18   0.16    -0.08  -0.05  -0.03     0.03   0.02  -0.00
                     52                     53                     54
                        a                      a                      a 
 Frequencies --  1403.2300              1448.3250              1486.3464
 Red. masses --     1.6774                 1.9263                 1.8566
 Frc consts  --     0.0000                 0.0000                 0.0000
 IR Inten    --    75.4072                93.2062                10.1850
 Raman Activ --     0.0000                 0.0000                 0.0000
 Depolar     --     0.0000                 0.0000                 0.0000
 Atom AN      X      Y      Z        X      Y      Z        X      Y      Z
   1   7    -0.12   0.00  -0.13    -0.12  -0.06   0.23     0.01  -0.00  -0.01
   2   6    -0.12   0.04   0.02     0.01  -0.04   0.02     0.19   0.03   0.19
   3   6     0.04   0.00  -0.01     0.01   0.03   0.01     0.02  -0.05  -0.00
   4   6    -0.03  -0.00   0.02    -0.01  -0.00   0.01    -0.02  -0.02  -0.01
   5   6     0.00   0.00  -0.00     0.00   0.00  -0.00     0.00   0.01   0.00
   6   6    -0.00  -0.01  -0.01     0.00  -0.00  -0.00     0.00   0.00   0.00
   7   6    -0.00   0.01   0.02    -0.00   0.00   0.00     0.00  -0.00  -0.00
   8   6     0.01  -0.01  -0.03     0.00  -0.00  -0.00     0.00  -0.00  -0.00
   9   6     0.04   0.05   0.01     0.00   0.01   0.01     0.00   0.01   0.01
  10  17    -0.01  -0.00  -0.01     0.00  -0.00   0.00    -0.00   0.00  -0.00
  11   1     0.45  -0.25   0.47    -0.06   0.01   0.02     0.00   0.01   0.07
  12   1     0.26   0.48   0.20     0.59  -0.04  -0.30    -0.02   0.04   0.05
  13   1    -0.05  -0.23  -0.06    -0.06   0.34  -0.59     0.01   0.00   0.05
  14   1     0.10  -0.03  -0.07    -0.06  -0.01   0.02    -0.42  -0.45  -0.21
  15   1     0.08  -0.06  -0.05    -0.04   0.02  -0.06    -0.27   0.26  -0.55
  16   1    -0.02  -0.03   0.01    -0.00  -0.06   0.03    -0.04   0.12  -0.06
  17   1    -0.02  -0.03  -0.02     0.01  -0.05  -0.05    -0.04   0.09   0.10
  18   1     0.04   0.02  -0.01     0.01   0.00  -0.00     0.04   0.02   0.01
  19   1     0.01   0.00  -0.00     0.00   0.00  -0.00     0.00  -0.02   0.00
  20   1    -0.01  -0.00  -0.00    -0.00  -0.00   0.00    -0.01  -0.01  -0.01
  21   1     0.02   0.01   0.01    -0.00   0.00   0.00    -0.00  -0.00   0.00
  22   1     0.00   0.01  -0.00    -0.00   0.00  -0.00     0.00  -0.00   0.00
  23   1     0.00  -0.00  -0.02     0.00  -0.00  -0.01    -0.00   0.00   0.00
  24   1    -0.01  -0.01  -0.02     0.00   0.00  -0.00    -0.00  -0.00   0.00
  25   1     0.01   0.01   0.00    -0.00  -0.00  -0.00    -0.00   0.00   0.01
  26   1    -0.02  -0.02   0.00    -0.00  -0.00  -0.00    -0.01   0.00   0.00
  27   1    -0.06  -0.12  -0.04    -0.02  -0.00  -0.02    -0.01   0.00  -0.01
  28   1    -0.08  -0.03   0.03     0.01  -0.00  -0.02     0.00  -0.01  -0.02
                     55                     56                     57
                        a                      a                      a 
 Frequencies --  1496.4623              1502.5166              1506.7712
 Red. masses --     1.9312                 1.9127                 1.9642
 Frc consts  --     0.0000                 0.0000                 0.0000
 IR Inten    --     6.2595                 4.4915                 0.8887
 Raman Activ --     0.0000                 0.0000                 0.0000
 Depolar     --     0.0000                 0.0000                 0.0000
 Atom AN      X      Y      Z        X      Y      Z        X      Y      Z
   1   7    -0.02   0.01   0.02    -0.00  -0.00   0.02    -0.00   0.00  -0.01
   2   6    -0.04  -0.02  -0.03    -0.02  -0.02  -0.02     0.00   0.01   0.01
   3   6     0.08  -0.20  -0.04     0.06  -0.14  -0.03    -0.02   0.05   0.01
   4   6    -0.01  -0.02   0.00     0.01  -0.00  -0.03    -0.01  -0.02  -0.01
   5   6     0.00   0.06   0.03    -0.00  -0.06  -0.02     0.01   0.02   0.01
   6   6     0.01   0.02  -0.02    -0.02  -0.06   0.07    -0.04  -0.06   0.08
   7   6    -0.01  -0.00  -0.01     0.02   0.01   0.02    -0.07   0.00  -0.03
   8   6     0.01  -0.04  -0.03    -0.02   0.11   0.07    -0.01   0.16   0.11
   9   6    -0.03  -0.07   0.13     0.04   0.08  -0.12    -0.04  -0.07   0.15
  10  17    -0.00   0.00  -0.00     0.00  -0.00   0.00    -0.00   0.00   0.00
  11   1     0.05  -0.02   0.01    -0.02   0.01  -0.02     0.03  -0.02   0.02
  12   1     0.06   0.01  -0.02     0.04  -0.02  -0.03    -0.01   0.02   0.02
  13   1    -0.01  -0.01  -0.06    -0.00   0.03  -0.05    -0.00  -0.03   0.02
  14   1     0.08   0.08   0.04     0.04   0.04   0.02    -0.01  -0.02  -0.01
  15   1     0.05  -0.05   0.09     0.02  -0.03   0.04    -0.01   0.01  -0.02
  16   1    -0.17   0.42  -0.25    -0.13   0.31  -0.18     0.05  -0.10   0.06
  17   1    -0.10   0.35   0.38    -0.08   0.25   0.28     0.03  -0.08  -0.09
  18   1     0.00   0.00   0.02    -0.01   0.00   0.01     0.02   0.01   0.02
  19   1     0.05  -0.16   0.01    -0.07   0.13  -0.00     0.00  -0.03   0.01
  20   1    -0.03  -0.07  -0.14     0.04   0.07   0.13    -0.02  -0.02  -0.02
  21   1    -0.06  -0.01   0.05     0.15   0.02  -0.16     0.16   0.02  -0.17
  22   1     0.02  -0.07   0.04    -0.06   0.18  -0.12    -0.06   0.19  -0.12
  23   1     0.01  -0.01   0.01    -0.04   0.03  -0.02     0.12  -0.10   0.08
  24   1     0.01   0.01   0.01    -0.04  -0.03  -0.01     0.13   0.10   0.02
  25   1     0.02   0.04   0.10    -0.06  -0.12  -0.29    -0.11  -0.20  -0.42
  26   1    -0.06   0.10   0.00     0.13  -0.28   0.00     0.17  -0.42   0.02
  27   1    -0.12   0.25  -0.20     0.12  -0.27   0.21    -0.12   0.27  -0.20
  28   1     0.21   0.01  -0.29    -0.24  -0.03   0.29     0.23   0.02  -0.30
                     58                     59                     60
                        a                      a                      a 
 Frequencies --  1512.1403              1513.2699              1524.0751
 Red. masses --     1.9275                 1.9336                 1.9853
 Frc consts  --     0.0000                 0.0000                 0.0000
 IR Inten    --     0.1513                 1.0161                 0.0811
 Raman Activ --     0.0000                 0.0000                 0.0000
 Depolar     --     0.0000                 0.0000                 0.0000
 Atom AN      X      Y      Z        X      Y      Z        X      Y      Z
   1   7     0.00  -0.00  -0.00    -0.00   0.00  -0.00    -0.00   0.00  -0.00
   2   6     0.00   0.00   0.00    -0.00   0.00  -0.00    -0.00   0.00   0.00
   3   6    -0.02   0.02   0.00     0.00  -0.00  -0.00     0.01   0.00   0.00
   4   6     0.01   0.01   0.00    -0.01  -0.02  -0.01    -0.02  -0.02  -0.00
   5   6    -0.02   0.09   0.08     0.03  -0.16  -0.10     0.02  -0.13  -0.09
   6   6    -0.04  -0.09   0.13    -0.04  -0.08   0.13     0.04   0.05  -0.10
   7   6     0.19  -0.01   0.05    -0.06  -0.01  -0.01     0.19   0.01   0.06
   8   6     0.02  -0.03  -0.02     0.02  -0.10  -0.08    -0.01   0.05   0.05
   9   6    -0.02  -0.02   0.01    -0.01  -0.03   0.06    -0.02  -0.04   0.07
  10  17     0.00   0.00  -0.00     0.00  -0.00  -0.00    -0.00   0.00   0.00
  11   1    -0.00   0.00  -0.00     0.01  -0.00   0.01     0.01  -0.01   0.01
  12   1    -0.01  -0.00   0.00     0.00   0.01   0.00    -0.00   0.01   0.01
  13   1     0.00  -0.00   0.01    -0.00  -0.00   0.00    -0.00  -0.01   0.00
  14   1    -0.00  -0.00   0.00    -0.00  -0.00  -0.00    -0.00  -0.00  -0.00
  15   1    -0.00   0.00  -0.00     0.00  -0.00  -0.00    -0.00   0.00  -0.00
  16   1     0.03  -0.05   0.03    -0.01   0.02  -0.01    -0.01  -0.00   0.00
  17   1     0.02  -0.04  -0.04     0.00   0.02   0.02     0.00  -0.00  -0.00
  18   1    -0.03  -0.01   0.00    -0.01  -0.01   0.00     0.03   0.01   0.00
  19   1     0.11  -0.24   0.01    -0.19   0.40  -0.00    -0.14   0.34  -0.01
  20   1    -0.05  -0.12  -0.25     0.08   0.18   0.40     0.07   0.16   0.33
  21   1     0.27   0.03  -0.28     0.24   0.02  -0.28    -0.17  -0.02   0.19
  22   1    -0.09   0.32  -0.20    -0.10   0.28  -0.20     0.07  -0.20   0.13
  23   1    -0.35   0.27  -0.15     0.08  -0.07   0.04    -0.32   0.26  -0.15
  24   1    -0.37  -0.27  -0.04     0.10   0.07   0.01    -0.35  -0.26  -0.05
  25   1     0.02   0.03   0.09     0.06   0.12   0.28    -0.03  -0.07  -0.15
  26   1    -0.03   0.09  -0.00    -0.13   0.26  -0.00     0.07  -0.14   0.01
  27   1    -0.01   0.04  -0.02    -0.05   0.10  -0.09    -0.06   0.14  -0.10
  28   1     0.04   0.01  -0.03     0.09   0.00  -0.12     0.12   0.01  -0.16
                     61                     62                     63
                        a                      a                      a 
 Frequencies --  2881.7323              2884.4674              2897.4623
 Red. masses --     1.9853                 1.7516                 1.9132
 Frc consts  --     0.0000                 0.0000                 0.0000
 IR Inten    --  1341.0944                 8.2731                48.3154
 Raman Activ --     0.0000                 0.0000                 0.0000
 Depolar     --     0.0000                 0.0000                 0.0000
 Atom AN      X      Y      Z        X      Y      Z        X      Y      Z
   1   7    -0.12  -0.24   0.00     0.01   0.01   0.00    -0.00  -0.01   0.00
   2   6     0.03   0.04  -0.01     0.00   0.00  -0.00     0.00   0.00  -0.00
   3   6     0.00   0.00   0.01    -0.00   0.00  -0.01    -0.00   0.00  -0.00
   4   6     0.01  -0.01   0.00     0.11  -0.21   0.08     0.01  -0.02   0.01
   5   6    -0.01   0.00  -0.01    -0.02   0.02  -0.04     0.01   0.01   0.01
   6   6     0.00  -0.00  -0.00    -0.02   0.01   0.01     0.18  -0.11  -0.08
   7   6    -0.00  -0.02   0.00    -0.00  -0.02   0.00     0.01   0.17  -0.04
   8   6    -0.01   0.01  -0.01    -0.01   0.00  -0.01    -0.00  -0.00  -0.01
   9   6     0.03  -0.02  -0.01    -0.03   0.03   0.01     0.01  -0.01   0.00
  10  17     0.00   0.01  -0.00    -0.00  -0.00   0.00     0.00   0.00  -0.00
  11   1     0.41   0.83   0.03    -0.02  -0.03   0.00     0.01   0.02   0.00
  12   1    -0.02   0.00  -0.02    -0.00   0.00  -0.00    -0.00   0.00  -0.00
  13   1     0.04  -0.02  -0.00    -0.00   0.00   0.00     0.00  -0.00  -0.00
  14   1     0.01  -0.01   0.02    -0.00  -0.00   0.00     0.00  -0.00   0.00
  15   1    -0.11  -0.15  -0.01    -0.01  -0.01  -0.00    -0.01  -0.01  -0.00
  16   1     0.00  -0.01  -0.01     0.00   0.00  -0.00    -0.00   0.00   0.00
  17   1    -0.00   0.00  -0.00     0.02  -0.04   0.04     0.00  -0.00   0.00
  18   1    -0.02   0.04  -0.01    -0.43   0.77  -0.29    -0.05   0.09  -0.03
  19   1     0.01   0.01   0.04     0.04   0.02   0.11    -0.02  -0.01  -0.06
  20   1     0.01  -0.01   0.00     0.06  -0.10   0.03     0.02  -0.03   0.01
  21   1    -0.00   0.00  -0.00     0.02  -0.03   0.01    -0.16   0.30  -0.14
  22   1    -0.00   0.00   0.00     0.05  -0.01  -0.04    -0.50   0.11   0.41
  23   1     0.03   0.03   0.00     0.02   0.03   0.00    -0.24  -0.28  -0.01
  24   1    -0.03   0.04  -0.02    -0.02   0.03  -0.01     0.24  -0.34   0.14
  25   1     0.01  -0.03   0.01     0.01  -0.02   0.00    -0.01   0.02  -0.01
  26   1     0.01   0.01   0.03     0.01   0.01   0.03     0.02   0.01   0.04
  27   1    -0.06   0.01   0.05     0.06  -0.01  -0.05    -0.01   0.00   0.01
  28   1    -0.04   0.07  -0.03     0.07  -0.11   0.05    -0.02   0.03  -0.01
                     64                     65                     66
                        a                      a                      a 
 Frequencies --  2899.9072              2902.6944              2905.9066
 Red. masses --     1.9351                 1.9254                 1.8530
 Frc consts  --     0.0000                 0.0000                 0.0000
 IR Inten    --    59.6899                49.4915                56.6468
 Raman Activ --     0.0000                 0.0000                 0.0000
 Depolar     --     0.0000                 0.0000                 0.0000
 Atom AN      X      Y      Z        X      Y      Z        X      Y      Z
   1   7    -0.01  -0.01   0.00    -0.01  -0.02   0.00    -0.01  -0.02   0.00
   2   6     0.00   0.00  -0.00     0.00   0.00  -0.00     0.00   0.01  -0.00
   3   6    -0.00   0.00  -0.00    -0.00   0.00  -0.01     0.00  -0.00   0.01
   4   6     0.01  -0.01   0.00     0.01  -0.02   0.01    -0.00   0.01  -0.00
   5   6     0.03  -0.03   0.04     0.12  -0.06   0.22    -0.01   0.00  -0.03
   6   6    -0.13   0.07   0.07     0.01   0.01  -0.01     0.01  -0.01  -0.01
   7   6     0.03   0.22  -0.03    -0.01  -0.03   0.00    -0.03  -0.00  -0.00
   8   6     0.02  -0.01   0.02    -0.00  -0.01  -0.00     0.11  -0.03   0.23
   9   6     0.03  -0.03  -0.01    -0.09   0.08   0.01    -0.05   0.06  -0.00
  10  17    -0.00   0.00   0.00     0.00   0.00  -0.00     0.00   0.00  -0.00
  11   1     0.02   0.04   0.00     0.03   0.07   0.00     0.03   0.06   0.00
  12   1    -0.00   0.00  -0.00    -0.00   0.00  -0.00    -0.00   0.00  -0.00
  13   1     0.00  -0.00   0.00     0.00  -0.00  -0.00     0.00  -0.00  -0.00
  14   1     0.00   0.00  -0.00     0.00  -0.00   0.00     0.00  -0.01   0.01
  15   1    -0.01  -0.01  -0.00    -0.01  -0.02  -0.00    -0.02  -0.03  -0.00
  16   1    -0.00   0.00   0.00    -0.01   0.01   0.03     0.00  -0.00  -0.01
  17   1     0.00  -0.00   0.00     0.01  -0.02   0.02    -0.01   0.01  -0.01
  18   1    -0.02   0.05  -0.02    -0.03   0.06  -0.03     0.01  -0.01   0.00
  19   1    -0.03  -0.02  -0.10    -0.25  -0.13  -0.69     0.04   0.02   0.10
  20   1    -0.07   0.12  -0.04    -0.19   0.34  -0.09     0.02  -0.03   0.01
  21   1     0.07  -0.15   0.07     0.04  -0.07   0.03    -0.01   0.02  -0.01
  22   1     0.41  -0.09  -0.33    -0.07   0.02   0.05    -0.03   0.01   0.03
  23   1    -0.37  -0.46  -0.01     0.05   0.07   0.00     0.06   0.08  -0.00
  24   1     0.24  -0.32   0.14    -0.03   0.04  -0.02     0.05  -0.09   0.03
  25   1    -0.05   0.08  -0.02    -0.01   0.02  -0.01    -0.14   0.25  -0.05
  26   1    -0.02  -0.01  -0.06     0.01   0.00   0.03    -0.28  -0.14  -0.79
  27   1    -0.06   0.01   0.06     0.17  -0.03  -0.15     0.06  -0.00  -0.06
  28   1    -0.05   0.08  -0.03     0.16  -0.27   0.11     0.13  -0.21   0.08
                     67                     68                     69
                        a                      a                      a 
 Frequencies --  2911.1599              2920.8306              2932.5920
 Red. masses --     1.8936                 1.9311                 1.8279
 Frc consts  --     0.0000                 0.0000                 0.0000
 IR Inten    --   101.0543                21.6737                23.9877
 Raman Activ --     0.0000                 0.0000                 0.0000
 Depolar     --     0.0000                 0.0000                 0.0000
 Atom AN      X      Y      Z        X      Y      Z        X      Y      Z
   1   7    -0.01  -0.02   0.00    -0.00  -0.01   0.00    -0.02  -0.05  -0.00
   2   6     0.00   0.00   0.00     0.01   0.00   0.00    -0.11  -0.23   0.03
   3   6     0.01  -0.01   0.04    -0.01  -0.01  -0.28    -0.02   0.04  -0.01
   4   6    -0.03   0.04  -0.02    -0.01   0.01  -0.01     0.00   0.00   0.00
   5   6    -0.04   0.00  -0.09    -0.01   0.01  -0.02     0.00  -0.02  -0.01
   6   6    -0.01  -0.01   0.02    -0.00  -0.00   0.01    -0.00  -0.00   0.01
   7   6     0.03   0.05  -0.00     0.01   0.01   0.00    -0.05   0.00  -0.01
   8   6    -0.02  -0.01  -0.07    -0.00  -0.00  -0.00    -0.00  -0.00  -0.00
   9   6    -0.18   0.15   0.03    -0.03   0.01   0.02    -0.01   0.00   0.01
  10  17     0.00   0.00  -0.00     0.00   0.00   0.00     0.00   0.00  -0.00
  11   1     0.04   0.08   0.00     0.01   0.02  -0.00     0.08   0.16   0.00
  12   1    -0.00   0.00  -0.00    -0.00   0.00   0.00    -0.00   0.00  -0.00
  13   1     0.01  -0.00  -0.00     0.00  -0.00  -0.00     0.01  -0.00  -0.00
  14   1     0.00  -0.00   0.00    -0.02   0.04  -0.04    -0.09   0.14  -0.19
  15   1    -0.01  -0.01  -0.00    -0.03  -0.04  -0.00     0.49   0.69   0.07
  16   1     0.01  -0.04  -0.08    -0.08   0.37   0.69     0.01  -0.03  -0.08
  17   1    -0.03   0.07  -0.07     0.14  -0.35   0.33     0.05  -0.12   0.13
  18   1     0.08  -0.15   0.05     0.03  -0.05   0.02    -0.00   0.01  -0.00
  19   1     0.11   0.05   0.31     0.02   0.01   0.06     0.02   0.00   0.04
  20   1     0.04  -0.07   0.01     0.03  -0.05   0.02    -0.03   0.05  -0.02
  21   1    -0.04   0.06  -0.02    -0.02   0.02  -0.01    -0.01   0.02  -0.01
  22   1     0.08  -0.02  -0.06     0.02  -0.01  -0.01     0.03  -0.01  -0.02
  23   1    -0.13  -0.17   0.00    -0.02  -0.03   0.00     0.09   0.13  -0.00
  24   1     0.02  -0.01   0.01    -0.00   0.01  -0.00     0.09  -0.15   0.06
  25   1    -0.02   0.03  -0.02    -0.00   0.01  -0.00    -0.00   0.01  -0.00
  26   1     0.10   0.04   0.26     0.00   0.00   0.01     0.01   0.00   0.02
  27   1     0.37  -0.06  -0.32     0.09  -0.02  -0.07     0.03  -0.01  -0.02
  28   1     0.28  -0.49   0.20     0.01  -0.02   0.01    -0.00  -0.00   0.00
                     70                     71                     72
                        a                      a                      a 
 Frequencies --  2933.5174              2939.5423              2943.9405
 Red. masses --     1.5265                 1.5176                 1.6036
 Frc consts  --     0.0000                 0.0000                 0.0000
 IR Inten    --    75.2564                40.2261                69.9498
 Raman Activ --     0.0000                 0.0000                 0.0000
 Depolar     --     0.0000                 0.0000                 0.0000
 Atom AN      X      Y      Z        X      Y      Z        X      Y      Z
   1   7     0.01   0.01   0.00     0.00   0.00   0.00    -0.01  -0.01   0.00
   2   6     0.03   0.06  -0.01     0.01   0.01   0.00    -0.01  -0.02  -0.00
   3   6     0.01  -0.01  -0.00    -0.01   0.02  -0.01     0.02  -0.05   0.01
   4   6    -0.00   0.00  -0.00     0.00  -0.00  -0.00    -0.01   0.01  -0.00
   5   6     0.00  -0.02  -0.01     0.02  -0.10  -0.05    -0.06   0.16   0.01
   6   6    -0.03  -0.01   0.03    -0.01   0.13  -0.12    -0.04   0.10  -0.06
   7   6    -0.19   0.01  -0.06    -0.01   0.03  -0.01    -0.02   0.03  -0.01
   8   6    -0.01  -0.02  -0.04    -0.00  -0.00  -0.01     0.01  -0.03  -0.00
   9   6    -0.01   0.00   0.01    -0.00  -0.01   0.01    -0.02   0.00   0.02
  10  17    -0.00  -0.00   0.00     0.00  -0.00   0.00     0.00   0.00   0.00
  11   1    -0.02  -0.04  -0.00    -0.00  -0.01  -0.00     0.02   0.04   0.00
  12   1     0.00  -0.00   0.00    -0.00   0.00   0.00    -0.00   0.00  -0.00
  13   1    -0.00   0.00   0.00     0.00  -0.00   0.00     0.00  -0.00  -0.00
  14   1     0.02  -0.04   0.05     0.00   0.00   0.00    -0.00   0.00  -0.00
  15   1    -0.13  -0.19  -0.02    -0.02  -0.03  -0.00     0.05   0.08   0.01
  16   1    -0.00   0.01   0.03     0.00  -0.01  -0.02    -0.01   0.05   0.11
  17   1    -0.01   0.03  -0.03     0.02  -0.06   0.06    -0.06   0.14  -0.16
  18   1     0.01  -0.01   0.00    -0.00   0.01  -0.00     0.02  -0.03   0.01
  19   1     0.02   0.01   0.06     0.12   0.04   0.32    -0.11  -0.02  -0.27
  20   1    -0.04   0.06  -0.02    -0.21   0.34  -0.14     0.34  -0.56   0.22
  21   1    -0.04   0.05  -0.02     0.34  -0.57   0.22     0.24  -0.40   0.16
  22   1     0.12  -0.03  -0.09    -0.30   0.09   0.22    -0.11   0.04   0.07
  23   1     0.34   0.49  -0.01    -0.02  -0.02  -0.00     0.01   0.02  -0.00
  24   1     0.33  -0.55   0.21     0.04  -0.07   0.02     0.07  -0.11   0.04
  25   1    -0.04   0.06  -0.03    -0.01   0.01  -0.00    -0.07   0.12  -0.04
  26   1     0.06   0.03   0.17     0.01   0.00   0.03     0.03   0.01   0.06
  27   1     0.04  -0.01  -0.03     0.04  -0.01  -0.03     0.08  -0.02  -0.06
  28   1    -0.00   0.00   0.00    -0.02   0.03  -0.01    -0.01   0.01  -0.00
                     73                     74                     75
                        a                      a                      a 
 Frequencies --  2947.4097              2953.6046              2956.9145
 Red. masses --     1.4984                 1.5604                 1.6430
 Frc consts  --     0.0000                 0.0000                 0.0000
 IR Inten    --    60.9743                22.7289                71.7379
 Raman Activ --     0.0000                 0.0000                 0.0000
 Depolar     --     0.0000                 0.0000                 0.0000
 Atom AN      X      Y      Z        X      Y      Z        X      Y      Z
   1   7     0.00   0.00  -0.00     0.01   0.01  -0.00     0.00   0.01  -0.00
   2   6    -0.01  -0.02   0.00     0.02   0.03   0.01     0.02   0.02   0.01
   3   6     0.01  -0.05  -0.02    -0.06   0.17  -0.02    -0.03   0.08  -0.01
   4   6    -0.00   0.00  -0.01    -0.01   0.02  -0.00    -0.01   0.02  -0.01
   5   6    -0.00  -0.01  -0.01    -0.02   0.04   0.00    -0.02   0.05   0.00
   6   6     0.00   0.01  -0.01    -0.00   0.01  -0.00    -0.02   0.03  -0.01
   7   6    -0.00  -0.00  -0.00     0.01  -0.01   0.00    -0.03   0.04  -0.01
   8   6     0.01  -0.04  -0.03     0.05  -0.11  -0.00    -0.08   0.18  -0.01
   9   6     0.08   0.08  -0.16     0.01   0.00  -0.02    -0.01   0.05  -0.04
  10  17     0.00  -0.00   0.00     0.00  -0.00   0.00    -0.00   0.00   0.00
  11   1    -0.00   0.00   0.00    -0.01  -0.02  -0.00    -0.01  -0.01  -0.00
  12   1     0.00  -0.01   0.01     0.00  -0.00   0.01     0.00  -0.00   0.01
  13   1    -0.01   0.00   0.00    -0.01   0.00   0.00    -0.00   0.00   0.00
  14   1    -0.01   0.02  -0.02    -0.01   0.02  -0.02    -0.01   0.02  -0.02
  15   1     0.03   0.05   0.01    -0.09  -0.14  -0.01    -0.05  -0.08  -0.01
  16   1    -0.01   0.08   0.17     0.03  -0.18  -0.41     0.01  -0.08  -0.18
  17   1    -0.04   0.09  -0.11     0.17  -0.43   0.48     0.08  -0.21   0.23
  18   1     0.00  -0.01   0.00     0.02  -0.04   0.02     0.03  -0.06   0.02
  19   1     0.01   0.01   0.04    -0.03  -0.00  -0.07    -0.03  -0.00  -0.07
  20   1    -0.02   0.03  -0.01     0.08  -0.13   0.05     0.10  -0.16   0.06
  21   1     0.02  -0.03   0.01     0.01  -0.02   0.01     0.06  -0.10   0.04
  22   1    -0.03   0.01   0.02    -0.01   0.00   0.00    -0.00   0.00  -0.00
  23   1     0.00   0.00  -0.00     0.00  -0.00   0.00     0.00   0.01  -0.00
  24   1     0.00  -0.00   0.00    -0.03   0.04  -0.01     0.09  -0.14   0.05
  25   1    -0.08   0.13  -0.05    -0.23   0.37  -0.13     0.37  -0.62   0.22
  26   1     0.05   0.02   0.14     0.06   0.01   0.14    -0.07  -0.00  -0.17
  27   1    -0.57   0.15   0.45    -0.07   0.02   0.06    -0.10   0.03   0.08
  28   1     0.29  -0.44   0.14     0.02  -0.03   0.01     0.13  -0.21   0.08
                     76                     77                     78
                        a                      a                      a 
 Frequencies --  2986.9124              3170.2954              3180.0874
 Red. masses --     1.6424                 2.0251                 1.4922
 Frc consts  --     0.0000                 0.0000                 0.0000
 IR Inten    --     8.2697                51.2716                18.5225
 Raman Activ --     0.0000                 0.0000                 0.0000
 Depolar     --     0.0000                 0.0000                 0.0000
 Atom AN      X      Y      Z        X      Y      Z        X      Y      Z
   1   7    -0.00   0.01  -0.00    -0.25   0.11  -0.08    -0.05  -0.08   0.17
   2   6     0.10  -0.10   0.19    -0.01   0.00  -0.01     0.00  -0.00   0.01
   3   6     0.01  -0.02   0.03     0.00   0.00   0.00    -0.00   0.00  -0.00
   4   6     0.00  -0.00   0.00     0.00  -0.00   0.00    -0.00   0.00  -0.00
   5   6     0.00  -0.00   0.00    -0.00   0.00   0.00    -0.00   0.00   0.00
   6   6     0.00  -0.00   0.00    -0.00   0.00   0.00     0.00  -0.00   0.00
   7   6     0.00  -0.00   0.00    -0.00   0.00  -0.00    -0.00  -0.00  -0.00
   8   6     0.00  -0.00   0.00    -0.00  -0.00   0.00     0.00  -0.00  -0.00
   9   6    -0.00  -0.00   0.00     0.00  -0.00  -0.00     0.00   0.00  -0.00
  10  17    -0.00  -0.00  -0.00     0.00  -0.00   0.00     0.00   0.00  -0.00
  11   1    -0.01  -0.02   0.00    -0.03  -0.01  -0.01    -0.03  -0.07   0.01
  12   1     0.01  -0.02   0.03     0.18  -0.31   0.41    -0.31   0.44  -0.59
  13   1    -0.00   0.00   0.00     0.78  -0.08  -0.12     0.55  -0.08  -0.06
  14   1    -0.24   0.59  -0.68     0.00  -0.01   0.01    -0.01   0.02  -0.02
  15   1    -0.13  -0.23   0.00     0.00   0.00  -0.00    -0.00  -0.01  -0.00
  16   1     0.00  -0.01  -0.01    -0.00   0.00   0.00     0.00  -0.00  -0.01
  17   1    -0.03   0.07  -0.08     0.00  -0.00   0.00     0.00  -0.00   0.01
  18   1    -0.00   0.01  -0.00    -0.00   0.00  -0.00     0.00  -0.00   0.00
  19   1    -0.00  -0.00  -0.00    -0.00  -0.00  -0.00     0.00  -0.00  -0.00
  20   1    -0.00   0.00  -0.00     0.00  -0.00   0.00     0.00  -0.00   0.00
  21   1    -0.00   0.00  -0.00     0.00  -0.00   0.00    -0.00   0.00  -0.00
  22   1     0.00  -0.00  -0.00     0.00  -0.00  -0.00     0.00   0.00  -0.00
  23   1     0.00   0.00  -0.00    -0.00  -0.00   0.00     0.00   0.00  -0.00
  24   1    -0.00   0.00  -0.00     0.00  -0.00   0.00     0.00  -0.00   0.00
  25   1    -0.01   0.01  -0.00    -0.00   0.00  -0.00    -0.00   0.00  -0.00
  26   1    -0.00  -0.00  -0.00     0.00   0.00   0.00     0.00   0.00   0.00
  27   1     0.01  -0.00  -0.01    -0.00   0.00   0.00    -0.01   0.00   0.01
  28   1    -0.01   0.02  -0.01    -0.00   0.00   0.00     0.00  -0.00   0.00
