 Entering Gaussian System
 *********************************************
 Gaussian 98:
 frequency output generated by the xtb code
 *********************************************
                         Standard orientation:
 --------------------------------------------------------------------
  Center     Atomic     Atomic              Coordinates (Angstroms)
  Number     Number      Type              X           Y           Z
 --------------------------------------------------------------------
    1          7             0       -1.647617    0.791628   -0.404036
    2          6             0       -1.269093   -0.581253    0.048105
    3          6             0        0.040709   -0.660539    0.838871
    4          6             0        1.327297   -0.588137   -0.004714
    5          6             0        1.773493    0.821740   -0.371848
    6          1             0       -1.000908    1.145393   -1.115909
    7          1             0       -1.649151    1.447779    0.383923
    8          1             0       -2.585169    0.797012   -0.819902
    9          1             0       -1.221430   -1.249795   -0.818964
   10          1             0       -2.090533   -0.965518    0.666749
   11          1             0        0.046017   -1.600538    1.406963
   12          1             0        0.057136    0.127533    1.598730
   13          1             0        1.200591   -1.192358   -0.911092
   14          1             0        2.144096   -1.075890    0.544814
   15          1             0        1.905330    1.438401    0.518311
   16          1             0        1.052713    1.324503   -1.013556
   17          1             0        2.724821    0.816734   -0.907741
 --------------------------------------------------------------------
     1 basis functions        1 primitive gaussians
     1 alpha electrons        1 beta electrons

 Harmonic frequencies (cm**-1), IR intensities (km*mol⁻¹),
 Raman scattering activities (A**4/amu), Raman depolarization ratios,
 reduced masses (AMU), force constants (mDyne/A) and normal coordinates:
                      1                      2                      3
                        a                      a                      a 
 Frequencies --  -177.7382                56.4036               120.7507
 Red. masses --     1.4731                 5.5666                 8.5174
 Frc consts  --     0.0000                 0.0000                 0.0000
 IR Inten    --     3.8856                 3.3972                25.1315
 Raman Activ --     0.0000                 0.0000                 0.0000
 Depolar     --     0.0000                 0.0000                 0.0000
 Atom AN      X      Y      Z        X      Y      Z        X      Y      Z
   1   7     0.03   0.03   0.11    -0.07  -0.17  -0.20     0.53   0.00  -0.16
   2   6     0.03   0.00  -0.02    -0.11  -0.02   0.25    -0.08  -0.01   0.23
   3   6    -0.01   0.02   0.04     0.04   0.12   0.00    -0.01  -0.23   0.06
   4   6    -0.01  -0.02   0.02    -0.14   0.04  -0.29    -0.14   0.06  -0.11
   5   6    -0.05  -0.04  -0.13     0.27   0.05   0.25    -0.36   0.17   0.01
   6   1     0.35   0.22   0.44     0.07  -0.07   0.02     0.24  -0.13  -0.02
   7   1    -0.52  -0.12   0.13    -0.15   0.00  -0.09     0.17   0.06  -0.09
   8   1     0.22  -0.08  -0.46     0.04  -0.10  -0.19     0.17   0.08  -0.10
   9   1     0.05   0.03  -0.03    -0.09  -0.09   0.13    -0.12  -0.08   0.12
  10   1    -0.01  -0.03  -0.05    -0.01   0.08   0.15    -0.04   0.14   0.13
  11   1    -0.00   0.01   0.02     0.04   0.06   0.04     0.02  -0.11  -0.06
  12   1    -0.00   0.01   0.00     0.05   0.06  -0.03     0.02  -0.13   0.08
  13   1    -0.00  -0.03   0.02    -0.16   0.13  -0.15    -0.05   0.04  -0.05
  14   1     0.00   0.02   0.02    -0.04  -0.13  -0.20    -0.00   0.03  -0.08
  15   1    -0.05   0.03  -0.06     0.32  -0.16   0.15    -0.22   0.06   0.01
  16   1    -0.00  -0.05  -0.09     0.02   0.23   0.30    -0.07   0.01  -0.07
  17   1    -0.00  -0.02  -0.02    -0.02  -0.02  -0.10    -0.06   0.11   0.08
                      4                      5                      6
                        a                      a                      a 
 Frequencies --   246.9480               316.6725               353.8640
 Red. masses --     3.3226                 8.1302                 6.6966
 Frc consts  --     0.0000                 0.0000                 0.0000
 IR Inten    --     3.9300                11.4367                 0.4013
 Raman Activ --     0.0000                 0.0000                 0.0000
 Depolar     --     0.0000                 0.0000                 0.0000
 Atom AN      X      Y      Z        X      Y      Z        X      Y      Z
   1   7    -0.19  -0.05   0.00    -0.31   0.17  -0.24     0.06  -0.00  -0.00
   2   6    -0.14   0.02   0.16     0.11   0.32   0.16     0.31   0.03  -0.10
   3   6     0.03   0.03  -0.12     0.25  -0.20  -0.04     0.14   0.28   0.14
   4   6     0.03   0.02  -0.16     0.28  -0.21   0.04    -0.13  -0.25  -0.23
   5   6     0.27   0.01   0.08    -0.21  -0.06   0.11    -0.32  -0.12   0.20
   6   1    -0.04  -0.03   0.00    -0.12   0.08  -0.08    -0.04   0.05  -0.03
   7   1    -0.07   0.01  -0.02    -0.22   0.12  -0.13     0.02  -0.01   0.01
   8   1    -0.04  -0.04  -0.02    -0.07  -0.14  -0.10    -0.01  -0.05   0.05
   9   1    -0.12  -0.04   0.08    -0.06   0.04   0.08     0.21   0.05  -0.05
  10   1    -0.00   0.05   0.13     0.07   0.15   0.13     0.06  -0.08  -0.12
  11   1     0.02   0.00  -0.04    -0.01  -0.13  -0.13     0.01   0.19   0.23
  12   1     0.04  -0.00  -0.03     0.15  -0.15   0.08     0.09   0.23  -0.12
  13   1     0.00   0.05  -0.07     0.13  -0.08   0.01    -0.18   0.01  -0.10
  14   1    -0.02  -0.05  -0.05     0.10  -0.00   0.04    -0.01  -0.16  -0.19
  15   1    -0.37   0.10   0.02    -0.08  -0.04   0.05    -0.26  -0.08   0.12
  16   1     0.34  -0.13  -0.37    -0.16  -0.07   0.10    -0.07  -0.06   0.01
  17   1     0.32   0.02   0.46    -0.09   0.11  -0.02    -0.03   0.10   0.17
                      7                      8                      9
                        a                      a                      a 
 Frequencies --   456.2774               787.4992               792.7777
 Red. masses --     6.4011                 5.4613                 2.5332
 Frc consts  --     0.0000                 0.0000                 0.0000
 IR Inten    --     5.8340                28.3012                15.1661
 Raman Activ --     0.0000                 0.0000                 0.0000
 Depolar     --     0.0000                 0.0000                 0.0000
 Atom AN      X      Y      Z        X      Y      Z        X      Y      Z
   1   7     0.08  -0.03   0.12    -0.18   0.16  -0.03     0.02   0.05  -0.12
   2   6    -0.29  -0.11   0.00    -0.31  -0.11   0.05     0.00  -0.09  -0.18
   3   6     0.00   0.22  -0.41     0.02  -0.13   0.27     0.03  -0.07   0.09
   4   6     0.32  -0.17   0.00     0.31  -0.11  -0.02     0.14   0.01   0.19
   5   6    -0.12  -0.02   0.13     0.12   0.12  -0.04     0.04   0.04   0.05
   6   1     0.11  -0.06   0.08     0.15  -0.28   0.01    -0.11   0.31   0.01
   7   1     0.07  -0.05   0.07     0.06   0.19  -0.13     0.01  -0.23   0.17
   8   1     0.04   0.14  -0.01     0.01   0.23  -0.13    -0.04   0.05   0.07
   9   1    -0.25  -0.09   0.04     0.14   0.15  -0.12    -0.25  -0.20   0.08
  10   1    -0.01   0.06   0.15    -0.15  -0.25  -0.21     0.02   0.24   0.15
  11   1     0.00   0.20   0.11     0.02   0.03   0.18    -0.02   0.02   0.09
  12   1     0.00   0.23  -0.29     0.02   0.04  -0.01    -0.10   0.03  -0.02
  13   1     0.25  -0.12   0.03    -0.05   0.12  -0.09    -0.23   0.28  -0.10
  14   1     0.04   0.05   0.16     0.11  -0.17  -0.17     0.05  -0.29  -0.24
  15   1    -0.05  -0.05   0.07    -0.03   0.11  -0.06     0.02   0.23  -0.14
  16   1    -0.13  -0.05   0.11    -0.09  -0.12  -0.00    -0.12  -0.25  -0.04
  17   1    -0.07   0.14  -0.02    -0.00   0.17  -0.07    -0.05   0.00  -0.10
                     10                     11                     12
                        a                      a                      a 
 Frequencies --   836.3248               874.6377               921.2494
 Red. masses --     5.3499                 3.8499                 6.7883
 Frc consts  --     0.0000                 0.0000                 0.0000
 IR Inten    --     7.0346                38.5227                33.7049
 Raman Activ --     0.0000                 0.0000                 0.0000
 Depolar     --     0.0000                 0.0000                 0.0000
 Atom AN      X      Y      Z        X      Y      Z        X      Y      Z
   1   7     0.03   0.25  -0.07    -0.15   0.02  -0.23    -0.25   0.21  -0.09
   2   6     0.01  -0.16  -0.01    -0.12  -0.07  -0.05     0.10  -0.21  -0.04
   3   6     0.01  -0.44   0.19     0.09   0.13   0.29     0.37  -0.04  -0.11
   4   6    -0.06  -0.04  -0.10     0.07  -0.06  -0.15    -0.18   0.20   0.12
   5   6     0.01   0.17  -0.08     0.02  -0.01  -0.11    -0.21  -0.17   0.15
   6   1    -0.14   0.22  -0.07     0.03   0.18   0.09     0.14  -0.15   0.07
   7   1    -0.10   0.05  -0.01     0.16  -0.35   0.24     0.09   0.04  -0.02
   8   1    -0.02  -0.12   0.04    -0.07   0.39   0.00    -0.02   0.36  -0.12
   9   1    -0.11  -0.04  -0.01     0.08  -0.17   0.11    -0.08  -0.04  -0.03
  10   1    -0.06   0.09   0.00    -0.08   0.06  -0.03     0.14  -0.09   0.12
  11   1     0.04   0.12   0.44     0.03  -0.07  -0.09     0.18   0.01   0.01
  12   1    -0.00   0.20  -0.27     0.08  -0.10   0.21     0.07   0.02  -0.06
  13   1     0.14  -0.12   0.03     0.01  -0.21   0.09    -0.02   0.08   0.01
  14   1     0.05   0.19   0.05     0.07   0.14   0.03     0.00   0.08  -0.02
  15   1     0.05  -0.06   0.04    -0.07  -0.22   0.14     0.11   0.05  -0.05
  16   1     0.14   0.23  -0.03     0.05   0.16   0.06     0.10   0.03  -0.07
  17   1     0.05  -0.05   0.06     0.06   0.16   0.07    -0.05  -0.39   0.05
                     13                     14                     15
                        a                      a                      a 
 Frequencies --   977.7825               995.6884              1040.9987
 Red. masses --     4.8590                 6.3902                 7.5171
 Frc consts  --     0.0000                 0.0000                 0.0000
 IR Inten    --    12.4477                 8.7682                13.1293
 Raman Activ --     0.0000                 0.0000                 0.0000
 Depolar     --     0.0000                 0.0000                 0.0000
 Atom AN      X      Y      Z        X      Y      Z        X      Y      Z
   1   7    -0.03  -0.30  -0.06    -0.12  -0.28   0.15    -0.18   0.14  -0.04
   2   6    -0.08   0.39   0.06     0.07   0.37  -0.35     0.43  -0.15   0.13
   3   6    -0.01  -0.15  -0.02     0.06  -0.11   0.13    -0.19  -0.07  -0.13
   4   6    -0.05  -0.10  -0.05     0.03  -0.11   0.12    -0.25  -0.24   0.03
   5   6    -0.06   0.15   0.13    -0.02   0.13  -0.13     0.22   0.27  -0.07
   6   1     0.04   0.00   0.06     0.14  -0.31   0.08     0.10  -0.09   0.06
   7   1     0.11  -0.25   0.13     0.07   0.02  -0.03     0.07   0.02   0.00
   8   1    -0.03   0.13   0.03     0.01   0.07  -0.06    -0.02   0.23  -0.07
   9   1     0.21   0.05   0.07    -0.30   0.06  -0.08     0.07  -0.11   0.09
  10   1    -0.09   0.03  -0.12     0.20   0.13   0.17     0.20  -0.02   0.16
  11   1    -0.19   0.03   0.11    -0.13   0.01   0.10    -0.19   0.01   0.02
  12   1     0.37   0.06  -0.12    -0.12   0.04  -0.02     0.02   0.00  -0.06
  13   1     0.23   0.09  -0.13    -0.19  -0.09   0.10     0.03  -0.08   0.01
  14   1    -0.05  -0.00   0.07     0.13   0.00  -0.13    -0.21  -0.12   0.16
  15   1     0.15   0.25  -0.14    -0.00  -0.10   0.06    -0.04   0.12  -0.03
  16   1     0.06  -0.01  -0.09     0.10   0.22  -0.01    -0.08  -0.06   0.03
  17   1    -0.05  -0.25  -0.03     0.05   0.04   0.06     0.02   0.27  -0.09
                     16                     17                     18
                        a                      a                      a 
 Frequencies --  1101.6346              1126.2872              1153.3190
 Red. masses --     6.2682                 8.1134                 7.0160
 Frc consts  --     0.0000                 0.0000                 0.0000
 IR Inten    --     9.9245                 8.0962                 5.9439
 Raman Activ --     0.0000                 0.0000                 0.0000
 Depolar     --     0.0000                 0.0000                 0.0000
 Atom AN      X      Y      Z        X      Y      Z        X      Y      Z
   1   7    -0.00  -0.12  -0.01     0.12   0.03  -0.00    -0.01   0.06   0.16
   2   6    -0.11   0.20  -0.11    -0.28  -0.11  -0.08    -0.01  -0.13  -0.35
   3   6     0.25  -0.20   0.07     0.40   0.13  -0.10     0.01   0.19   0.37
   4   6    -0.32   0.28  -0.02    -0.25  -0.34   0.25    -0.03  -0.12  -0.37
   5   6     0.25  -0.21   0.02     0.03   0.33  -0.04     0.03   0.06   0.21
   6   1     0.01  -0.02   0.01    -0.07   0.08  -0.05     0.01  -0.12  -0.02
   7   1     0.02  -0.07   0.03    -0.06   0.02  -0.01    -0.05   0.16  -0.09
   8   1    -0.00   0.03  -0.00     0.01  -0.13   0.04     0.03  -0.09  -0.03
   9   1    -0.10   0.10  -0.07    -0.07   0.05  -0.08    -0.20  -0.16  -0.00
  10   1    -0.01   0.02  -0.02    -0.08  -0.08  -0.06     0.03   0.14   0.06
  11   1     0.28   0.02   0.13     0.11  -0.02  -0.12    -0.01  -0.05  -0.06
  12   1     0.10   0.06  -0.09     0.28  -0.04   0.04     0.08  -0.07   0.20
  13   1     0.04  -0.01   0.04    -0.23  -0.19   0.15     0.26  -0.11  -0.08
  14   1    -0.21   0.07   0.17    -0.09  -0.15   0.05    -0.08   0.11   0.13
  15   1    -0.17  -0.04   0.03     0.05   0.13  -0.04     0.08   0.23  -0.11
  16   1    -0.23  -0.30   0.12     0.05   0.12  -0.03    -0.04  -0.17  -0.05
  17   1     0.01   0.32  -0.10     0.01   0.03  -0.00    -0.06  -0.11  -0.07
                     19                     20                     21
                        a                      a                      a 
 Frequencies --  1211.3499              1256.1044              1269.3585
 Red. masses --     3.6158                 2.1890                 2.2547
 Frc consts  --     0.0000                 0.0000                 0.0000
 IR Inten    --     4.5001                17.2916                 0.4272
 Raman Activ --     0.0000                 0.0000                 0.0000
 Depolar     --     0.0000                 0.0000                 0.0000
 Atom AN      X      Y      Z        X      Y      Z        X      Y      Z
   1   7     0.01  -0.09  -0.16     0.11  -0.01  -0.16    -0.02  -0.02  -0.01
   2   6     0.04   0.14   0.21    -0.04  -0.12   0.10     0.01   0.04  -0.04
   3   6    -0.03   0.01   0.00    -0.03   0.08   0.14     0.02   0.05   0.11
   4   6     0.01  -0.19  -0.21     0.01   0.07  -0.03     0.05  -0.12   0.09
   5   6     0.01   0.14   0.18    -0.00  -0.06  -0.04    -0.15   0.04  -0.21
   6   1     0.00   0.12   0.03    -0.05   0.16  -0.02     0.01  -0.00   0.01
   7   1     0.05  -0.14   0.06    -0.01  -0.10   0.04     0.01  -0.02   0.01
   8   1    -0.03   0.07   0.03    -0.01   0.02   0.04    -0.00   0.01  -0.00
   9   1    -0.10   0.30  -0.15    -0.36   0.37  -0.31    -0.07   0.05  -0.04
  10   1     0.08  -0.14   0.04     0.28  -0.36   0.20     0.01   0.03   0.01
  11   1     0.37   0.01  -0.00    -0.38  -0.01   0.01     0.34  -0.00   0.00
  12   1    -0.52  -0.01   0.03     0.24  -0.02   0.08    -0.14  -0.03   0.08
  13   1    -0.05  -0.25   0.09     0.11   0.11  -0.08     0.34   0.33  -0.26
  14   1     0.01   0.05   0.02    -0.02   0.03   0.03    -0.36  -0.39   0.25
  15   1     0.09   0.20  -0.09    -0.02  -0.05   0.02     0.01  -0.16   0.06
  16   1     0.01  -0.09  -0.06    -0.01   0.00   0.02     0.09   0.23  -0.01
  17   1    -0.05  -0.11  -0.05     0.01   0.02   0.01     0.03  -0.01   0.07
                     22                     23                     24
                        a                      a                      a 
 Frequencies --  1321.5470              1346.2913              1361.6318
 Red. masses --     3.4204                 4.0786                 4.3993
 Frc consts  --     0.0000                 0.0000                 0.0000
 IR Inten    --    22.9779                 6.4631                16.9962
 Raman Activ --     0.0000                 0.0000                 0.0000
 Depolar     --     0.0000                 0.0000                 0.0000
 Atom AN      X      Y      Z        X      Y      Z        X      Y      Z
   1   7    -0.06  -0.19   0.05    -0.07  -0.10   0.00    -0.05   0.11  -0.04
   2   6     0.21  -0.15   0.16     0.24  -0.09   0.05     0.07  -0.00  -0.02
   3   6     0.24   0.03  -0.02    -0.40   0.07  -0.01    -0.22  -0.08   0.03
   4   6     0.05   0.10  -0.07    -0.04  -0.11   0.13     0.33   0.27  -0.17
   5   6    -0.03   0.02  -0.00     0.02  -0.03  -0.00    -0.10   0.05   0.04
   6   1    -0.06   0.11   0.03     0.01   0.06   0.06     0.10  -0.13   0.02
   7   1     0.01   0.12  -0.11     0.05   0.06  -0.07     0.07  -0.11   0.09
   8   1     0.01   0.21  -0.06    -0.00   0.09  -0.02    -0.02  -0.17   0.02
   9   1    -0.24   0.19  -0.15    -0.24   0.16  -0.15    -0.08   0.00  -0.02
  10   1    -0.40   0.34  -0.31    -0.15   0.20  -0.11     0.02  -0.02  -0.01
  11   1    -0.34   0.00  -0.00     0.45  -0.02  -0.07     0.12   0.01   0.05
  12   1    -0.14   0.00   0.01     0.44   0.00  -0.01     0.30   0.01  -0.03
  13   1    -0.07  -0.05   0.04     0.02   0.06  -0.03    -0.34  -0.26   0.23
  14   1    -0.16  -0.10   0.12     0.22   0.14  -0.16    -0.31  -0.31   0.20
  15   1     0.00  -0.03   0.02     0.01   0.04  -0.03     0.05  -0.06   0.04
  16   1    -0.02  -0.02  -0.01     0.02   0.03   0.01     0.00  -0.04  -0.05
  17   1    -0.00  -0.05   0.01     0.01   0.08   0.01    -0.02  -0.13   0.03
                     25                     26                     27
                        a                      a                      a 
 Frequencies --  1372.2803              1415.3187              1420.9324
 Red. masses --     3.0131                 1.6447                 1.6567
 Frc consts  --     0.0000                 0.0000                 0.0000
 IR Inten    --   168.2838                84.9228                75.5974
 Raman Activ --     0.0000                 0.0000                 0.0000
 Depolar     --     0.0000                 0.0000                 0.0000
 Atom AN      X      Y      Z        X      Y      Z        X      Y      Z
   1   7    -0.13   0.27  -0.14    -0.08  -0.13  -0.14     0.17  -0.00  -0.12
   2   6     0.09  -0.06   0.08    -0.07   0.00  -0.05     0.05  -0.00  -0.00
   3   6     0.11   0.06  -0.03     0.02  -0.01   0.01    -0.02  -0.00   0.02
   4   6    -0.10  -0.06   0.05     0.01   0.02  -0.01     0.02   0.01  -0.01
   5   6     0.03  -0.06   0.00    -0.02  -0.02   0.02    -0.01  -0.04   0.01
   6   1     0.32  -0.32   0.12     0.35   0.35   0.48     0.14  -0.27  -0.04
   7   1     0.18  -0.29   0.24     0.19   0.33  -0.30    -0.66  -0.05   0.02
   8   1    -0.09  -0.49   0.16    -0.19  -0.11   0.39    -0.22   0.29   0.52
   9   1    -0.15   0.08  -0.07     0.06  -0.06   0.04    -0.03  -0.01   0.00
  10   1    -0.18   0.11  -0.16     0.05  -0.04   0.04    -0.03   0.04  -0.04
  11   1    -0.11   0.01  -0.01    -0.02   0.01   0.02     0.01  -0.03  -0.05
  12   1    -0.09  -0.02   0.03     0.00  -0.00   0.00     0.01   0.04  -0.05
  13   1     0.10   0.08  -0.07    -0.02  -0.01   0.01    -0.01  -0.01   0.01
  14   1     0.08   0.09  -0.05    -0.03  -0.02   0.02    -0.01  -0.01   0.01
  15   1    -0.02   0.05  -0.03     0.03  -0.02   0.01    -0.00   0.05  -0.04
  16   1     0.02   0.04   0.01     0.04   0.00  -0.05     0.03   0.05   0.01
  17   1    -0.00   0.08  -0.02    -0.02   0.05  -0.03    -0.00   0.03  -0.00
                     28                     29                     30
                        a                      a                      a 
 Frequencies --  1435.8872              1475.6624              1479.1979
 Red. masses --     3.1652                 1.8483                 1.9036
 Frc consts  --     0.0000                 0.0000                 0.0000
 IR Inten    --     8.7257                17.7512                14.0938
 Raman Activ --     0.0000                 0.0000                 0.0000
 Depolar     --     0.0000                 0.0000                 0.0000
 Atom AN      X      Y      Z        X      Y      Z        X      Y      Z
   1   7    -0.00  -0.01   0.03     0.01   0.01   0.01     0.02  -0.02   0.01
   2   6    -0.01   0.00   0.00     0.15   0.21   0.06     0.05   0.07  -0.01
   3   6     0.02  -0.03   0.02     0.00  -0.01   0.07    -0.01   0.03  -0.26
   4   6     0.06   0.06  -0.05     0.00  -0.05   0.00     0.01  -0.01  -0.01
   5   6    -0.15  -0.39   0.10    -0.01   0.02  -0.00     0.02  -0.04   0.01
   6   1    -0.07   0.04  -0.04    -0.02   0.05  -0.00    -0.01   0.01  -0.01
   7   1     0.04   0.01  -0.00     0.01   0.03  -0.02    -0.06   0.02  -0.02
   8   1     0.04   0.01  -0.09     0.01   0.02  -0.03    -0.01   0.04   0.02
   9   1     0.01  -0.01   0.01    -0.45  -0.35   0.26    -0.15  -0.12   0.08
  10   1     0.01  -0.02   0.01    -0.06  -0.50  -0.40    -0.03  -0.14  -0.13
  11   1    -0.04  -0.02  -0.02     0.01  -0.10  -0.17     0.03   0.33   0.53
  12   1    -0.02   0.03  -0.04    -0.03   0.14  -0.14     0.04  -0.45   0.45
  13   1    -0.08  -0.03   0.03    -0.06   0.07  -0.04    -0.04   0.02  -0.01
  14   1    -0.07  -0.03   0.07     0.00   0.08   0.07     0.01   0.04   0.02
  15   1     0.21   0.38  -0.31     0.05  -0.04   0.02    -0.09   0.07  -0.03
  16   1     0.28   0.35  -0.01     0.00  -0.04  -0.04     0.01   0.08   0.05
  17   1    -0.00   0.52   0.03     0.00   0.02   0.00    -0.02  -0.01  -0.03
                     31                     32                     33
                        a                      a                      a 
 Frequencies --  1501.2487              1510.3771              1511.3177
 Red. masses --     1.4989                 1.9094                 1.5921
 Frc consts  --     0.0000                 0.0000                 0.0000
 IR Inten    --     0.7726                 4.9122                18.5070
 Raman Activ --     0.0000                 0.0000                 0.0000
 Depolar     --     0.0000                 0.0000                 0.0000
 Atom AN      X      Y      Z        X      Y      Z        X      Y      Z
   1   7    -0.01  -0.01  -0.01     0.01   0.00  -0.00    -0.00   0.00  -0.01
   2   6     0.01   0.02   0.01     0.03   0.02   0.01    -0.01  -0.00  -0.01
   3   6    -0.01  -0.00   0.04    -0.00   0.02  -0.02     0.01  -0.00  -0.02
   4   6     0.01   0.07  -0.02    -0.15   0.20   0.07     0.02  -0.08  -0.05
   5   6     0.13  -0.09  -0.11    -0.09   0.02  -0.02    -0.10   0.03  -0.18
   6   1     0.02   0.05   0.04    -0.00   0.00  -0.00     0.03  -0.01   0.03
   7   1     0.05   0.03  -0.02    -0.01   0.00  -0.00    -0.00   0.00  -0.00
   8   1    -0.00  -0.02   0.01    -0.00   0.01   0.00    -0.01  -0.01   0.03
   9   1    -0.04  -0.03   0.03    -0.08  -0.05   0.03     0.03   0.01  -0.01
  10   1     0.00  -0.05  -0.03    -0.01  -0.06  -0.06     0.01   0.02   0.02
  11   1    -0.00  -0.04  -0.07    -0.02   0.03   0.04     0.00   0.02   0.04
  12   1    -0.01   0.06  -0.06    -0.00  -0.04   0.04    -0.01  -0.03   0.03
  13   1     0.12  -0.14   0.07     0.48  -0.34   0.17    -0.16   0.11  -0.06
  14   1    -0.01  -0.16  -0.12     0.06  -0.39  -0.45    -0.00   0.17   0.14
  15   1    -0.42   0.34  -0.18     0.29  -0.07   0.00     0.43   0.05  -0.11
  16   1    -0.23   0.32   0.50    -0.03  -0.14  -0.08    -0.34  -0.17   0.23
  17   1     0.09  -0.30   0.14     0.08   0.13   0.16     0.33   0.02   0.59
                     34                     35                     36
                        a                      a                      a 
 Frequencies --  2924.9955              2934.3751              2951.7944
 Red. masses --     1.9221                 1.8964                 1.9204
 Frc consts  --     0.0000                 0.0000                 0.0000
 IR Inten    --     8.9390                 0.6613                 1.7752
 Raman Activ --     0.0000                 0.0000                 0.0000
 Depolar     --     0.0000                 0.0000                 0.0000
 Atom AN      X      Y      Z        X      Y      Z        X      Y      Z
   1   7    -0.00   0.00   0.00    -0.00  -0.00   0.00    -0.00   0.00   0.00
   2   6     0.00   0.00   0.00    -0.03  -0.01   0.02     0.17   0.00  -0.22
   3   6    -0.00  -0.06   0.02    -0.00   0.27  -0.04     0.01   0.04   0.03
   4   6    -0.17   0.01  -0.22    -0.02  -0.02  -0.07     0.00  -0.01  -0.00
   5   6     0.01  -0.00   0.02     0.01  -0.00   0.00     0.00  -0.00   0.01
   6   1     0.00   0.00  -0.00     0.00  -0.00  -0.00     0.01   0.01  -0.02
   7   1    -0.00  -0.00  -0.00     0.00  -0.00   0.00    -0.00  -0.01  -0.01
   8   1    -0.00   0.00   0.00     0.00  -0.00  -0.00     0.00   0.00   0.00
   9   1     0.00  -0.01  -0.01    -0.00   0.01   0.02    -0.00   0.28   0.34
  10   1    -0.01  -0.00   0.01     0.10   0.05  -0.08    -0.61  -0.29   0.46
  11   1    -0.00   0.20  -0.12     0.01  -0.71   0.42    -0.00   0.00   0.01
  12   1     0.00  -0.00   0.01    -0.01  -0.26  -0.28    -0.01  -0.16  -0.15
  13   1     0.04   0.30   0.43     0.03   0.14   0.22     0.01   0.03   0.05
  14   1     0.57  -0.34   0.38     0.05  -0.04   0.03    -0.03   0.02  -0.02
  15   1    -0.00  -0.03  -0.04    -0.00  -0.01  -0.00    -0.00  -0.01  -0.01
  16   1    -0.05   0.04  -0.05    -0.02   0.01  -0.01    -0.01   0.01  -0.01
  17   1    -0.01   0.00   0.01    -0.00  -0.00   0.00     0.01   0.00  -0.00
                     37                     38                     39
                        a                      a                      a 
 Frequencies --  2955.8530              2971.3421              2984.2020
 Red. masses --     1.5385                 1.5841                 1.6005
 Frc consts  --     0.0000                 0.0000                 0.0000
 IR Inten    --    15.4009                19.0855                 7.7857
 Raman Activ --     0.0000                 0.0000                 0.0000
 Depolar     --     0.0000                 0.0000                 0.0000
 Atom AN      X      Y      Z        X      Y      Z        X      Y      Z
   1   7    -0.00   0.00  -0.00     0.00  -0.00   0.00     0.00  -0.00   0.00
   2   6    -0.02  -0.00   0.02     0.05   0.05  -0.02    -0.06  -0.17  -0.12
   3   6     0.00  -0.04   0.04    -0.01  -0.07  -0.20    -0.01  -0.05  -0.06
   4   6     0.09  -0.17  -0.08     0.00  -0.03  -0.04    -0.00  -0.01  -0.01
   5   6    -0.02   0.01   0.01    -0.01   0.01   0.02    -0.00   0.01   0.01
   6   1    -0.00  -0.00   0.00     0.01   0.00  -0.01    -0.01  -0.00   0.01
   7   1    -0.00  -0.00  -0.00    -0.00   0.01   0.01    -0.00  -0.01  -0.02
   8   1     0.00   0.00   0.00    -0.00   0.00  -0.00    -0.00  -0.00  -0.00
   9   1     0.00  -0.02  -0.03     0.02  -0.09  -0.13    -0.06   0.50   0.67
  10   1     0.05   0.03  -0.04    -0.21  -0.09   0.17     0.29   0.12  -0.25
  11   1    -0.00   0.19  -0.11     0.00  -0.35   0.17    -0.00  -0.04   0.01
  12   1    -0.00  -0.05  -0.04     0.02   0.60   0.54     0.01   0.20   0.18
  13   1     0.11   0.38   0.62     0.02   0.09   0.14     0.00   0.02   0.03
  14   1    -0.42   0.23  -0.32    -0.02   0.01  -0.02     0.00  -0.00   0.00
  15   1    -0.01  -0.04  -0.07    -0.01  -0.03  -0.05    -0.01  -0.02  -0.04
  16   1     0.04  -0.03   0.04    -0.01   0.01  -0.01     0.01  -0.00   0.01
  17   1     0.05  -0.00  -0.03     0.04  -0.00  -0.02     0.02   0.00  -0.01
                     40                     41                     42
                        a                      a                      a 
 Frequencies --  3003.7114              3006.8315              3020.3772
 Red. masses --     1.9338                 1.9362                 1.2801
 Frc consts  --     0.0000                 0.0000                 0.0000
 IR Inten    --    76.2619                26.3805                28.2377
 Raman Activ --     0.0000                 0.0000                 0.0000
 Depolar     --     0.0000                 0.0000                 0.0000
 Atom AN      X      Y      Z        X      Y      Z        X      Y      Z
   1   7     0.01   0.00  -0.01    -0.00  -0.00   0.00    -0.01  -0.00   0.01
   2   6     0.00   0.00  -0.00    -0.00   0.00   0.01    -0.00  -0.00   0.00
   3   6     0.00   0.01  -0.00     0.00   0.01   0.01     0.00  -0.01  -0.00
   4   6    -0.03   0.01  -0.02    -0.00   0.02   0.03     0.00  -0.01  -0.00
   5   6    -0.26   0.06  -0.10    -0.08   0.08   0.26    -0.05  -0.15   0.01
   6   1    -0.02  -0.02   0.04     0.01   0.01  -0.02     0.02   0.01  -0.03
   7   1     0.00   0.00   0.00     0.00  -0.00   0.00    -0.00  -0.00  -0.00
   8   1    -0.00  -0.00  -0.00     0.00   0.00   0.00    -0.00  -0.00  -0.00
   9   1     0.00   0.00   0.00     0.00  -0.02  -0.02    -0.00   0.01   0.01
  10   1    -0.01  -0.01   0.01     0.01   0.00  -0.01     0.01   0.01  -0.01
  11   1     0.00  -0.01   0.01    -0.00   0.01  -0.00     0.00   0.01  -0.01
  12   1    -0.00  -0.01  -0.01     0.00  -0.05  -0.04    -0.00   0.01   0.01
  13   1    -0.00   0.00   0.00    -0.01  -0.05  -0.09     0.01   0.02   0.03
  14   1     0.08  -0.04   0.05     0.01  -0.00   0.01    -0.03   0.01  -0.02
  15   1    -0.01   0.14   0.17    -0.10  -0.38  -0.56     0.08   0.34   0.54
  16   1     0.51  -0.35   0.46    -0.16   0.11  -0.09    -0.36   0.22  -0.32
  17   1     0.43  -0.01  -0.28     0.55  -0.01  -0.28     0.47  -0.03  -0.26
                     43                     44                     45
                        a                      a                      a 
 Frequencies --  3259.5838              3272.8606              3286.2505
 Red. masses --     2.0119                 2.0493                 1.3048
 Frc consts  --     0.0000                 0.0000                 0.0000
 IR Inten    --   138.5069                74.8571                22.6709
 Raman Activ --     0.0000                 0.0000                 0.0000
 Depolar     --     0.0000                 0.0000                 0.0000
 Atom AN      X      Y      Z        X      Y      Z        X      Y      Z
   1   7     0.22   0.05  -0.16    -0.13  -0.11  -0.23     0.09  -0.12   0.00
   2   6     0.01   0.00  -0.01    -0.00  -0.00  -0.01     0.00  -0.01   0.00
   3   6    -0.00   0.00   0.00     0.00   0.00   0.00    -0.00   0.00   0.00
   4   6    -0.00  -0.00   0.00    -0.00   0.00  -0.00     0.00  -0.00  -0.00
   5   6     0.01  -0.01   0.01     0.00  -0.00   0.00    -0.00   0.00  -0.00
   6   1    -0.55  -0.29   0.62    -0.08  -0.05   0.05     0.25   0.11  -0.27
   7   1     0.02   0.12   0.13    -0.01   0.44   0.55     0.01   0.39   0.51
   8   1    -0.30  -0.00  -0.15     0.59   0.00   0.24    -0.59  -0.02  -0.26
   9   1    -0.00   0.00   0.00    -0.00   0.01   0.01    -0.00   0.01   0.01
  10   1    -0.02  -0.01   0.01     0.00   0.00  -0.00     0.01   0.00  -0.01
  11   1     0.00  -0.00   0.00    -0.00   0.00  -0.00    -0.00   0.00  -0.00
  12   1     0.00  -0.00  -0.00     0.00  -0.00   0.00     0.00  -0.00  -0.00
  13   1     0.00   0.00   0.00    -0.00  -0.00  -0.00     0.00   0.00   0.00
  14   1     0.00  -0.00   0.00     0.00  -0.00   0.00    -0.00   0.00  -0.00
  15   1    -0.00  -0.00   0.00     0.00   0.00   0.00     0.00  -0.00  -0.00
  16   1    -0.04   0.03  -0.03    -0.01   0.01  -0.01     0.02  -0.01   0.01
  17   1     0.01  -0.00  -0.00     0.00   0.00  -0.00    -0.01   0.00   0.00
