 Entering Gaussian System
 *********************************************
 Gaussian 98:
 frequency output generated by the xtb code
 *********************************************
                         Standard orientation:
 --------------------------------------------------------------------
  Center     Atomic     Atomic              Coordinates (Angstroms)
  Number     Number      Type              X           Y           Z
 --------------------------------------------------------------------
    1          7             0       -1.103735   -0.508565   -0.676825
    2          6             0       -1.202589   -1.766424    0.113967
    3          6             0        0.088297   -2.583671    0.089204
    4          6             0        1.201073   -2.018535    0.983029
    5          6             0        1.680569   -0.656168    0.571055
    6          6             0        1.354137    0.470065    1.316945
    7          6             0        1.723112    1.730353    0.888351
    8          6             0        2.432559    1.880647   -0.286392
    9          6             0        2.774281    0.769324   -1.030871
   10          6             0        2.399316   -0.490464   -0.604928
   11         17             0       -3.994455    1.390100   -0.442249
   12          1             0       -0.917730   -0.706378   -1.672786
   13          1             0       -0.323651    0.067731   -0.332199
   14          1             0       -1.969202    0.064059   -0.621243
   15          1             0       -2.038214   -2.361860   -0.276429
   16          1             0       -1.470264   -1.532920    1.151608
   17          1             0        0.448583   -2.647194   -0.944147
   18          1             0       -0.124388   -3.620099    0.385677
   19          1             0        2.060750   -2.700339    0.995378
   20          1             0        0.850317   -1.977881    2.020891
   21          1             0        0.790640    0.353270    2.228727
   22          1             0        1.457429    2.597725    1.472581
   23          1             0        2.722503    2.864835   -0.620475
   24          1             0        3.330178    0.884779   -1.948323
   25          1             0        2.652969   -1.358086   -1.191877
 --------------------------------------------------------------------
     1 basis functions        1 primitive gaussians
     1 alpha electrons        1 beta electrons

 Harmonic frequencies (cm**-1), IR intensities (km*mol⁻¹),
 Raman scattering activities (A**4/amu), Raman depolarization ratios,
 reduced masses (AMU), force constants (mDyne/A) and normal coordinates:
                      1                      2                      3
                        a                      a                      a 
 Frequencies --  -124.2465               -39.3888                50.1977
 Red. masses --    25.4249                10.6966                18.3730
 Frc consts  --     0.0000                 0.0000                 0.0000
 IR Inten    --   142.4588                 0.3742                 2.5707
 Raman Activ --     0.0000                 0.0000                 0.0000
 Depolar     --     0.0000                 0.0000                 0.0000
 Atom AN      X      Y      Z        X      Y      Z        X      Y      Z
   1   7    -0.38   0.21   0.12    -0.03   0.09   0.14    -0.20   0.08   0.06
   2   6    -0.17   0.14   0.05     0.01   0.02   0.04    -0.12   0.02  -0.02
   3   6    -0.15   0.15  -0.07     0.01   0.02  -0.07    -0.07   0.09  -0.06
   4   6    -0.10   0.04  -0.06     0.05  -0.05  -0.07    -0.10   0.09  -0.04
   5   6    -0.04   0.02  -0.02     0.05  -0.04  -0.04     0.02   0.05  -0.04
   6   6    -0.03   0.02  -0.02    -0.33  -0.01  -0.25     0.14   0.08  -0.03
   7   6    -0.01   0.02  -0.01    -0.35  -0.00  -0.26     0.37   0.04   0.04
   8   6     0.01   0.01   0.00    -0.01  -0.03  -0.05     0.45  -0.03   0.08
   9   6     0.01   0.01   0.01     0.36  -0.06   0.16     0.29  -0.06   0.05
  10   6    -0.02   0.02  -0.00     0.39  -0.07   0.16     0.08  -0.01  -0.01
  11  17     0.63  -0.44  -0.00    -0.09   0.07   0.15    -0.51  -0.24  -0.03
  12   1    -0.10   0.07   0.03    -0.01   0.04   0.03    -0.02   0.04   0.02
  13   1    -0.13   0.09   0.03    -0.01   0.02   0.05    -0.09   0.05   0.04
  14   1    -0.14   0.04   0.04    -0.01   0.01   0.05    -0.08  -0.02  -0.00
  15   1    -0.05   0.03   0.02    -0.00   0.01   0.01    -0.02   0.00  -0.02
  16   1    -0.03   0.02   0.02     0.01  -0.02   0.02    -0.04  -0.01  -0.00
  17   1    -0.05   0.07  -0.03    -0.01   0.03  -0.03    -0.02   0.04  -0.02
  18   1    -0.04   0.04  -0.05     0.01   0.00  -0.04    -0.01   0.02  -0.03
  19   1    -0.04  -0.00  -0.03     0.01  -0.02  -0.04    -0.04   0.02   0.01
  20   1    -0.02   0.00  -0.01     0.02  -0.03  -0.02    -0.04   0.04  -0.01
  21   1    -0.02   0.01  -0.01    -0.17   0.00  -0.12     0.02   0.04  -0.02
  22   1    -0.00   0.01  -0.00    -0.19   0.01  -0.12     0.14   0.02   0.02
  23   1     0.01   0.00   0.00    -0.01  -0.01  -0.02     0.18  -0.02   0.04
  24   1     0.01   0.00   0.00     0.18  -0.02   0.09     0.10  -0.03   0.02
  25   1    -0.01   0.00  -0.00     0.19  -0.03   0.09    -0.01  -0.01  -0.01
                      4                      5                      6
                        a                      a                      a 
 Frequencies --    79.7367               111.2587               127.1999
 Red. masses --    13.5818                10.9011                10.7162
 Frc consts  --     0.0000                 0.0000                 0.0000
 IR Inten    --    11.5720                10.6501                16.6133
 Raman Activ --     0.0000                 0.0000                 0.0000
 Depolar     --     0.0000                 0.0000                 0.0000
 Atom AN      X      Y      Z        X      Y      Z        X      Y      Z
   1   7    -0.04  -0.30  -0.27     0.25   0.35  -0.01     0.10   0.03  -0.57
   2   6    -0.07  -0.29  -0.27     0.07   0.11  -0.36     0.03   0.40   0.05
   3   6     0.04  -0.10  -0.02     0.08   0.13  -0.14    -0.15   0.11   0.12
   4   6    -0.20   0.17   0.11    -0.14   0.04   0.19     0.01  -0.03   0.02
   5   6    -0.19   0.15   0.02     0.02  -0.02   0.20     0.03  -0.04   0.03
   6   6    -0.15   0.21  -0.06     0.07   0.05   0.10     0.00  -0.05   0.02
   7   6     0.03   0.15  -0.07     0.00   0.01  -0.09    -0.03  -0.04   0.01
   8   6     0.17   0.04   0.00    -0.13  -0.12  -0.19    -0.01  -0.03   0.03
   9   6     0.11  -0.03   0.06    -0.10  -0.21  -0.05     0.06  -0.03   0.05
  10   6    -0.07   0.03   0.07    -0.02  -0.16   0.16     0.07  -0.04   0.05
  11  17     0.23   0.04   0.31    -0.07  -0.18   0.16    -0.07  -0.21   0.18
  12   1    -0.11  -0.07  -0.09     0.18   0.17   0.00    -0.14  -0.12  -0.16
  13   1     0.06  -0.15  -0.13     0.00   0.10   0.13     0.13  -0.03  -0.33
  14   1     0.04  -0.02   0.02     0.03   0.04  -0.05     0.08   0.08  -0.07
  15   1     0.02  -0.11  -0.12     0.06   0.05  -0.22    -0.05   0.12   0.14
  16   1    -0.08  -0.09  -0.09    -0.07  -0.04  -0.11     0.09   0.26   0.00
  17   1     0.06  -0.04   0.01     0.10   0.07  -0.02    -0.06  -0.03   0.03
  18   1     0.04  -0.03   0.01    -0.00   0.03  -0.09    -0.10   0.05   0.07
  19   1    -0.04   0.07   0.12    -0.05  -0.01   0.12    -0.01  -0.03  -0.03
  20   1    -0.12   0.09   0.01    -0.12   0.03   0.03     0.04  -0.01   0.02
  21   1    -0.08   0.09  -0.03     0.04   0.04   0.04    -0.01  -0.02   0.00
  22   1     0.02   0.06  -0.04     0.01   0.02  -0.05    -0.02  -0.01  -0.00
  23   1     0.10  -0.00   0.00    -0.07  -0.04  -0.10    -0.01  -0.01   0.00
  24   1     0.06  -0.03   0.03    -0.05  -0.09  -0.03     0.02  -0.01   0.02
  25   1    -0.03  -0.00   0.04    -0.01  -0.07   0.08     0.03  -0.01   0.02
                      7                      8                      9
                        a                      a                      a 
 Frequencies --   162.2479               244.2275               277.0797
 Red. masses --    10.6132                 9.0206                 5.1812
 Frc consts  --     0.0000                 0.0000                 0.0000
 IR Inten    --    32.5607                 0.5350                18.0925
 Raman Activ --     0.0000                 0.0000                 0.0000
 Depolar     --     0.0000                 0.0000                 0.0000
 Atom AN      X      Y      Z        X      Y      Z        X      Y      Z
   1   7     0.50   0.13   0.14     0.03  -0.07  -0.03    -0.23  -0.04  -0.28
   2   6    -0.03   0.10   0.02    -0.32  -0.11  -0.15     0.06   0.02  -0.11
   3   6    -0.20  -0.15   0.18    -0.30  -0.09   0.21     0.09   0.03   0.21
   4   6    -0.09   0.01  -0.07    -0.14   0.06  -0.03     0.17  -0.00   0.12
   5   6    -0.21   0.02  -0.19     0.20  -0.04  -0.08     0.07  -0.03  -0.01
   6   6    -0.23   0.01  -0.17     0.31  -0.08   0.05    -0.10  -0.05  -0.07
   7   6    -0.02   0.01  -0.00     0.03  -0.01   0.03    -0.07  -0.04  -0.00
   8   6     0.19   0.03   0.13    -0.23   0.14  -0.11     0.07  -0.03   0.09
   9   6     0.03   0.06   0.00     0.12   0.16   0.02    -0.02   0.01  -0.01
  10   6    -0.18   0.06  -0.17     0.36   0.08   0.03    -0.04  -0.01  -0.06
  11  17     0.08  -0.19   0.04     0.01  -0.01   0.03     0.03   0.09   0.10
  12   1     0.27   0.04   0.06     0.11  -0.00   0.01     0.35  -0.02   0.00
  13   1     0.10   0.01   0.16    -0.01  -0.05   0.09    -0.38   0.28   0.16
  14   1     0.13   0.03  -0.07     0.02  -0.00  -0.07    -0.24  -0.25  -0.37
  15   1    -0.03   0.09  -0.05    -0.05  -0.03  -0.14     0.06  -0.05  -0.04
  16   1    -0.05   0.03  -0.01    -0.20  -0.05  -0.07    -0.04   0.04  -0.05
  17   1    -0.08  -0.15   0.05    -0.10  -0.14   0.06     0.04  -0.06   0.07
  18   1    -0.10  -0.01   0.15    -0.10   0.01   0.17    -0.01   0.03   0.11
  19   1    -0.01   0.02  -0.04    -0.08  -0.03   0.01     0.05  -0.01   0.00
  20   1     0.02   0.02  -0.01    -0.02   0.08  -0.01     0.09   0.01   0.04
  21   1    -0.09  -0.00  -0.07     0.13  -0.05   0.03    -0.04  -0.03  -0.03
  22   1     0.01  -0.00   0.01    -0.01  -0.02   0.03    -0.03  -0.02   0.00
  23   1     0.13   0.00   0.09    -0.17   0.06  -0.07     0.06  -0.01   0.05
  24   1     0.03   0.02   0.02     0.04   0.07   0.01    -0.02   0.01  -0.01
  25   1    -0.07   0.03  -0.07     0.15   0.04   0.00    -0.02   0.00  -0.03
                     10                     11                     12
                        a                      a                      a 
 Frequencies --   323.4865               360.8045               369.2601
 Red. masses --     7.3733                 8.7907                 6.5237
 Frc consts  --     0.0000                 0.0000                 0.0000
 IR Inten    --     9.0761                 0.0458                 2.3852
 Raman Activ --     0.0000                 0.0000                 0.0000
 Depolar     --     0.0000                 0.0000                 0.0000
 Atom AN      X      Y      Z        X      Y      Z        X      Y      Z
   1   7    -0.15   0.24   0.05    -0.01   0.02   0.00     0.10  -0.15  -0.00
   2   6     0.06   0.00  -0.22    -0.02  -0.00  -0.04     0.05   0.04   0.22
   3   6     0.13   0.03   0.27    -0.01  -0.01   0.04     0.06   0.12  -0.17
   4   6     0.08   0.07   0.28     0.05  -0.02  -0.02    -0.34   0.18   0.21
   5   6     0.17  -0.11  -0.13     0.01   0.00   0.01     0.08  -0.09  -0.18
   6   6    -0.03  -0.18  -0.14    -0.36   0.04  -0.21    -0.01  -0.15  -0.16
   7   6    -0.12  -0.13   0.02     0.36  -0.03   0.21    -0.01  -0.10   0.08
   8   6     0.07  -0.03   0.15     0.00   0.00   0.00    -0.05   0.01   0.08
   9   6    -0.03   0.06  -0.04    -0.36   0.03  -0.21    -0.03   0.08  -0.03
  10   6    -0.03  -0.02  -0.24     0.36  -0.04   0.22     0.13  -0.03  -0.15
  11  17    -0.05   0.00  -0.04    -0.00  -0.00  -0.01     0.02  -0.00   0.02
  12   1    -0.31   0.15  -0.05    -0.04   0.02  -0.01     0.13  -0.11   0.03
  13   1     0.10  -0.04  -0.12     0.02  -0.02  -0.01    -0.03   0.02   0.03
  14   1     0.01   0.13   0.26     0.01   0.02   0.03     0.01  -0.07  -0.11
  15   1     0.09  -0.04  -0.17     0.01  -0.00  -0.03    -0.04   0.03   0.16
  16   1    -0.10  -0.06  -0.08    -0.03  -0.01  -0.01     0.12   0.06   0.08
  17   1     0.10  -0.08   0.10    -0.01  -0.03   0.01     0.05   0.20  -0.05
  18   1    -0.02   0.04   0.14    -0.01   0.01   0.03     0.08  -0.02  -0.19
  19   1    -0.01  -0.02   0.18     0.02  -0.00  -0.04    -0.14   0.00   0.34
  20   1    -0.01   0.14   0.06     0.04  -0.02   0.00    -0.30   0.24  -0.01
  21   1    -0.03  -0.09  -0.06    -0.23   0.03  -0.14    -0.02  -0.08  -0.06
  22   1    -0.08  -0.05   0.01     0.23  -0.02   0.13    -0.01  -0.05   0.06
  23   1     0.05  -0.00   0.09     0.00  -0.00   0.00    -0.03   0.01   0.04
  24   1    -0.02   0.06  -0.01    -0.23   0.02  -0.13    -0.03   0.07  -0.01
  25   1    -0.02   0.02  -0.11     0.23  -0.03   0.14     0.07   0.02  -0.07
                     13                     14                     15
                        a                      a                      a 
 Frequencies --   430.1015               478.6510               544.0745
 Red. masses --     8.3030                 9.8138                 8.8938
 Frc consts  --     0.0000                 0.0000                 0.0000
 IR Inten    --     7.6494                 6.1543                 4.4558
 Raman Activ --     0.0000                 0.0000                 0.0000
 Depolar     --     0.0000                 0.0000                 0.0000
 Atom AN      X      Y      Z        X      Y      Z        X      Y      Z
   1   7     0.13  -0.18  -0.00     0.04  -0.06   0.00    -0.02   0.01   0.03
   2   6    -0.36  -0.06   0.03    -0.09  -0.02   0.01     0.09  -0.01  -0.01
   3   6    -0.09   0.38  -0.00     0.09   0.30   0.10    -0.04  -0.16  -0.10
   4   6     0.14  -0.01   0.04     0.15   0.32  -0.09    -0.09   0.30  -0.29
   5   6     0.34  -0.03   0.20    -0.22   0.24  -0.27     0.29   0.22   0.09
   6   6    -0.03  -0.00  -0.01    -0.11  -0.04   0.13     0.02   0.07   0.23
   7   6    -0.15   0.00  -0.09     0.02  -0.09   0.23    -0.24   0.05   0.05
   8   6     0.22  -0.04   0.13    -0.27  -0.32   0.01     0.12  -0.29   0.20
   9   6    -0.14   0.01  -0.10     0.16  -0.18  -0.01    -0.11  -0.11  -0.19
  10   6    -0.04   0.00  -0.04     0.03  -0.14  -0.15     0.16  -0.09  -0.02
  11  17     0.01  -0.02   0.00     0.00  -0.01   0.00    -0.00   0.00  -0.00
  12   1     0.08  -0.10   0.02     0.03  -0.03   0.01    -0.01   0.02   0.00
  13   1     0.10  -0.15   0.04     0.04  -0.06   0.01    -0.03   0.03   0.00
  14   1     0.11   0.06  -0.07     0.04   0.02  -0.02    -0.03  -0.03   0.02
  15   1    -0.04  -0.05  -0.09     0.04  -0.05  -0.06    -0.03   0.03   0.07
  16   1    -0.21  -0.04  -0.02    -0.12  -0.02  -0.02     0.12   0.01   0.02
  17   1    -0.04   0.27  -0.02     0.01   0.13   0.02    -0.08  -0.26  -0.04
  18   1     0.07   0.05  -0.15     0.09   0.06   0.00    -0.02   0.02   0.20
  19   1    -0.01  -0.07  -0.11     0.07   0.13  -0.11    -0.04   0.07   0.03
  20   1     0.11  -0.06   0.04     0.14   0.06   0.01    -0.11   0.11  -0.11
  21   1    -0.07   0.00  -0.04     0.03  -0.09   0.06    -0.07  -0.03   0.01
  22   1    -0.13   0.01  -0.08     0.12  -0.00   0.08    -0.15   0.07  -0.10
  23   1     0.11  -0.01   0.07    -0.10  -0.09  -0.00     0.03  -0.08   0.05
  24   1    -0.12   0.01  -0.08     0.13   0.00   0.06    -0.14   0.03  -0.11
  25   1    -0.08   0.01  -0.05     0.05  -0.09   0.05    -0.08  -0.06  -0.00
                     16                     17                     18
                        a                      a                      a 
 Frequencies --   591.8326               662.7160               747.2719
 Red. masses --    11.1327                 9.5370                 3.9766
 Frc consts  --     0.0000                 0.0000                 0.0000
 IR Inten    --     0.0096                 2.8125                31.4596
 Raman Activ --     0.0000                 0.0000                 0.0000
 Depolar     --     0.0000                 0.0000                 0.0000
 Atom AN      X      Y      Z        X      Y      Z        X      Y      Z
   1   7    -0.00  -0.00  -0.00     0.00   0.01  -0.01     0.01   0.01  -0.00
   2   6    -0.00  -0.00  -0.01     0.01   0.01   0.01     0.05   0.00   0.02
   3   6    -0.01  -0.01  -0.02     0.02   0.01   0.05     0.04   0.04   0.08
   4   6     0.04  -0.02  -0.04    -0.01  -0.02   0.06    -0.06   0.04  -0.01
   5   6     0.07  -0.06  -0.13    -0.42   0.01  -0.25    -0.28  -0.00  -0.16
   6   6     0.22   0.19  -0.33     0.27  -0.06   0.12     0.18  -0.07   0.05
   7   6    -0.05   0.46   0.16    -0.30   0.00  -0.20     0.11  -0.08   0.01
   8   6    -0.08   0.07   0.15     0.26   0.01   0.14     0.15   0.05   0.07
   9   6    -0.24  -0.19   0.38    -0.32   0.04  -0.17     0.06  -0.01   0.12
  10   6     0.03  -0.42  -0.13     0.26  -0.02   0.16     0.14  -0.03   0.13
  11  17     0.00  -0.00  -0.00     0.00  -0.00  -0.00    -0.00   0.00  -0.00
  12   1    -0.00   0.00  -0.00     0.00   0.00  -0.00    -0.01  -0.01   0.00
  13   1     0.00  -0.00   0.00    -0.00   0.01  -0.00    -0.01   0.03  -0.03
  14   1     0.00   0.00   0.00    -0.00  -0.00  -0.00    -0.01  -0.01  -0.00
  15   1    -0.00   0.00   0.00     0.02  -0.01  -0.02     0.05  -0.02  -0.04
  16   1     0.00   0.00  -0.00    -0.03   0.00  -0.01    -0.04  -0.02  -0.00
  17   1    -0.01  -0.01  -0.01     0.04   0.08   0.02     0.03   0.08   0.02
  18   1    -0.00  -0.00  -0.00     0.01  -0.02  -0.07     0.03  -0.01  -0.05
  19   1     0.01  -0.01  -0.05     0.03   0.04  -0.04     0.03   0.07  -0.09
  20   1     0.04  -0.03  -0.00     0.05  -0.02   0.03     0.07  -0.02   0.03
  21   1     0.07  -0.01  -0.09     0.23  -0.03   0.12    -0.28   0.02  -0.18
  22   1    -0.04   0.09   0.09     0.00  -0.02   0.01    -0.34  -0.01  -0.18
  23   1     0.05  -0.05  -0.09     0.21  -0.01   0.12    -0.37   0.05  -0.22
  24   1    -0.06   0.01   0.12     0.01  -0.00   0.01    -0.34   0.01  -0.18
  25   1     0.04  -0.08  -0.08     0.24  -0.02   0.13    -0.27   0.04  -0.17
                     19                     20                     21
                        a                      a                      a 
 Frequencies --   779.6404               833.7327               866.9591
 Red. masses --     9.2650                 3.2699                 5.7240
 Frc consts  --     0.0000                 0.0000                 0.0000
 IR Inten    --     6.5710                47.9254                 0.4396
 Raman Activ --     0.0000                 0.0000                 0.0000
 Depolar     --     0.0000                 0.0000                 0.0000
 Atom AN      X      Y      Z        X      Y      Z        X      Y      Z
   1   7     0.02  -0.10   0.07     0.11  -0.02   0.09    -0.11   0.18  -0.05
   2   6     0.10   0.02   0.01     0.21   0.09   0.20    -0.27   0.06   0.16
   3   6     0.08   0.30  -0.04    -0.07   0.02   0.05     0.17  -0.14  -0.13
   4   6    -0.02   0.30  -0.28    -0.12  -0.13  -0.11     0.39  -0.13  -0.06
   5   6     0.01  -0.09   0.06     0.03  -0.00   0.02    -0.10   0.01  -0.07
   6   6     0.02  -0.19  -0.10     0.01   0.06   0.02    -0.05   0.02   0.02
   7   6     0.07  -0.28  -0.20    -0.04   0.10   0.05    -0.01   0.02  -0.01
   8   6     0.06   0.25  -0.10    -0.04  -0.06   0.00     0.05   0.00   0.01
   9   6    -0.21  -0.05   0.30     0.04   0.01  -0.09     0.01  -0.03   0.06
  10   6    -0.14  -0.06   0.19     0.01   0.02  -0.02     0.01   0.00   0.07
  11  17     0.00   0.00   0.00     0.00   0.01   0.00    -0.01  -0.01   0.01
  12   1    -0.01  -0.07   0.02    -0.14  -0.30   0.05     0.08  -0.19   0.05
  13   1     0.00   0.00  -0.03    -0.05   0.31  -0.35     0.08  -0.09  -0.03
  14   1     0.00  -0.03   0.01    -0.08  -0.17  -0.01     0.08   0.26  -0.23
  15   1     0.09  -0.05  -0.05     0.26   0.02  -0.38    -0.01  -0.01  -0.07
  16   1    -0.03  -0.05   0.00    -0.34  -0.23   0.01    -0.18  -0.06   0.03
  17   1    -0.07  -0.18  -0.02    -0.10   0.07  -0.02    -0.11  -0.12  -0.08
  18   1     0.02   0.16   0.26    -0.05  -0.01  -0.05     0.03  -0.01   0.05
  19   1    -0.03   0.05  -0.03    -0.05  -0.06   0.02     0.14   0.01   0.41
  20   1    -0.07   0.09  -0.10    -0.09  -0.02  -0.05    -0.23   0.17  -0.13
  21   1     0.05  -0.01  -0.00    -0.04   0.01  -0.02     0.07   0.01   0.06
  22   1     0.02  -0.15   0.04     0.03   0.04   0.01     0.02   0.01  -0.00
  23   1     0.08   0.06   0.01     0.04  -0.02   0.03    -0.07   0.00  -0.06
  24   1    -0.01  -0.13   0.10     0.05   0.02   0.00    -0.09  -0.02  -0.04
  25   1     0.01   0.01   0.05     0.00  -0.00   0.00    -0.06  -0.00  -0.00
                     22                     23                     24
                        a                      a                      a 
 Frequencies --   876.1408               889.6347               903.3786
 Red. masses --     3.4192                 7.2172                 4.0446
 Frc consts  --     0.0000                 0.0000                 0.0000
 IR Inten    --     0.1331                 2.2895                 0.4706
 Raman Activ --     0.0000                 0.0000                 0.0000
 Depolar     --     0.0000                 0.0000                 0.0000
 Atom AN      X      Y      Z        X      Y      Z        X      Y      Z
   1   7    -0.02   0.05  -0.02    -0.07  -0.26   0.15    -0.06  -0.08   0.05
   2   6    -0.06  -0.00   0.03     0.14   0.15  -0.15     0.02   0.06  -0.06
   3   6     0.02  -0.05  -0.02     0.01   0.39  -0.13     0.04   0.14  -0.06
   4   6     0.06   0.01  -0.01    -0.01  -0.26   0.08     0.03  -0.12   0.05
   5   6    -0.00   0.01   0.00    -0.13  -0.08  -0.03    -0.11  -0.03  -0.05
   6   6     0.22  -0.03   0.14    -0.03   0.07  -0.04     0.21   0.00   0.11
   7   6     0.16  -0.03   0.08    -0.00   0.15   0.11    -0.06   0.06   0.00
   8   6     0.01   0.02   0.00     0.09  -0.11   0.11    -0.23  -0.02  -0.12
   9   6    -0.16   0.01  -0.07     0.11   0.03  -0.14    -0.04   0.02  -0.09
  10   6    -0.23   0.02  -0.14    -0.05   0.07  -0.06     0.21   0.00   0.12
  11  17    -0.00  -0.00   0.00     0.00  -0.00   0.00    -0.00  -0.00   0.00
  12   1     0.03  -0.02   0.01     0.04  -0.07   0.05     0.04  -0.04   0.03
  13   1     0.01  -0.00  -0.00     0.03  -0.16   0.10     0.03  -0.10   0.06
  14   1     0.01   0.04  -0.04     0.03  -0.00   0.01     0.03   0.05  -0.04
  15   1    -0.02   0.01   0.00     0.08  -0.06   0.01     0.02  -0.03   0.03
  16   1    -0.02  -0.01   0.01     0.08  -0.01  -0.01     0.04  -0.00  -0.00
  17   1    -0.01  -0.01  -0.01     0.01  -0.24  -0.00     0.01  -0.11  -0.01
  18   1     0.02  -0.01   0.00    -0.23   0.23   0.23    -0.09   0.09   0.09
  19   1     0.02   0.01   0.05    -0.06  -0.14   0.06     0.00  -0.04   0.05
  20   1    -0.02   0.03  -0.01    -0.10  -0.08  -0.01    -0.04  -0.02  -0.00
  21   1    -0.43   0.05  -0.25     0.11   0.01   0.06    -0.40   0.05  -0.24
  22   1    -0.32   0.02  -0.19    -0.09   0.07  -0.06     0.15   0.01   0.09
  23   1    -0.01   0.01  -0.01    -0.21  -0.01  -0.11     0.33  -0.04   0.20
  24   1     0.31  -0.03   0.19    -0.03   0.05  -0.07     0.19  -0.00   0.10
  25   1     0.43  -0.05   0.26     0.16  -0.00   0.09    -0.39   0.05  -0.24
                     25                     26                     27
                        a                      a                      a 
 Frequencies --   928.9047               937.8469               944.1479
 Red. masses --     4.1189                 3.1632                 3.5346
 Frc consts  --     0.0000                 0.0000                 0.0000
 IR Inten    --     0.3056                 0.2353                15.3234
 Raman Activ --     0.0000                 0.0000                 0.0000
 Depolar     --     0.0000                 0.0000                 0.0000
 Atom AN      X      Y      Z        X      Y      Z        X      Y      Z
   1   7    -0.01   0.01   0.02     0.02  -0.01  -0.02    -0.12   0.17   0.10
   2   6    -0.01  -0.00  -0.01    -0.00  -0.01   0.00    -0.05  -0.03  -0.03
   3   6     0.01  -0.00  -0.02    -0.02  -0.00   0.02     0.09  -0.08  -0.15
   4   6    -0.02   0.01   0.03     0.02  -0.00  -0.02    -0.19   0.15   0.21
   5   6    -0.00   0.00   0.00     0.07  -0.00   0.03     0.05   0.01   0.06
   6   6     0.19  -0.02   0.12     0.03  -0.00   0.03    -0.02  -0.02  -0.06
   7   6    -0.24   0.02  -0.15    -0.21   0.02  -0.13     0.00  -0.05  -0.02
   8   6    -0.03   0.01  -0.02     0.27  -0.02   0.15     0.03   0.01   0.03
   9   6     0.27  -0.02   0.16    -0.16   0.01  -0.08    -0.03   0.02  -0.04
  10   6    -0.18   0.01  -0.12    -0.00  -0.00   0.00     0.04  -0.03  -0.05
  11  17    -0.00  -0.00   0.00     0.00   0.00  -0.00    -0.00  -0.00   0.01
  12   1     0.01  -0.04   0.02    -0.01   0.05  -0.02     0.06  -0.42   0.13
  13   1     0.01  -0.00  -0.02    -0.01   0.02   0.01     0.08   0.00  -0.17
  14   1     0.01   0.03  -0.04    -0.01  -0.04   0.04     0.07   0.24  -0.31
  15   1    -0.02   0.01   0.00    -0.00  -0.00   0.01    -0.09   0.11  -0.03
  16   1     0.03  -0.03   0.01    -0.01   0.03  -0.01     0.15  -0.26   0.09
  17   1     0.03  -0.02   0.01    -0.03   0.02  -0.00     0.23  -0.16   0.04
  18   1    -0.01   0.01   0.01     0.02  -0.01  -0.01    -0.04   0.02   0.07
  19   1    -0.00   0.00  -0.03    -0.01  -0.02   0.02    -0.00   0.09  -0.27
  20   1     0.02  -0.01   0.02    -0.01   0.02  -0.01     0.18  -0.18   0.14
  21   1    -0.28   0.03  -0.17    -0.15   0.02  -0.09     0.05  -0.03   0.01
  22   1     0.38  -0.04   0.22     0.43  -0.04   0.25     0.00  -0.03   0.02
  23   1     0.05  -0.00   0.04    -0.51   0.05  -0.31    -0.07   0.02  -0.01
  24   1    -0.45   0.05  -0.27     0.33  -0.03   0.20     0.09   0.02   0.05
  25   1     0.30  -0.03   0.17    -0.10   0.01  -0.06    -0.01   0.01  -0.05
                     28                     29                     30
                        a                      a                      a 
 Frequencies --   977.8658               992.4761              1043.2820
 Red. masses --     8.5654                 9.1889                 8.1278
 Frc consts  --     0.0000                 0.0000                 0.0000
 IR Inten    --    12.5560                11.1852                25.9485
 Raman Activ --     0.0000                 0.0000                 0.0000
 Depolar     --     0.0000                 0.0000                 0.0000
 Atom AN      X      Y      Z        X      Y      Z        X      Y      Z
   1   7     0.11  -0.23   0.20     0.13  -0.06   0.08    -0.23  -0.26   0.18
   2   6    -0.12   0.19  -0.24    -0.18   0.01  -0.11     0.20   0.47  -0.19
   3   6    -0.18  -0.06  -0.18    -0.05  -0.02  -0.11    -0.04  -0.28   0.12
   4   6     0.29   0.03   0.21     0.19   0.14   0.07    -0.03   0.09  -0.13
   5   6     0.00   0.15  -0.08    -0.05  -0.09   0.02     0.10   0.04   0.02
   6   6    -0.14   0.01   0.24     0.24  -0.05  -0.41     0.04  -0.00  -0.09
   7   6     0.05  -0.11  -0.08    -0.04   0.05   0.09    -0.00  -0.04  -0.02
   8   6     0.05   0.19  -0.07    -0.08  -0.28   0.10    -0.01  -0.07   0.02
   9   6    -0.07   0.00   0.13     0.05  -0.03  -0.09    -0.04  -0.03   0.05
  10   6     0.10  -0.19  -0.16    -0.16   0.32   0.33    -0.06   0.09   0.08
  11  17     0.00   0.01  -0.00     0.00   0.00  -0.00    -0.01  -0.00   0.00
  12   1    -0.10  -0.12   0.04    -0.08  -0.05   0.01     0.08  -0.12   0.08
  13   1    -0.06   0.15  -0.11    -0.05   0.17  -0.11     0.05  -0.27   0.15
  14   1    -0.08  -0.24   0.11    -0.06  -0.16   0.08     0.06   0.14  -0.07
  15   1    -0.18   0.23  -0.04    -0.18   0.16   0.01     0.15   0.01  -0.10
  16   1     0.09  -0.02  -0.01     0.08  -0.02   0.01    -0.11   0.14  -0.10
  17   1     0.03  -0.03  -0.02     0.02  -0.04  -0.02     0.10   0.16   0.05
  18   1    -0.16   0.00  -0.07     0.02   0.00   0.02    -0.10  -0.13  -0.24
  19   1     0.09   0.03   0.12     0.07   0.07   0.04     0.05   0.09  -0.00
  20   1     0.07   0.08   0.05     0.07   0.10   0.02     0.06   0.11  -0.01
  21   1    -0.04   0.03   0.07     0.06  -0.06  -0.13     0.02  -0.02  -0.02
  22   1     0.01  -0.01  -0.06    -0.05  -0.04   0.08     0.01  -0.02   0.01
  23   1     0.01   0.05  -0.02    -0.03  -0.08   0.02     0.00  -0.03  -0.00
  24   1    -0.03   0.03   0.03     0.01  -0.10  -0.03     0.00  -0.05   0.02
  25   1     0.00  -0.04  -0.07    -0.07   0.06   0.13    -0.01   0.02   0.04
                     31                     32                     33
                        a                      a                      a 
 Frequencies --  1075.7494              1091.8702              1102.4878
 Red. masses --     4.8963                 6.7599                 7.3473
 Frc consts  --     0.0000                 0.0000                 0.0000
 IR Inten    --     1.6179                 0.2127                 4.6196
 Raman Activ --     0.0000                 0.0000                 0.0000
 Depolar     --     0.0000                 0.0000                 0.0000
 Atom AN      X      Y      Z        X      Y      Z        X      Y      Z
   1   7    -0.01   0.12   0.04     0.01   0.01  -0.04    -0.06   0.09  -0.13
   2   6     0.09  -0.22  -0.14     0.03  -0.02   0.07     0.33  -0.23   0.12
   3   6    -0.13   0.12   0.23    -0.05  -0.00  -0.08    -0.46   0.03  -0.17
   4   6     0.08  -0.10  -0.25     0.01   0.00   0.09     0.19   0.12   0.20
   5   6     0.02  -0.05  -0.13    -0.00   0.03   0.01     0.02   0.11  -0.02
   6   6    -0.07   0.03   0.12     0.06   0.13  -0.09     0.05   0.00  -0.08
   7   6     0.01   0.05   0.01     0.14  -0.21  -0.27    -0.01  -0.06   0.01
   8   6     0.02  -0.09  -0.05    -0.12  -0.39   0.15    -0.00   0.05   0.01
   9   6    -0.08  -0.01   0.13    -0.16   0.09   0.29     0.02  -0.02  -0.03
  10   6    -0.03   0.12   0.09     0.04   0.14  -0.04    -0.02  -0.02   0.04
  11  17    -0.00  -0.00   0.00     0.00  -0.00  -0.00    -0.00  -0.00   0.00
  12   1     0.01  -0.14   0.05     0.00   0.05  -0.02     0.07   0.07  -0.03
  13   1     0.03   0.04  -0.08    -0.01  -0.01   0.02     0.03  -0.09   0.05
  14   1     0.01   0.07  -0.11     0.00  -0.00   0.02     0.04   0.11  -0.04
  15   1    -0.09   0.03   0.08     0.05  -0.03  -0.02     0.17  -0.14  -0.02
  16   1     0.26  -0.14   0.04    -0.04  -0.02   0.01     0.07  -0.19   0.05
  17   1     0.21   0.14   0.13    -0.06  -0.04  -0.04    -0.21   0.02  -0.08
  18   1    -0.07  -0.00  -0.10    -0.05   0.02   0.01    -0.35   0.02  -0.14
  19   1    -0.22  -0.32   0.07     0.04   0.05  -0.01     0.07   0.06   0.05
  20   1     0.11   0.40  -0.05    -0.00  -0.05   0.02     0.12   0.11   0.07
  21   1    -0.02   0.03   0.04     0.03   0.31   0.01     0.01  -0.01  -0.03
  22   1     0.06   0.10  -0.11     0.16   0.10  -0.27    -0.06  -0.10   0.09
  23   1     0.06  -0.08  -0.11    -0.05  -0.11   0.06    -0.03   0.04   0.06
  24   1    -0.02  -0.08   0.03    -0.05   0.33   0.13     0.00  -0.05  -0.01
  25   1     0.03   0.10  -0.05     0.14   0.20  -0.19    -0.09  -0.10   0.12
                     34                     35                     36
                        a                      a                      a 
 Frequencies --  1129.0614              1184.1592              1192.0068
 Red. masses --     3.9500                 1.3679                 4.2717
 Frc consts  --     0.0000                 0.0000                 0.0000
 IR Inten    --     0.8838                 0.0734                 4.4939
 Raman Activ --     0.0000                 0.0000                 0.0000
 Depolar     --     0.0000                 0.0000                 0.0000
 Atom AN      X      Y      Z        X      Y      Z        X      Y      Z
   1   7     0.00  -0.01  -0.06    -0.00   0.01   0.01    -0.02   0.08   0.17
   2   6     0.02   0.02   0.11     0.01  -0.01  -0.03     0.12  -0.17  -0.30
   3   6    -0.03  -0.03  -0.14    -0.01   0.01   0.02    -0.15   0.11   0.24
   4   6    -0.02   0.08   0.16    -0.01  -0.01   0.00     0.03  -0.05  -0.03
   5   6     0.06  -0.03  -0.09    -0.02   0.03   0.05    -0.01   0.06   0.06
   6   6    -0.10  -0.15   0.14    -0.02  -0.09   0.02     0.02  -0.06  -0.05
   7   6    -0.04   0.14   0.08    -0.01  -0.01   0.01     0.04   0.01  -0.07
   8   6     0.08  -0.06  -0.14     0.04  -0.04  -0.07    -0.00   0.00   0.01
   9   6    -0.08  -0.05   0.12    -0.01   0.04   0.02    -0.01   0.02   0.03
  10   6     0.01   0.23   0.02     0.02   0.08  -0.02    -0.00  -0.01  -0.00
  11  17     0.00  -0.00  -0.00    -0.00   0.00   0.00    -0.00   0.00   0.00
  12   1     0.00   0.07  -0.03     0.00  -0.01   0.01    -0.00  -0.19   0.08
  13   1    -0.01  -0.02   0.04     0.00   0.00  -0.01     0.04   0.05  -0.13
  14   1     0.00  -0.01   0.03    -0.00   0.00  -0.01    -0.00   0.05  -0.13
  15   1     0.06  -0.03  -0.03    -0.00  -0.00   0.01    -0.05  -0.06   0.12
  16   1    -0.08  -0.01   0.01     0.02   0.01  -0.01     0.18   0.14  -0.08
  17   1    -0.05  -0.06  -0.05    -0.02   0.01  -0.00    -0.29   0.16  -0.04
  18   1    -0.07   0.02   0.01     0.01  -0.00  -0.00     0.12  -0.03  -0.02
  19   1     0.06   0.10  -0.04     0.02   0.02   0.01     0.18   0.21   0.11
  20   1     0.03  -0.09   0.05    -0.02  -0.03  -0.01    -0.27  -0.28  -0.09
  21   1    -0.04  -0.44  -0.01    -0.00   0.09   0.02    -0.00  -0.32  -0.06
  22   1     0.09   0.17  -0.12    -0.19  -0.25   0.28     0.10   0.12  -0.15
  23   1     0.18  -0.16  -0.33     0.32  -0.29  -0.58    -0.02   0.02   0.04
  24   1    -0.03  -0.28   0.00     0.01   0.47   0.07     0.00   0.14   0.03
  25   1     0.18   0.29  -0.24    -0.08  -0.08   0.11    -0.02  -0.04   0.05
                     37                     38                     39
                        a                      a                      a 
 Frequencies --  1199.0801              1216.1551              1240.9340
 Red. masses --     2.2345                 3.6522                 6.6586
 Frc consts  --     0.0000                 0.0000                 0.0000
 IR Inten    --     0.9210                 1.1865                 3.0796
 Raman Activ --     0.0000                 0.0000                 0.0000
 Depolar     --     0.0000                 0.0000                 0.0000
 Atom AN      X      Y      Z        X      Y      Z        X      Y      Z
   1   7    -0.01   0.03   0.07    -0.08  -0.02   0.07     0.02   0.05   0.09
   2   6     0.07  -0.07  -0.13     0.15   0.06  -0.09    -0.02  -0.04  -0.03
   3   6    -0.09   0.04   0.08    -0.09  -0.09  -0.15     0.07  -0.04  -0.05
   4   6     0.03   0.03  -0.01     0.09   0.17   0.19    -0.03  -0.16   0.15
   5   6    -0.04  -0.07   0.07    -0.09  -0.22  -0.03     0.12   0.49  -0.21
   6   6    -0.01   0.08   0.03    -0.03  -0.04   0.05     0.05   0.16  -0.06
   7   6    -0.05  -0.01   0.08    -0.02   0.06   0.05     0.03  -0.18  -0.08
   8   6    -0.01  -0.03   0.01     0.01   0.02  -0.02    -0.02  -0.08   0.02
   9   6     0.03  -0.10  -0.07     0.04   0.05  -0.04    -0.10  -0.04   0.17
  10   6     0.06   0.02  -0.10    -0.01  -0.04   0.03     0.04   0.16  -0.03
  11  17    -0.00   0.00   0.00    -0.00   0.00   0.00    -0.00  -0.00   0.00
  12   1     0.00  -0.08   0.03     0.02  -0.06   0.04    -0.02  -0.07   0.03
  13   1     0.02   0.02  -0.05     0.03  -0.04  -0.02     0.02   0.04  -0.06
  14   1    -0.01   0.01  -0.06     0.01   0.05  -0.05    -0.01  -0.01  -0.05
  15   1    -0.01  -0.02   0.04     0.03   0.03  -0.05     0.04  -0.13   0.07
  16   1     0.07   0.07  -0.04    -0.03   0.13  -0.07    -0.09   0.25  -0.09
  17   1    -0.16   0.07  -0.03    -0.41  -0.01  -0.18    -0.05  -0.06  -0.04
  18   1     0.09  -0.01   0.01     0.49  -0.07   0.15     0.04  -0.01   0.01
  19   1     0.10   0.13   0.03    -0.24  -0.29  -0.11    -0.24  -0.33  -0.05
  20   1    -0.09  -0.07  -0.03     0.19   0.16   0.10    -0.05  -0.14   0.03
  21   1     0.01   0.44   0.07    -0.02   0.08   0.03     0.01  -0.11  -0.05
  22   1    -0.19  -0.24   0.29     0.05   0.11  -0.09    -0.10  -0.19   0.13
  23   1     0.00  -0.01  -0.01     0.01  -0.00  -0.03    -0.01  -0.03   0.00
  24   1     0.01  -0.36  -0.07     0.01   0.08  -0.01    -0.04  -0.25   0.02
  25   1     0.25   0.29  -0.35    -0.02  -0.02   0.01    -0.07  -0.05   0.11
                     40                     41                     42
                        a                      a                      a 
 Frequencies --  1249.3145              1287.3326              1322.6187
 Red. masses --     2.9660                 3.5440                 3.5755
 Frc consts  --     0.0000                 0.0000                 0.0000
 IR Inten    --    15.3726                 0.8754                14.3335
 Raman Activ --     0.0000                 0.0000                 0.0000
 Depolar     --     0.0000                 0.0000                 0.0000
 Atom AN      X      Y      Z        X      Y      Z        X      Y      Z
   1   7     0.11   0.12   0.17     0.00  -0.02   0.01     0.10   0.11  -0.06
   2   6    -0.11  -0.12  -0.04     0.01  -0.00   0.02    -0.19   0.32  -0.10
   3   6     0.03  -0.04  -0.15    -0.05  -0.03  -0.04    -0.20  -0.04  -0.04
   4   6    -0.02   0.08  -0.01     0.10   0.07  -0.04    -0.02  -0.09   0.01
   5   6    -0.01  -0.18   0.03    -0.13   0.04   0.17     0.01   0.05   0.00
   6   6    -0.02  -0.05   0.03     0.01   0.20   0.01     0.00   0.02   0.00
   7   6    -0.03   0.05   0.05     0.05   0.03  -0.07     0.01  -0.01  -0.03
   8   6     0.01   0.03  -0.01     0.10  -0.07  -0.17    -0.00  -0.01   0.00
   9   6     0.03   0.03  -0.05     0.03  -0.08  -0.06    -0.01  -0.01   0.02
  10   6    -0.02  -0.06   0.03    -0.10  -0.16   0.14     0.01   0.02  -0.02
  11  17     0.00   0.00   0.00    -0.00   0.00  -0.00     0.00   0.00  -0.00
  12   1    -0.07  -0.12   0.05    -0.00   0.03  -0.00    -0.04  -0.10   0.00
  13   1     0.02   0.15  -0.15    -0.01   0.02  -0.01     0.05  -0.05   0.07
  14   1    -0.03  -0.04  -0.08     0.01   0.02  -0.01    -0.10  -0.19   0.08
  15   1     0.16  -0.45   0.23     0.01  -0.02   0.01     0.28  -0.50   0.18
  16   1    -0.18   0.47  -0.16    -0.04   0.03  -0.01     0.21  -0.35   0.14
  17   1     0.14  -0.09   0.01     0.09  -0.01   0.03     0.09  -0.00   0.04
  18   1    -0.25   0.03  -0.07     0.00  -0.01  -0.00     0.33  -0.06   0.09
  19   1     0.06   0.09  -0.03    -0.12  -0.16   0.00     0.06   0.06   0.06
  20   1     0.15   0.17   0.04    -0.00   0.06  -0.02     0.05   0.03   0.02
  21   1    -0.00   0.09   0.03    -0.01  -0.43  -0.06    -0.00  -0.04  -0.01
  22   1     0.04   0.08  -0.06    -0.15  -0.20   0.22    -0.01  -0.03   0.02
  23   1     0.01   0.01  -0.01    -0.12   0.11   0.21    -0.01   0.00   0.01
  24   1     0.01   0.07  -0.01     0.01   0.38   0.04    -0.00  -0.01   0.00
  25   1     0.00  -0.01  -0.00     0.20   0.26  -0.30    -0.00  -0.00   0.01
                     43                     44                     45
                        a                      a                      a 
 Frequencies --  1335.6943              1350.2449              1354.4416
 Red. masses --    10.0358                 6.0604                 4.7331
 Frc consts  --     0.0000                 0.0000                 0.0000
 IR Inten    --     1.0416                 2.8514                 5.3852
 Raman Activ --     0.0000                 0.0000                 0.0000
 Depolar     --     0.0000                 0.0000                 0.0000
 Atom AN      X      Y      Z        X      Y      Z        X      Y      Z
   1   7     0.00   0.03  -0.01     0.03   0.06  -0.03     0.05   0.07  -0.01
   2   6     0.02   0.00   0.03    -0.07   0.07  -0.02    -0.15   0.08  -0.10
   3   6    -0.10  -0.06  -0.01     0.04  -0.11   0.09     0.44  -0.05   0.15
   4   6     0.19   0.19  -0.01     0.24   0.37   0.04    -0.12   0.01  -0.00
   5   6    -0.21   0.09   0.29     0.01  -0.17  -0.14    -0.03   0.03   0.08
   6   6    -0.00  -0.38  -0.06     0.02   0.11  -0.01    -0.01  -0.08   0.01
   7   6     0.14   0.21  -0.20    -0.11  -0.12   0.18     0.05   0.08  -0.08
   8   6    -0.15   0.15   0.28     0.06  -0.03  -0.11    -0.02   0.02   0.04
   9   6     0.01  -0.33  -0.06     0.04   0.22  -0.02    -0.01  -0.12  -0.01
  10   6     0.15   0.19  -0.22    -0.09  -0.15   0.13     0.02   0.06  -0.03
  11  17     0.00   0.00  -0.00     0.00   0.00  -0.00     0.00   0.00   0.00
  12   1     0.00  -0.02   0.00    -0.01  -0.04   0.00    -0.06  -0.04  -0.01
  13   1     0.02  -0.03   0.01     0.05  -0.06   0.03     0.08  -0.10   0.03
  14   1    -0.03  -0.04   0.01    -0.06  -0.10   0.02    -0.10  -0.17  -0.04
  15   1     0.02  -0.03   0.01     0.04  -0.11   0.07    -0.02  -0.06   0.06
  16   1    -0.04   0.02  -0.01     0.04  -0.12   0.04     0.13  -0.18   0.06
  17   1     0.18   0.00   0.07     0.02   0.05   0.02    -0.52   0.03  -0.19
  18   1    -0.02  -0.02  -0.03    -0.21  -0.02  -0.13    -0.36   0.02  -0.16
  19   1    -0.17  -0.22  -0.04    -0.20  -0.23  -0.12    -0.08  -0.06  -0.05
  20   1    -0.17  -0.11  -0.07    -0.35  -0.37  -0.12     0.15   0.14   0.06
  21   1     0.00   0.03   0.00    -0.00   0.11   0.00    -0.00  -0.04   0.00
  22   1     0.02   0.04  -0.03     0.04   0.07  -0.07    -0.02  -0.02   0.03
  23   1     0.00   0.00  -0.01     0.03  -0.02  -0.06    -0.02   0.02   0.04
  24   1     0.00   0.00  -0.01     0.01  -0.01  -0.02    -0.00   0.05   0.01
  25   1     0.00   0.01  -0.02     0.00  -0.01  -0.01     0.03   0.04  -0.03
                     46                     47                     48
                        a                      a                      a 
 Frequencies --  1362.5516              1400.7557              1441.6755
 Red. masses --     2.5818                 1.7038                 5.5930
 Frc consts  --     0.0000                 0.0000                 0.0000
 IR Inten    --   109.3610                83.7846                27.9329
 Raman Activ --     0.0000                 0.0000                 0.0000
 Depolar     --     0.0000                 0.0000                 0.0000
 Atom AN      X      Y      Z        X      Y      Z        X      Y      Z
   1   7    -0.08   0.28  -0.03    -0.11   0.07  -0.18    -0.10  -0.09   0.11
   2   6     0.10  -0.11   0.07    -0.02  -0.03  -0.03    -0.07   0.05   0.01
   3   6    -0.06   0.05  -0.04     0.05   0.01   0.02     0.03  -0.01   0.01
   4   6    -0.01  -0.04  -0.02    -0.01   0.00  -0.00     0.01  -0.03  -0.05
   5   6     0.01  -0.01   0.01    -0.00   0.01   0.01    -0.13   0.13   0.25
   6   6     0.00   0.04  -0.00    -0.00  -0.01  -0.00     0.09   0.13  -0.14
   7   6    -0.00  -0.02   0.00     0.00   0.01  -0.00    -0.04  -0.24   0.03
   8   6     0.00  -0.01  -0.01     0.00   0.00  -0.00    -0.11   0.11   0.21
   9   6    -0.00   0.03   0.00     0.00  -0.01  -0.00     0.09   0.18  -0.12
  10   6    -0.01  -0.02   0.01     0.00  -0.00   0.00    -0.00  -0.21  -0.02
  11  17     0.01   0.01  -0.00    -0.00  -0.00  -0.01    -0.00  -0.00   0.00
  12   1     0.13  -0.14   0.06     0.48  -0.37   0.15     0.33   0.33  -0.00
  13   1     0.37  -0.46  -0.01    -0.08   0.10  -0.02     0.15   0.02  -0.42
  14   1    -0.36  -0.50   0.01     0.08   0.09   0.71    -0.01  -0.00  -0.03
  15   1    -0.09   0.18  -0.06    -0.02  -0.02   0.04     0.04  -0.06  -0.02
  16   1    -0.13   0.12  -0.05    -0.01   0.05  -0.02     0.07  -0.04   0.03
  17   1     0.10  -0.03   0.03    -0.05  -0.03  -0.02    -0.02  -0.02  -0.01
  18   1     0.05   0.01   0.03    -0.04  -0.00  -0.05    -0.00  -0.01  -0.03
  19   1     0.05   0.06   0.02    -0.01  -0.01  -0.01    -0.03  -0.05   0.03
  20   1     0.02   0.04   0.00     0.02   0.01   0.01     0.06   0.09   0.01
  21   1     0.00  -0.04  -0.01     0.00  -0.00   0.00     0.03  -0.10  -0.06
  22   1    -0.00  -0.01   0.00     0.00  -0.00   0.01     0.08   0.04  -0.12
  23   1    -0.00  -0.00   0.00    -0.00   0.00   0.01     0.11  -0.10  -0.21
  24   1    -0.00   0.00   0.00    -0.00   0.01  -0.00     0.02  -0.13  -0.06
  25   1    -0.00  -0.01   0.00     0.00   0.01  -0.01     0.06   0.02  -0.10
                     49                     50                     51
                        a                      a                      a 
 Frequencies --  1448.9560              1482.2330              1484.8065
 Red. masses --     5.1865                 3.0604                 7.5892
 Frc consts  --     0.0000                 0.0000                 0.0000
 IR Inten    --    29.1761                11.7863                 2.8432
 Raman Activ --     0.0000                 0.0000                 0.0000
 Depolar     --     0.0000                 0.0000                 0.0000
 Atom AN      X      Y      Z        X      Y      Z        X      Y      Z
   1   7     0.11   0.09  -0.11     0.00   0.02  -0.01    -0.00  -0.00  -0.00
   2   6     0.07  -0.04  -0.02    -0.20  -0.07   0.13    -0.10  -0.04   0.06
   3   6     0.01  -0.00  -0.02    -0.01   0.02   0.02     0.01  -0.06  -0.03
   4   6     0.00  -0.04  -0.05    -0.02  -0.01  -0.03     0.03   0.14  -0.06
   5   6    -0.12   0.12   0.23     0.04   0.16  -0.05    -0.11  -0.35   0.11
   6   6     0.09   0.13  -0.12     0.03  -0.11  -0.07    -0.06   0.22   0.14
   7   6    -0.03  -0.22   0.01    -0.08  -0.06   0.12     0.16   0.12  -0.26
   8   6    -0.11   0.10   0.20     0.03   0.10  -0.03    -0.07  -0.21   0.08
   9   6     0.09   0.18  -0.12     0.02  -0.14  -0.06    -0.04   0.30   0.11
  10   6    -0.01  -0.20  -0.02    -0.07  -0.03   0.11     0.14   0.04  -0.22
  11  17    -0.00   0.00  -0.00     0.00   0.00   0.00    -0.00  -0.00   0.00
  12   1    -0.35  -0.33  -0.00    -0.05  -0.07   0.01    -0.00  -0.02   0.01
  13   1    -0.18  -0.01   0.45    -0.01  -0.04   0.08    -0.01   0.01   0.01
  14   1     0.03   0.02   0.03    -0.02  -0.02   0.01     0.00   0.00   0.02
  15   1    -0.06   0.06   0.04     0.25  -0.01  -0.54     0.12  -0.01  -0.25
  16   1    -0.08   0.03  -0.04     0.49   0.32   0.06     0.23   0.15   0.03
  17   1    -0.01   0.04  -0.01     0.01  -0.08   0.01     0.02   0.15  -0.00
  18   1    -0.01   0.02   0.04     0.02  -0.03  -0.07    -0.08   0.05   0.12
  19   1    -0.02  -0.03   0.03    -0.03  -0.04   0.13    -0.01  -0.00   0.08
  20   1     0.07   0.09   0.01     0.08  -0.10   0.03     0.06  -0.05   0.01
  21   1     0.02  -0.11  -0.06     0.01   0.10  -0.00    -0.03  -0.21   0.00
  22   1     0.06   0.03  -0.10     0.04   0.07  -0.06    -0.09  -0.15   0.13
  23   1     0.10  -0.10  -0.19     0.01   0.03  -0.01    -0.02  -0.07   0.02
  24   1     0.02  -0.12  -0.06     0.01   0.10   0.00    -0.02  -0.22  -0.01
  25   1     0.06   0.02  -0.10     0.05   0.08  -0.06    -0.09  -0.15   0.12
                     52                     53                     54
                        a                      a                      a 
 Frequencies --  1493.0477              1504.4050              1602.4926
 Red. masses --     2.3809                 1.9832                11.5016
 Frc consts  --     0.0000                 0.0000                 0.0000
 IR Inten    --     6.9366                 3.5724                 0.7333
 Raman Activ --     0.0000                 0.0000                 0.0000
 Depolar     --     0.0000                 0.0000                 0.0000
 Atom AN      X      Y      Z        X      Y      Z        X      Y      Z
   1   7    -0.01   0.01   0.00     0.00  -0.00   0.01     0.00   0.00  -0.00
   2   6    -0.00  -0.01  -0.02     0.06   0.01  -0.03    -0.00   0.00   0.00
   3   6     0.04  -0.22  -0.14    -0.02   0.05   0.02     0.00  -0.00   0.00
   4   6    -0.03  -0.02  -0.02    -0.08   0.17  -0.21     0.01  -0.03  -0.03
   5   6     0.03   0.10  -0.05    -0.01  -0.02  -0.01    -0.21   0.21   0.38
   6   6     0.01  -0.06  -0.04    -0.00  -0.02  -0.00     0.07  -0.27  -0.17
   7   6    -0.05  -0.03   0.08    -0.00   0.02   0.01    -0.16   0.03   0.27
   8   6     0.02   0.06  -0.03     0.01  -0.01  -0.01     0.24  -0.24  -0.44
   9   6     0.01  -0.10  -0.03    -0.00   0.00   0.00    -0.10   0.27   0.20
  10   6    -0.03   0.00   0.06     0.00   0.00   0.01     0.15   0.00  -0.25
  11  17    -0.00  -0.00   0.00     0.00  -0.00   0.00    -0.00   0.00   0.00
  12   1     0.05   0.01   0.01    -0.00   0.02  -0.00    -0.01  -0.00  -0.00
  13   1     0.02  -0.01  -0.04     0.00   0.01  -0.02    -0.00  -0.00   0.01
  14   1    -0.01  -0.01   0.02     0.00   0.00  -0.02    -0.00  -0.00  -0.00
  15   1    -0.00  -0.02   0.02    -0.07   0.01   0.13     0.00   0.00  -0.00
  16   1     0.00  -0.01  -0.00    -0.14  -0.07  -0.02    -0.00   0.00  -0.00
  17   1     0.04   0.65  -0.03    -0.00  -0.11   0.01     0.00   0.00   0.00
  18   1    -0.18   0.20   0.58     0.02  -0.03  -0.10    -0.00  -0.00  -0.00
  19   1    -0.02  -0.03   0.10    -0.10  -0.10   0.62    -0.02  -0.03   0.01
  20   1     0.07  -0.07   0.03     0.45  -0.45   0.16     0.02   0.07   0.00
  21   1     0.01   0.07   0.00     0.00   0.04   0.01     0.02   0.07  -0.02
  22   1     0.02   0.04  -0.03    -0.00   0.00   0.00     0.01   0.07   0.00
  23   1     0.00   0.02   0.00    -0.00   0.00   0.01    -0.06   0.05   0.10
  24   1     0.00   0.07   0.01    -0.00   0.00   0.00    -0.03  -0.06   0.04
  25   1     0.01   0.04  -0.03     0.00   0.01  -0.00    -0.02  -0.07   0.02
                     55                     56                     57
                        a                      a                      a 
 Frequencies --  1613.5329              2809.5340              2924.1787
 Red. masses --    11.5236                 2.0321                 1.9155
 Frc consts  --     0.0000                 0.0000                 0.0000
 IR Inten    --     3.2389              2088.7485                10.7402
 Raman Activ --     0.0000                 0.0000                 0.0000
 Depolar     --     0.0000                 0.0000                 0.0000
 Atom AN      X      Y      Z        X      Y      Z        X      Y      Z
   1   7    -0.00   0.00   0.00    -0.24   0.13   0.02     0.00   0.00  -0.00
   2   6     0.00   0.00  -0.00     0.00   0.00  -0.00     0.02   0.00   0.00
   3   6    -0.01  -0.00  -0.01     0.00  -0.01   0.00    -0.08  -0.20   0.18
   4   6    -0.01  -0.04   0.02     0.00  -0.00   0.00     0.01  -0.01  -0.03
   5   6     0.10   0.26  -0.11     0.00  -0.00   0.00     0.00   0.00  -0.00
   6   6    -0.07  -0.44   0.04     0.00   0.00   0.00    -0.00   0.00   0.00
   7   6     0.18   0.34  -0.25    -0.00   0.00   0.00     0.00  -0.00  -0.00
   8   6    -0.07  -0.17   0.09     0.00   0.00  -0.00    -0.00  -0.00   0.00
   9   6     0.07   0.42  -0.04     0.00   0.00  -0.00     0.00   0.00  -0.00
  10   6    -0.19  -0.35   0.26     0.00  -0.00   0.00     0.00  -0.00  -0.00
  11  17     0.00  -0.00   0.00     0.01  -0.01  -0.00    -0.00   0.00  -0.00
  12   1     0.00   0.00   0.00    -0.01   0.00  -0.02    -0.00   0.00   0.00
  13   1     0.01  -0.01  -0.00     0.02   0.05   0.02    -0.00  -0.00  -0.00
  14   1    -0.00  -0.00  -0.00     0.81  -0.51  -0.07    -0.01   0.00   0.00
  15   1     0.00  -0.00   0.00     0.00  -0.00  -0.00    -0.05  -0.04  -0.03
  16   1    -0.00  -0.00  -0.00     0.00   0.00   0.00    -0.01   0.01   0.05
  17   1     0.00   0.01  -0.00    -0.00   0.00   0.01     0.15  -0.05  -0.43
  18   1     0.01   0.00   0.01     0.01   0.01  -0.01     0.16   0.78  -0.22
  19   1    -0.01  -0.01  -0.00    -0.01   0.01  -0.00    -0.00   0.00  -0.01
  20   1    -0.01  -0.01   0.00     0.00  -0.00  -0.01    -0.04   0.01   0.13
  21   1    -0.01   0.09   0.04     0.00  -0.00  -0.00    -0.00   0.00  -0.00
  22   1    -0.05  -0.04   0.08     0.00  -0.00  -0.00    -0.00   0.00   0.00
  23   1    -0.01  -0.05   0.01    -0.00  -0.00   0.00     0.00   0.00  -0.00
  24   1     0.01  -0.09  -0.04    -0.00  -0.00   0.00     0.00  -0.00  -0.00
  25   1     0.06   0.05  -0.08    -0.00   0.00   0.00    -0.00   0.00   0.00
                     58                     59                     60
                        a                      a                      a 
 Frequencies --  2929.5937              2947.0944              2957.4692
 Red. masses --     1.9107                 1.8751                 1.5870
 Frc consts  --     0.0000                 0.0000                 0.0000
 IR Inten    --    10.4210                 3.1904                20.4254
 Raman Activ --     0.0000                 0.0000                 0.0000
 Depolar     --     0.0000                 0.0000                 0.0000
 Atom AN      X      Y      Z        X      Y      Z        X      Y      Z
   1   7     0.00  -0.00   0.00     0.00  -0.00  -0.00     0.01  -0.00  -0.00
   2   6    -0.00   0.00   0.01     0.12   0.13   0.20    -0.07  -0.06  -0.07
   3   6     0.00   0.03   0.01     0.03  -0.04  -0.07     0.04  -0.12  -0.13
   4   6     0.21  -0.14  -0.13     0.01  -0.01  -0.00     0.04  -0.05   0.06
   5   6     0.01  -0.01  -0.01     0.00  -0.00  -0.00    -0.00  -0.00   0.00
   6   6    -0.00  -0.00   0.00     0.00   0.00  -0.00    -0.00   0.00   0.00
   7   6     0.00   0.00  -0.00    -0.00  -0.00  -0.00     0.00   0.00  -0.00
   8   6    -0.00   0.00   0.00     0.00   0.00  -0.00    -0.00   0.00   0.00
   9   6     0.00  -0.00  -0.00     0.00   0.00  -0.00    -0.00  -0.00   0.00
  10   6    -0.00   0.00   0.00    -0.00   0.00   0.00    -0.00   0.00   0.00
  11  17    -0.00  -0.00   0.00    -0.00  -0.00   0.00    -0.00   0.00   0.00
  12   1     0.00   0.00  -0.00    -0.00   0.00   0.01     0.00  -0.00   0.00
  13   1    -0.00  -0.00  -0.00     0.02   0.01   0.01    -0.01  -0.01  -0.01
  14   1    -0.00   0.00  -0.00    -0.01   0.00  -0.00    -0.02   0.01   0.00
  15   1     0.00  -0.00   0.00    -0.54  -0.39  -0.25     0.29   0.21   0.14
  16   1     0.00  -0.00  -0.02     0.14  -0.10  -0.47    -0.03   0.02   0.09
  17   1     0.03   0.00  -0.10    -0.12   0.01   0.34    -0.22   0.01   0.61
  18   1    -0.03  -0.13   0.05     0.04   0.16  -0.06     0.09   0.40  -0.15
  19   1    -0.63   0.50  -0.01    -0.05   0.04   0.00    -0.26   0.20   0.01
  20   1    -0.14   0.00   0.47    -0.00  -0.00   0.00     0.10  -0.02  -0.26
  21   1     0.00   0.00  -0.01    -0.00  -0.00   0.00     0.00  -0.00  -0.00
  22   1    -0.00   0.00   0.00     0.00   0.00  -0.00     0.00  -0.00  -0.00
  23   1     0.00   0.00   0.00    -0.00  -0.00  -0.00     0.00   0.00   0.00
  24   1    -0.00   0.00   0.00    -0.00  -0.00   0.00     0.00   0.00   0.00
  25   1     0.00  -0.01  -0.00     0.00  -0.00  -0.00     0.00  -0.01  -0.00
                     61                     62                     63
                        a                      a                      a 
 Frequencies --  2962.5652              2977.4847              3092.3182
 Red. masses --     1.5801                 1.5688                 1.7568
 Frc consts  --     0.0000                 0.0000                 0.0000
 IR Inten    --    33.8489                 8.6307                 1.1929
 Raman Activ --     0.0000                 0.0000                 0.0000
 Depolar     --     0.0000                 0.0000                 0.0000
 Atom AN      X      Y      Z        X      Y      Z        X      Y      Z
   1   7    -0.00   0.00   0.00    -0.00   0.00   0.00     0.00   0.00  -0.00
   2   6    -0.04  -0.03  -0.02     0.15   0.02  -0.16    -0.00  -0.00  -0.00
   3   6     0.02  -0.03  -0.09     0.02  -0.00  -0.05    -0.00   0.00   0.00
   4   6    -0.02   0.06  -0.19     0.01  -0.00  -0.01    -0.00   0.00  -0.00
   5   6     0.00   0.00  -0.01     0.00   0.00  -0.00     0.00   0.00   0.00
   6   6    -0.00  -0.00   0.00    -0.00  -0.00   0.00     0.01   0.00  -0.02
   7   6     0.00   0.00  -0.00     0.00   0.00  -0.00    -0.02   0.08   0.05
   8   6    -0.00  -0.00   0.00    -0.00  -0.00   0.00    -0.04  -0.15   0.05
   9   6     0.00  -0.00  -0.00    -0.00  -0.00   0.00     0.09   0.02  -0.14
  10   6    -0.00   0.00   0.00    -0.00   0.00   0.00    -0.01   0.04   0.03
  11  17     0.00  -0.00   0.00    -0.00  -0.00   0.00     0.00   0.00  -0.00
  12   1     0.00  -0.00   0.00     0.00  -0.00  -0.02    -0.00   0.00   0.00
  13   1    -0.00  -0.00  -0.00     0.01   0.01   0.01    -0.00  -0.00  -0.00
  14   1     0.01  -0.00  -0.00    -0.00   0.01  -0.00    -0.00   0.00  -0.00
  15   1     0.14   0.10   0.07    -0.36  -0.27  -0.20     0.00   0.00   0.00
  16   1    -0.00  -0.01  -0.02    -0.17   0.19   0.78    -0.00   0.00   0.00
  17   1    -0.12   0.01   0.34    -0.06   0.01   0.16     0.00  -0.00  -0.00
  18   1     0.02   0.09  -0.04     0.00  -0.00  -0.01    -0.00  -0.00   0.00
  19   1     0.33  -0.26  -0.03    -0.01   0.00  -0.00     0.00  -0.00   0.00
  20   1    -0.27   0.05   0.72    -0.02   0.00   0.05    -0.00   0.00   0.00
  21   1     0.01   0.00  -0.01     0.00   0.00  -0.01    -0.05  -0.01   0.09
  22   1    -0.00   0.00   0.00    -0.00  -0.00   0.00     0.09  -0.28  -0.19
  23   1    -0.00   0.00   0.00    -0.00   0.00   0.00     0.17   0.56  -0.19
  24   1     0.00   0.00  -0.00     0.00   0.00  -0.00    -0.32  -0.07   0.52
  25   1     0.00  -0.00  -0.00     0.00  -0.00  -0.00     0.05  -0.16  -0.11
                     64                     65                     66
                        a                      a                      a 
 Frequencies --  3097.0500              3104.4687              3110.2908
 Red. masses --     1.7931                 1.8405                 1.8720
 Frc consts  --     0.0000                 0.0000                 0.0000
 IR Inten    --     2.2909                40.1412                66.6220
 Raman Activ --     0.0000                 0.0000                 0.0000
 Depolar     --     0.0000                 0.0000                 0.0000
 Atom AN      X      Y      Z        X      Y      Z        X      Y      Z
   1   7     0.00  -0.00  -0.00    -0.00  -0.00  -0.00    -0.00  -0.00  -0.00
   2   6    -0.00   0.00   0.00     0.00   0.00   0.00     0.00  -0.00  -0.00
   3   6    -0.00   0.00   0.00     0.00   0.00  -0.00     0.00  -0.00  -0.00
   4   6    -0.00   0.00   0.00     0.00  -0.00   0.00     0.00  -0.00  -0.00
   5   6    -0.00   0.00   0.00    -0.00  -0.01   0.00     0.00  -0.00  -0.00
   6   6    -0.05  -0.01   0.09    -0.08  -0.01   0.13     0.08   0.02  -0.13
   7   6     0.04  -0.14  -0.09     0.02  -0.06  -0.04     0.03  -0.10  -0.06
   8   6     0.01   0.04  -0.02    -0.05  -0.16   0.05    -0.01  -0.01   0.01
   9   6     0.07   0.02  -0.12    -0.04  -0.01   0.06     0.05   0.01  -0.08
  10   6    -0.02   0.07   0.05     0.03  -0.09  -0.06     0.04  -0.14  -0.10
  11  17     0.00   0.00   0.00     0.00   0.00  -0.00     0.00   0.00   0.00
  12   1    -0.00   0.00   0.00     0.00  -0.00  -0.00     0.00   0.00   0.00
  13   1    -0.00  -0.00   0.00     0.00   0.00   0.00     0.01   0.01   0.00
  14   1     0.00  -0.00  -0.00     0.00  -0.00   0.00    -0.00  -0.00  -0.00
  15   1    -0.00   0.00   0.00    -0.00  -0.00  -0.00     0.00   0.00   0.00
  16   1     0.00  -0.00  -0.00     0.00  -0.00  -0.00    -0.00   0.00   0.01
  17   1     0.00  -0.00  -0.00    -0.00   0.00   0.00    -0.00   0.00   0.01
  18   1    -0.00  -0.00   0.00    -0.00  -0.00   0.00    -0.00  -0.00   0.00
  19   1     0.00  -0.00   0.00    -0.00   0.00  -0.00    -0.00   0.00  -0.00
  20   1     0.00   0.00  -0.01     0.00   0.00  -0.01    -0.00  -0.00   0.01
  21   1     0.20   0.04  -0.32     0.28   0.05  -0.45    -0.28  -0.06   0.46
  22   1    -0.16   0.51   0.34    -0.06   0.19   0.13    -0.10   0.32   0.21
  23   1    -0.05  -0.16   0.05     0.16   0.55  -0.19     0.01   0.04  -0.01
  24   1    -0.26  -0.06   0.43     0.13   0.03  -0.21    -0.15  -0.03   0.25
  25   1     0.07  -0.25  -0.17    -0.10   0.32   0.22    -0.15   0.50   0.34
                     67                     68                     69
                        a                      a                      a 
 Frequencies --  3113.1542              3189.8621              3209.6861
 Red. masses --     1.9141                 2.0156                 1.5265
 Frc consts  --     0.0000                 0.0000                 0.0000
 IR Inten    --     4.4877               191.5015                47.5114
 Raman Activ --     0.0000                 0.0000                 0.0000
 Depolar     --     0.0000                 0.0000                 0.0000
 Atom AN      X      Y      Z        X      Y      Z        X      Y      Z
   1   7     0.00   0.01   0.01    -0.13  -0.15  -0.19     0.11   0.03  -0.16
   2   6     0.00   0.00  -0.00    -0.01  -0.01  -0.01     0.01   0.01  -0.01
   3   6    -0.00   0.00   0.00    -0.00  -0.00   0.00    -0.00   0.00   0.00
   4   6    -0.00   0.00  -0.00     0.00  -0.00  -0.00    -0.00   0.00  -0.00
   5   6     0.00   0.01  -0.00     0.00   0.00   0.00    -0.00  -0.00  -0.00
   6   6     0.07   0.01  -0.11     0.00  -0.00  -0.00    -0.00   0.00   0.00
   7   6     0.03  -0.10  -0.07    -0.00  -0.00  -0.00     0.00   0.00  -0.00
   8   6    -0.03  -0.11   0.04    -0.00  -0.00   0.00     0.00   0.00  -0.00
   9   6    -0.06  -0.01   0.10    -0.00   0.00   0.00     0.00  -0.00  -0.00
  10   6    -0.03   0.12   0.08    -0.00   0.01   0.01     0.00  -0.00  -0.00
  11  17     0.00   0.00   0.00     0.00  -0.00  -0.00    -0.00   0.00   0.00
  12   1     0.00  -0.00  -0.01    -0.10   0.09   0.45    -0.13   0.18   0.82
  13   1    -0.02  -0.02  -0.01     0.63   0.47   0.27    -0.35  -0.28  -0.19
  14   1     0.01  -0.00  -0.00    -0.05   0.01  -0.01     0.06  -0.03  -0.02
  15   1    -0.00  -0.00  -0.00     0.02   0.01   0.01    -0.01  -0.01  -0.01
  16   1    -0.00   0.00   0.00    -0.00   0.00   0.01    -0.00   0.01   0.02
  17   1     0.00  -0.00  -0.00     0.00  -0.00  -0.00    -0.00   0.00  -0.00
  18   1    -0.00  -0.00   0.00    -0.00   0.00  -0.00     0.00  -0.01   0.00
  19   1     0.00  -0.00   0.00    -0.00   0.00   0.00     0.00  -0.00   0.00
  20   1    -0.00  -0.00   0.00     0.00  -0.00   0.00    -0.00   0.00   0.00
  21   1    -0.23  -0.05   0.37    -0.01  -0.00   0.01     0.00   0.00  -0.00
  22   1    -0.10   0.34   0.23    -0.00   0.00   0.00     0.00  -0.00  -0.00
  23   1     0.10   0.36  -0.12     0.00   0.01  -0.00    -0.00  -0.00   0.00
  24   1     0.20   0.04  -0.32     0.01   0.00  -0.01    -0.00   0.00   0.00
  25   1     0.12  -0.40  -0.27     0.01  -0.02  -0.01    -0.00   0.01   0.01
