25
 energy: -27.883425056539 gnorm: 0.000272515160 xtb: 6.5.1 (fef0646)
N            2.89635695641032        1.09201513665765        0.40016643975403
C            2.51895749178322       -0.32983992339182        0.21824686101444
C            3.05112186680194       -0.83126645503271       -1.12493212232959
C            4.55949481746464       -0.84433209183656       -1.14532354371525
C            5.26502702254215        0.15525070916718       -1.66315853285251
C            6.76112538693312        0.19427982481647       -1.71217648949325
C            7.36718737712611       -1.18026833231980       -1.44076225317858
C            6.68818142082339       -1.81220877097126       -0.23011950646830
C            5.21209406957939       -2.05284783859115       -0.53666415501747
H            2.68648188840129        1.41812451616380        1.34968352288485
H            2.39616338567262        1.68288557810231       -0.27366967921904
H            3.90567058269912        1.18581660145118        0.21898147781183
H            1.43512233864552       -0.42723685500151        0.25174511212994
H            2.94951432673992       -0.91759244038336        1.02822735985827
H            2.67235829089123       -0.20209377828627       -1.93038938867146
H            2.68357764986537       -1.84328777244218       -1.29091431188264
H            4.77038243905618        1.00284832565886       -2.11888291922674
H            7.13157341840041        0.91035381648064       -0.97059431804430
H            7.08440730110909        0.55969857413429       -2.69017870346927
H            8.44239917560824       -1.09032285090943       -1.27425917201567
H            7.21983363236365       -1.82342247619119       -2.31151485019442
H            6.79030892068493       -1.14360396327689        0.62699800603532
H            7.17413987571785       -2.75564726413706        0.02557988810294
H            4.68815836488456       -2.35262459758829        0.37321888505512
H            5.12089199979566       -2.88566767227288       -1.24182760686820
