15
 energy: -17.242824451621 gnorm: 0.000489174773 xtb: 6.5.1 (fef0646)
N            3.15678727721263       -1.39564463137438       -0.07264307237536
C            2.38605480373889       -0.13084093068394        0.06019753977762
C            2.93555594690456        0.62350158119946        1.26496186434033
S            4.78054766240147        0.65298839531157        1.11423092754260
C            5.26333185808335        0.43696051892969        2.84654433206947
H            3.15637001980445       -1.76647403201669       -1.02630709978869
H            2.82201683226708       -2.12096576007670        0.56874477101864
H            4.14278847593464       -1.07869931744523        0.22274988436063
H            1.32042087900466       -0.33284432619571        0.17228900156468
H            2.54212137129318        0.46257695783668       -0.84182179055585
H            2.68567051613704        0.12894391387816        2.20246676799869
H            2.55635329112355        1.64277999708758        1.28551079978010
H            6.34862744751526        0.41405268645694        2.85749798865620
H            4.86691244828157       -0.49477835977993        3.23821119977246
H            4.90879117029780        1.28763330687294        3.42035688583891
