 Entering Gaussian System
 *********************************************
 Gaussian 98:
 frequency output generated by the xtb code
 *********************************************
                         Standard orientation:
 --------------------------------------------------------------------
  Center     Atomic     Atomic              Coordinates (Angstroms)
  Number     Number      Type              X           Y           Z
 --------------------------------------------------------------------
    1          7             0       -2.620632   -0.674135    0.617490
    2          6             0       -2.314365    0.777513    0.467967
    3          6             0       -1.260627    1.054536   -0.605087
    4          6             0        0.087842    0.532989   -0.256211
    5          6             0        1.082978    1.220885    0.429584
    6          6             0        2.257665    0.482299    0.611201
    7          6             0        2.194006   -0.790871    0.076454
    8         16             0        0.660372   -1.049465   -0.643441
    9          1             0       -1.770444   -1.209249    0.844588
   10          1             0       -3.008217   -1.063525   -0.254588
   11          1             0       -3.309170   -0.846290    1.366493
   12          1             0       -1.971569    1.175733    1.430785
   13          1             0       -3.244733    1.313348    0.236739
   14          1             0       -1.185132    2.131445   -0.799350
   15          1             0       -1.577812    0.605916   -1.553136
   16          1             0        0.963295    2.237687    0.775623
   17          1             0        3.133649    0.871516    1.114238
   18          1             0        2.983613   -1.521796    0.097602
 --------------------------------------------------------------------
     1 basis functions        1 primitive gaussians
     1 alpha electrons        1 beta electrons

 Harmonic frequencies (cm**-1), IR intensities (km*mol⁻¹),
 Raman scattering activities (A**4/amu), Raman depolarization ratios,
 reduced masses (AMU), force constants (mDyne/A) and normal coordinates:
                      1                      2                      3
                        a                      a                      a 
 Frequencies --    36.7758                89.5196               126.2978
 Red. masses --    15.3700                11.7049                 4.9446
 Frc consts  --     0.0000                 0.0000                 0.0000
 IR Inten    --    19.8677                23.8207                 1.6867
 Raman Activ --     0.0000                 0.0000                 0.0000
 Depolar     --     0.0000                 0.0000                 0.0000
 Atom AN      X      Y      Z        X      Y      Z        X      Y      Z
   1   7     0.32  -0.22  -0.33     0.56   0.01   0.28     0.18  -0.08   0.04
   2   6     0.08  -0.13   0.04     0.03   0.07  -0.12    -0.21  -0.02  -0.20
   3   6     0.01   0.22   0.07    -0.03   0.04  -0.18     0.04   0.10   0.08
   4   6     0.02   0.16  -0.05    -0.06   0.02  -0.09    -0.00   0.03   0.16
   5   6     0.13   0.12  -0.18    -0.15  -0.05   0.10     0.10  -0.00   0.05
   6   6     0.04  -0.01  -0.11    -0.20  -0.11   0.23     0.10  -0.04  -0.12
   7   6    -0.13  -0.07   0.05    -0.17  -0.08   0.14     0.01  -0.03  -0.14
   8  16    -0.37  -0.01   0.37    -0.08   0.07  -0.27    -0.17   0.04   0.11
   9   1     0.15  -0.05  -0.28     0.23   0.10   0.00     0.00   0.10   0.45
  10   1    -0.03   0.01  -0.07     0.10  -0.08   0.14     0.46  -0.18  -0.10
  11   1     0.20  -0.16  -0.00     0.24  -0.02   0.15    -0.25   0.01  -0.25
  12   1     0.03  -0.09   0.03    -0.02   0.12  -0.07    -0.20   0.09  -0.05
  13   1     0.00  -0.05   0.06    -0.04  -0.08  -0.07    -0.08  -0.10  -0.19
  14   1    -0.00   0.08   0.10    -0.01   0.01  -0.07     0.02   0.04   0.07
  15   1     0.00   0.13  -0.01    -0.01  -0.01  -0.04     0.06   0.07  -0.01
  16   1     0.08   0.05  -0.09    -0.05  -0.02   0.04     0.05  -0.00   0.02
  17   1     0.03  -0.01  -0.06    -0.08  -0.05   0.11     0.05  -0.02  -0.06
  18   1    -0.07  -0.05   0.04    -0.05  -0.03   0.05    -0.01  -0.02  -0.07
                      4                      5                      6
                        a                      a                      a 
 Frequencies --   179.7702               248.1871               309.3321
 Red. masses --     7.4698                13.0530                11.2553
 Frc consts  --     0.0000                 0.0000                 0.0000
 IR Inten    --     6.4009                11.7812                 1.4936
 Raman Activ --     0.0000                 0.0000                 0.0000
 Depolar     --     0.0000                 0.0000                 0.0000
 Atom AN      X      Y      Z        X      Y      Z        X      Y      Z
   1   7     0.03   0.08  -0.02     0.26   0.19  -0.24    -0.09  -0.03   0.09
   2   6    -0.29   0.10  -0.27     0.09   0.22   0.19    -0.32   0.01  -0.01
   3   6     0.03  -0.01   0.02    -0.05   0.14   0.08    -0.02   0.31   0.29
   4   6    -0.08  -0.11   0.33    -0.18  -0.26  -0.01    -0.03  -0.09  -0.12
   5   6    -0.01  -0.10   0.23    -0.32  -0.14   0.05     0.05   0.00  -0.32
   6   6     0.13   0.01  -0.15    -0.15   0.14  -0.04     0.00   0.02   0.01
   7   6     0.16   0.07  -0.28     0.09   0.17  -0.12     0.01  -0.08   0.26
   8  16     0.01  -0.06   0.14     0.12  -0.38   0.09     0.30  -0.16  -0.19
   9   1     0.12   0.07  -0.30     0.07   0.08  -0.00     0.02   0.04  -0.04
  10   1    -0.26   0.01   0.12     0.20   0.10  -0.14    -0.08  -0.04   0.06
  11   1     0.26  -0.03   0.21    -0.01  -0.05  -0.16     0.04  -0.03   0.08
  12   1    -0.18   0.11  -0.08     0.07   0.00   0.06    -0.22   0.05   0.02
  13   1    -0.09  -0.03  -0.19     0.02   0.08   0.13    -0.10  -0.05  -0.11
  14   1     0.04  -0.01  -0.00     0.08   0.04   0.06     0.07   0.12   0.30
  15   1     0.08  -0.01  -0.01    -0.09   0.11   0.02    -0.03   0.31  -0.01
  16   1    -0.01  -0.04   0.10    -0.16  -0.05   0.02     0.01   0.02  -0.14
  17   1     0.06   0.02  -0.09    -0.06   0.09  -0.02    -0.02   0.03   0.03
  18   1     0.07   0.04  -0.15     0.07   0.10  -0.05    -0.01  -0.03   0.15
                      7                      8                      9
                        a                      a                      a 
 Frequencies --   390.0006               473.7410               539.0875
 Red. masses --     9.5894                12.2201                12.3683
 Frc consts  --     0.0000                 0.0000                 0.0000
 IR Inten    --    13.1165                 1.0601                 1.1355
 Raman Activ --     0.0000                 0.0000                 0.0000
 Depolar     --     0.0000                 0.0000                 0.0000
 Atom AN      X      Y      Z        X      Y      Z        X      Y      Z
   1   7    -0.14  -0.13   0.22    -0.01  -0.04   0.01     0.01   0.04  -0.03
   2   6     0.23  -0.19  -0.20     0.25  -0.09  -0.12     0.00   0.02   0.01
   3   6     0.19   0.30  -0.14     0.28   0.01   0.02     0.23  -0.18   0.21
   4   6     0.09   0.05  -0.27    -0.05  -0.25   0.44     0.17  -0.10   0.15
   5   6    -0.14  -0.06   0.15    -0.08   0.09   0.07     0.14   0.28  -0.25
   6   6    -0.09   0.02   0.11     0.03   0.26  -0.26    -0.17   0.01   0.42
   7   6     0.07   0.16  -0.24    -0.27   0.03   0.29    -0.05   0.28  -0.27
   8  16    -0.11  -0.14   0.16    -0.14  -0.04  -0.28    -0.22  -0.22  -0.13
   9   1    -0.10  -0.12   0.10    -0.05  -0.07   0.03     0.01   0.02  -0.03
  10   1    -0.12  -0.09   0.12    -0.04  -0.03   0.03    -0.00   0.03  -0.01
  11   1    -0.03   0.14   0.10    -0.01   0.09   0.02     0.01  -0.02  -0.00
  12   1     0.09  -0.05  -0.07     0.10  -0.04  -0.03    -0.10   0.04   0.03
  13   1     0.07  -0.04  -0.03     0.09   0.00  -0.02     0.03  -0.01  -0.12
  14   1     0.08   0.13   0.20     0.13   0.01   0.08     0.07  -0.06   0.02
  15   1     0.06   0.30  -0.14     0.13   0.07  -0.04     0.07  -0.08   0.07
  16   1    -0.08  -0.03   0.08    -0.07   0.03  -0.02     0.02   0.11  -0.18
  17   1    -0.04   0.00   0.06     0.05   0.09  -0.17    -0.07  -0.07   0.22
  18   1     0.05   0.07  -0.11    -0.08   0.01   0.13     0.01   0.10  -0.07
                     10                     11                     12
                        a                      a                      a 
 Frequencies --   579.0951               698.3410               732.8288
 Red. masses --    12.1441                16.4212                14.4929
 Frc consts  --     0.0000                 0.0000                 0.0000
 IR Inten    --     0.5433                 7.4921                 3.2332
 Raman Activ --     0.0000                 0.0000                 0.0000
 Depolar     --     0.0000                 0.0000                 0.0000
 Atom AN      X      Y      Z        X      Y      Z        X      Y      Z
   1   7    -0.01   0.04  -0.02     0.04   0.07  -0.02     0.00   0.01  -0.00
   2   6    -0.10   0.04   0.08     0.11  -0.01   0.01    -0.04   0.01  -0.00
   3   6     0.13  -0.14   0.21     0.26  -0.27   0.23    -0.07  -0.07  -0.05
   4   6     0.38   0.18  -0.44     0.06  -0.26  -0.21    -0.06  -0.26  -0.13
   5   6    -0.05   0.02   0.34    -0.20  -0.15  -0.13     0.13  -0.44  -0.12
   6   6     0.12   0.21  -0.16    -0.24  -0.08  -0.14     0.47   0.18   0.26
   7   6    -0.15   0.09   0.15    -0.02  -0.14  -0.06     0.14   0.25   0.16
   8  16    -0.15  -0.26  -0.11     0.03   0.51   0.22    -0.36   0.18  -0.07
   9   1     0.03   0.03  -0.05    -0.01  -0.03  -0.03     0.02   0.02  -0.00
  10   1     0.01   0.04  -0.02    -0.01   0.07  -0.02     0.01  -0.00  -0.00
  11   1     0.01  -0.06  -0.01     0.01   0.01  -0.01     0.01  -0.02  -0.00
  12   1    -0.18   0.07   0.05    -0.14   0.08   0.03     0.03  -0.01  -0.01
  13   1    -0.00  -0.02  -0.15     0.07  -0.03  -0.21    -0.01   0.02   0.03
  14   1    -0.02  -0.05  -0.02     0.16  -0.07   0.15     0.04  -0.01   0.04
  15   1    -0.01  -0.10   0.10     0.00   0.03   0.04    -0.06   0.05  -0.04
  16   1    -0.10  -0.04   0.21    -0.12  -0.05  -0.04    -0.08  -0.12  -0.08
  17   1     0.07   0.04  -0.09    -0.10   0.02  -0.02     0.09   0.14   0.09
  18   1    -0.02   0.04   0.04    -0.02  -0.05  -0.02    -0.02   0.00  -0.03
                     13                     14                     15
                        a                      a                      a 
 Frequencies --   759.5488               816.5713               847.3400
 Red. masses --     2.5452                 4.8829                11.2966
 Frc consts  --     0.0000                 0.0000                 0.0000
 IR Inten    --    17.2307                37.7936                23.8596
 Raman Activ --     0.0000                 0.0000                 0.0000
 Depolar     --     0.0000                 0.0000                 0.0000
 Atom AN      X      Y      Z        X      Y      Z        X      Y      Z
   1   7    -0.00  -0.00  -0.02    -0.10   0.12  -0.01     0.06  -0.06   0.04
   2   6     0.00   0.00  -0.00    -0.20  -0.04  -0.09     0.04   0.03   0.06
   3   6     0.01   0.00   0.01    -0.02  -0.27  -0.04    -0.06   0.09  -0.08
   4   6     0.01   0.02  -0.03     0.11  -0.07  -0.06    -0.06  -0.09  -0.02
   5   6    -0.01   0.01   0.01     0.09   0.09   0.04     0.12  -0.13  -0.02
   6   6    -0.05  -0.04   0.08     0.01   0.02  -0.00     0.15   0.06   0.08
   7   6    -0.11  -0.13   0.31    -0.29   0.04  -0.08    -0.63   0.19  -0.16
   8  16     0.01   0.01  -0.02     0.13   0.05   0.07     0.33  -0.00   0.14
   9   1    -0.00   0.00   0.00     0.20   0.40   0.02    -0.10  -0.20  -0.03
  10   1    -0.00  -0.01   0.00     0.11  -0.21   0.04    -0.04   0.16  -0.05
  11   1     0.00   0.01   0.00     0.07  -0.14   0.05    -0.05   0.02  -0.04
  12   1    -0.00  -0.01   0.00     0.26  -0.21  -0.05    -0.09   0.13   0.00
  13   1     0.00   0.00  -0.00     0.02   0.23   0.26    -0.04  -0.12  -0.08
  14   1     0.00   0.00   0.00     0.08  -0.03   0.27    -0.01   0.01  -0.07
  15   1    -0.00   0.00   0.00     0.03   0.19  -0.15    -0.06  -0.01   0.01
  16   1     0.08   0.07  -0.19    -0.01  -0.00   0.07    -0.01  -0.04  -0.00
  17   1     0.07   0.08  -0.20     0.05  -0.10  -0.00     0.12  -0.13  -0.01
  18   1     0.31   0.31  -0.75    -0.11  -0.02  -0.07    -0.30  -0.07  -0.18
                     16                     17                     18
                        a                      a                      a 
 Frequencies --   855.9336               872.4532               891.9554
 Red. masses --     3.3021                 5.8816                 3.5070
 Frc consts  --     0.0000                 0.0000                 0.0000
 IR Inten    --    11.3007                 7.9493                 0.8764
 Raman Activ --     0.0000                 0.0000                 0.0000
 Depolar     --     0.0000                 0.0000                 0.0000
 Atom AN      X      Y      Z        X      Y      Z        X      Y      Z
   1   7    -0.03  -0.01   0.02    -0.14  -0.29  -0.07    -0.01  -0.02   0.00
   2   6    -0.03   0.01   0.03    -0.05   0.22   0.04    -0.01   0.01   0.01
   3   6     0.03  -0.00  -0.02     0.27   0.33   0.06     0.01   0.01  -0.01
   4   6     0.04   0.01  -0.08     0.03  -0.09  -0.04     0.00  -0.00  -0.01
   5   6    -0.13  -0.13   0.33    -0.05  -0.13  -0.09    -0.09  -0.09   0.22
   6   6    -0.05  -0.05   0.14    -0.04   0.01  -0.00     0.14   0.14  -0.35
   7   6     0.02   0.06  -0.14    -0.08   0.02  -0.03    -0.04  -0.02   0.06
   8  16     0.03   0.02  -0.03     0.05   0.07   0.05     0.00  -0.00   0.01
   9   1     0.02   0.04  -0.01     0.09   0.17   0.09     0.00   0.01  -0.00
  10   1     0.02  -0.00  -0.01    -0.02  -0.40   0.12     0.00  -0.01   0.00
  11   1     0.00  -0.06  -0.00     0.06  -0.02   0.09     0.00  -0.01   0.00
  12   1    -0.00   0.00   0.01    -0.04  -0.18   0.12     0.01  -0.00   0.00
  13   1     0.00   0.02   0.00     0.03   0.16   0.07    -0.00   0.01   0.01
  14   1     0.00   0.00   0.01     0.08   0.01  -0.40     0.00   0.00  -0.01
  15   1     0.00   0.01  -0.01     0.02  -0.25   0.19     0.01  -0.00   0.00
  16   1     0.26   0.25  -0.65    -0.10  -0.05  -0.02     0.15   0.14  -0.37
  17   1     0.15   0.13  -0.36    -0.02   0.02  -0.00    -0.26  -0.27   0.66
  18   1    -0.11  -0.10   0.21    -0.05  -0.02  -0.03     0.03   0.04  -0.10
                     19                     20                     21
                        a                      a                      a 
 Frequencies --   897.9181              1002.1470              1028.3661
 Red. masses --     6.5389                 7.1904                 7.0319
 Frc consts  --     0.0000                 0.0000                 0.0000
 IR Inten    --    41.2587                20.3537                20.0788
 Raman Activ --     0.0000                 0.0000                 0.0000
 Depolar     --     0.0000                 0.0000                 0.0000
 Atom AN      X      Y      Z        X      Y      Z        X      Y      Z
   1   7    -0.17  -0.27   0.26    -0.17   0.30   0.12    -0.18  -0.24  -0.02
   2   6    -0.12   0.23   0.17     0.14  -0.46   0.01     0.46   0.30  -0.07
   3   6     0.22   0.05  -0.34     0.14   0.18   0.03    -0.22  -0.15   0.05
   4   6     0.07  -0.09   0.04    -0.14   0.17   0.07    -0.17   0.11   0.04
   5   6     0.01   0.08  -0.00    -0.06  -0.19  -0.12     0.01   0.02   0.01
   6   6    -0.05  -0.00  -0.03     0.01   0.00   0.00     0.06  -0.00   0.02
   7   6     0.06  -0.05   0.02    -0.04   0.05   0.01     0.00   0.03   0.01
   8  16    -0.06   0.04  -0.01     0.05  -0.05   0.00     0.02  -0.06  -0.02
   9   1     0.04  -0.03  -0.14     0.15   0.31  -0.10     0.09   0.15  -0.02
  10   1     0.11   0.26  -0.15     0.14   0.14  -0.08     0.04  -0.19   0.02
  11   1    -0.08  -0.54  -0.07     0.00  -0.29  -0.01     0.03  -0.19   0.03
  12   1     0.01   0.18  -0.02    -0.06  -0.05   0.01    -0.11   0.13   0.04
  13   1    -0.06   0.01   0.04     0.14  -0.03  -0.17     0.24   0.13  -0.36
  14   1     0.17   0.02  -0.03    -0.26   0.05  -0.07    -0.06  -0.01   0.15
  15   1     0.08   0.09  -0.13     0.19  -0.13   0.04    -0.26   0.11   0.01
  16   1    -0.03  -0.00   0.05    -0.03  -0.06  -0.02     0.14   0.01   0.06
  17   1    -0.02  -0.00   0.00    -0.06   0.09   0.03     0.01   0.00   0.01
  18   1     0.06   0.03  -0.00    -0.06  -0.04  -0.06    -0.03  -0.02  -0.02
                     22                     23                     24
                        a                      a                      a 
 Frequencies --  1058.5724              1075.8722              1096.2109
 Red. masses --     6.7407                 3.5403                 3.1957
 Frc consts  --     0.0000                 0.0000                 0.0000
 IR Inten    --     9.7303                 0.7022                 3.2859
 Raman Activ --     0.0000                 0.0000                 0.0000
 Depolar     --     0.0000                 0.0000                 0.0000
 Atom AN      X      Y      Z        X      Y      Z        X      Y      Z
   1   7    -0.05   0.18  -0.10    -0.00  -0.01   0.02    -0.03  -0.02   0.06
   2   6     0.02  -0.28   0.35     0.01   0.01  -0.05     0.09   0.02  -0.17
   3   6     0.01   0.07  -0.39    -0.01   0.01   0.06    -0.14   0.10   0.14
   4   6     0.01  -0.21   0.02    -0.03   0.00  -0.02     0.06  -0.11  -0.02
   5   6     0.07   0.18   0.10     0.13  -0.26  -0.05    -0.10   0.18   0.03
   6   6     0.03  -0.00   0.00    -0.12  -0.12  -0.09     0.15  -0.05   0.05
   7   6     0.02  -0.04  -0.01    -0.21   0.20  -0.01     0.07  -0.09  -0.01
   8  16    -0.04   0.05   0.00     0.01   0.06   0.03    -0.01   0.05   0.02
   9   1     0.05   0.16   0.03     0.00  -0.00  -0.01     0.01   0.01  -0.03
  10   1    -0.01  -0.12   0.05     0.01   0.02  -0.01     0.03   0.05  -0.03
  11   1     0.05   0.09   0.04    -0.00  -0.03  -0.00    -0.01  -0.10  -0.01
  12   1    -0.33  -0.08   0.21     0.04   0.01  -0.03     0.09   0.02  -0.07
  13   1     0.04  -0.12  -0.16     0.01   0.01   0.01     0.03   0.02  -0.01
  14   1     0.19   0.01  -0.07    -0.04   0.00  -0.00    -0.19   0.03  -0.02
  15   1    -0.32   0.11  -0.04     0.04  -0.03   0.01     0.01  -0.04   0.05
  16   1    -0.03   0.05   0.02     0.21  -0.08   0.05    -0.60   0.06  -0.22
  17   1     0.11  -0.20  -0.03     0.08  -0.24  -0.07     0.29  -0.46  -0.07
  18   1     0.09   0.08   0.06     0.41   0.57   0.39     0.08   0.04   0.05
                     25                     26                     27
                        a                      a                      a 
 Frequencies --  1163.5020              1187.4395              1218.8134
 Red. masses --     7.6187                 5.0426                 4.2887
 Frc consts  --     0.0000                 0.0000                 0.0000
 IR Inten    --    23.1086                 5.3441                12.1338
 Raman Activ --     0.0000                 0.0000                 0.0000
 Depolar     --     0.0000                 0.0000                 0.0000
 Atom AN      X      Y      Z        X      Y      Z        X      Y      Z
   1   7     0.04  -0.06  -0.14    -0.05  -0.01  -0.08    -0.10  -0.02  -0.16
   2   6    -0.07   0.14   0.33     0.08   0.06   0.09     0.09   0.05   0.18
   3   6     0.20  -0.22  -0.20    -0.14   0.05  -0.10    -0.00   0.07  -0.02
   4   6    -0.15   0.42   0.10     0.28  -0.14   0.09     0.10  -0.32  -0.08
   5   6    -0.15  -0.15  -0.12     0.26  -0.03   0.09    -0.04   0.04  -0.01
   6   6     0.10  -0.08   0.01    -0.03   0.02  -0.00    -0.14   0.05  -0.03
   7   6    -0.02   0.04   0.01    -0.19  -0.22  -0.17     0.14   0.13   0.11
   8  16     0.04  -0.06  -0.01     0.02   0.04   0.03    -0.04   0.04   0.00
   9   1    -0.02  -0.02   0.07     0.01   0.06   0.03     0.03   0.12   0.05
  10   1    -0.06  -0.15   0.06    -0.01  -0.09   0.02    -0.02  -0.17   0.03
  11   1     0.03   0.15   0.03     0.03   0.02   0.02     0.05   0.04   0.04
  12   1    -0.12   0.08   0.11    -0.01   0.14  -0.02     0.08   0.34  -0.11
  13   1     0.00   0.02  -0.04    -0.05  -0.10  -0.00    -0.13  -0.25   0.06
  14   1    -0.07  -0.00   0.20    -0.34   0.05   0.08    -0.39   0.06   0.08
  15   1     0.36   0.06  -0.20     0.01   0.04  -0.05     0.28  -0.06  -0.06
  16   1    -0.27  -0.04  -0.12    -0.31  -0.00  -0.13     0.29  -0.00   0.13
  17   1     0.06  -0.09  -0.01    -0.26   0.47   0.08     0.10  -0.24  -0.05
  18   1     0.02   0.04   0.02     0.14   0.15   0.11    -0.11  -0.12  -0.10
                     28                     29                     30
                        a                      a                      a 
 Frequencies --  1241.4058              1313.2791              1331.8101
 Red. masses --     2.9611                 4.5924                 4.1623
 Frc consts  --     0.0000                 0.0000                 0.0000
 IR Inten    --    22.9437                 8.6036                 7.9186
 Raman Activ --     0.0000                 0.0000                 0.0000
 Depolar     --     0.0000                 0.0000                 0.0000
 Atom AN      X      Y      Z        X      Y      Z        X      Y      Z
   1   7    -0.18   0.03  -0.11     0.06  -0.14  -0.05     0.05  -0.08  -0.06
   2   6     0.14  -0.10   0.03    -0.16  -0.19   0.22    -0.25  -0.13   0.09
   3   6    -0.04  -0.02   0.15    -0.19   0.11   0.06     0.36  -0.01  -0.07
   4   6    -0.07   0.22   0.00    -0.12  -0.13  -0.13     0.02   0.10   0.11
   5   6    -0.03  -0.02  -0.02     0.02   0.13   0.06    -0.00  -0.07  -0.03
   6   6     0.08  -0.04   0.02     0.09   0.10   0.08    -0.05  -0.06  -0.05
   7   6    -0.04  -0.03  -0.03    -0.05  -0.18  -0.10     0.03   0.10   0.05
   8  16     0.02  -0.03  -0.00     0.00   0.01   0.01     0.00  -0.01  -0.00
   9   1     0.06   0.18   0.00     0.04   0.05   0.05     0.02   0.02   0.04
  10   1     0.03  -0.13   0.00    -0.05   0.07  -0.03    -0.05   0.03  -0.01
  11   1     0.04  -0.02   0.04    -0.01   0.15   0.01    -0.01   0.10  -0.00
  12   1     0.21   0.38  -0.23     0.20   0.26  -0.16     0.29   0.29  -0.24
  13   1    -0.22  -0.42   0.13     0.30   0.37  -0.30     0.10   0.19  -0.08
  14   1     0.49  -0.07  -0.12     0.21  -0.01  -0.11    -0.26   0.04   0.06
  15   1    -0.08  -0.01   0.07     0.33  -0.05  -0.07    -0.55   0.05   0.17
  16   1    -0.11   0.00  -0.05     0.05   0.04   0.04    -0.05  -0.02  -0.02
  17   1    -0.01   0.06   0.02     0.02   0.06   0.03    -0.01  -0.03  -0.01
  18   1     0.03   0.04   0.03     0.08   0.04   0.04    -0.04  -0.02  -0.03
                     31                     32                     33
                        a                      a                      a 
 Frequencies --  1339.1598              1386.7807              1413.4324
 Red. masses --     9.5580                 2.9407                11.0624
 Frc consts  --     0.0000                 0.0000                 0.0000
 IR Inten    --    10.9692               192.4080                 4.3460
 Raman Activ --     0.0000                 0.0000                 0.0000
 Depolar     --     0.0000                 0.0000                 0.0000
 Atom AN      X      Y      Z        X      Y      Z        X      Y      Z
   1   7     0.00  -0.04   0.01     0.07   0.35  -0.11    -0.00  -0.02  -0.00
   2   6     0.00  -0.06   0.05    -0.06  -0.05   0.06    -0.01  -0.01   0.01
   3   6    -0.35   0.06  -0.03    -0.04   0.03  -0.00    -0.05   0.04  -0.01
   4   6     0.38   0.07   0.17     0.02  -0.01   0.00     0.18  -0.13   0.03
   5   6     0.18  -0.21  -0.01     0.00   0.01   0.01    -0.45   0.24  -0.09
   6   6    -0.31  -0.21  -0.21     0.00  -0.03  -0.01     0.42  -0.57  -0.06
   7   6     0.12   0.39   0.20    -0.00   0.02   0.01    -0.11   0.25   0.06
   8  16    -0.02  -0.01  -0.01     0.00  -0.00   0.00     0.01   0.03   0.02
   9   1     0.03   0.02  -0.03    -0.32  -0.40   0.19     0.01   0.02   0.00
  10   1     0.01   0.03  -0.02    -0.05  -0.36   0.18     0.01   0.02  -0.01
  11   1    -0.01   0.07   0.00     0.18  -0.55   0.02     0.01   0.02   0.01
  12   1    -0.00   0.03  -0.01     0.12   0.04  -0.06    -0.01   0.01   0.00
  13   1     0.11   0.12  -0.11     0.07   0.07  -0.12     0.01   0.02   0.01
  14   1     0.21  -0.02  -0.09     0.05   0.00  -0.00    -0.04   0.01  -0.02
  15   1     0.07   0.06  -0.08     0.01  -0.02   0.01     0.01   0.01  -0.01
  16   1    -0.18  -0.06  -0.10    -0.01   0.00  -0.00     0.09   0.07   0.07
  17   1    -0.09  -0.07  -0.07    -0.01   0.01  -0.00    -0.08   0.21   0.05
  18   1    -0.17  -0.09  -0.11    -0.01  -0.00  -0.00    -0.01   0.10   0.04
                     34                     35                     36
                        a                      a                      a 
 Frequencies --  1425.0201              1433.8366              1463.4371
 Red. masses --     1.7051                 1.6496                 2.0400
 Frc consts  --     0.0000                 0.0000                 0.0000
 IR Inten    --    72.3550                83.1599                26.1021
 Raman Activ --     0.0000                 0.0000                 0.0000
 Depolar     --     0.0000                 0.0000                 0.0000
 Atom AN      X      Y      Z        X      Y      Z        X      Y      Z
   1   7     0.02   0.12   0.18     0.21  -0.01   0.00    -0.03  -0.02   0.01
   2   6    -0.03  -0.01   0.07     0.04   0.00  -0.01     0.00  -0.00  -0.03
   3   6     0.01   0.01  -0.00    -0.03   0.02  -0.03    -0.05   0.14  -0.22
   4   6    -0.00  -0.02  -0.00     0.01  -0.00  -0.00    -0.05  -0.02  -0.04
   5   6    -0.01   0.01  -0.00     0.00   0.00   0.00     0.07   0.03   0.04
   6   6     0.02  -0.00   0.01     0.00  -0.02  -0.01    -0.01  -0.06  -0.03
   7   6    -0.01  -0.01  -0.01     0.00   0.02   0.01     0.01   0.05   0.02
   8  16     0.00   0.00  -0.00     0.00   0.00   0.00    -0.00  -0.00  -0.00
   9   1     0.07  -0.18  -0.65     0.13   0.23   0.14    -0.01  -0.03  -0.04
  10   1     0.19  -0.44   0.13    -0.63   0.03   0.28     0.10   0.00  -0.05
  11   1    -0.35   0.14  -0.28    -0.39  -0.20  -0.42     0.05   0.04   0.06
  12   1     0.07   0.05  -0.03    -0.01  -0.00   0.01    -0.04   0.03  -0.00
  13   1     0.02   0.00  -0.06    -0.02  -0.05   0.01     0.01   0.05   0.04
  14   1    -0.01   0.00  -0.01     0.05   0.01   0.09     0.20   0.11   0.61
  15   1     0.01   0.00  -0.00     0.01  -0.09   0.04     0.00  -0.61   0.28
  16   1     0.01   0.00   0.00    -0.01   0.00  -0.00    -0.05   0.01  -0.01
  17   1     0.00   0.01   0.00    -0.01   0.01  -0.00    -0.02   0.02  -0.00
  18   1     0.01   0.01   0.00    -0.00  -0.00  -0.00    -0.01   0.00  -0.00
                     37                     38                     39
                        a                      a                      a 
 Frequencies --  1474.5057              1481.2852              2942.6790
 Red. masses --     3.8794                 8.9959                 1.9426
 Frc consts  --     0.0000                 0.0000                 0.0000
 IR Inten    --    16.5161                 1.3988                 4.3630
 Raman Activ --     0.0000                 0.0000                 0.0000
 Depolar     --     0.0000                 0.0000                 0.0000
 Atom AN      X      Y      Z        X      Y      Z        X      Y      Z
   1   7    -0.02  -0.01   0.01    -0.01  -0.01   0.00     0.00  -0.00  -0.00
   2   6    -0.10   0.18   0.13    -0.06   0.08   0.07    -0.01  -0.01  -0.03
   3   6     0.07  -0.01   0.02    -0.15   0.06  -0.09     0.06   0.27   0.10
   4   6    -0.24  -0.06  -0.12     0.47   0.11   0.24     0.00   0.01   0.00
   5   6     0.20   0.10   0.12    -0.38  -0.18  -0.23     0.00  -0.00  -0.00
   6   6    -0.02  -0.17  -0.07     0.04   0.28   0.12    -0.00   0.00   0.00
   7   6     0.02   0.13   0.06    -0.05  -0.22  -0.11     0.00  -0.00  -0.00
   8  16     0.00  -0.01  -0.00    -0.00   0.01   0.00     0.00  -0.00  -0.00
   9   1     0.02   0.05   0.01     0.01   0.03   0.01    -0.00   0.00   0.00
  10   1     0.01   0.06  -0.03     0.01   0.04  -0.02    -0.00  -0.00  -0.00
  11   1     0.01   0.04   0.02     0.01   0.02   0.02    -0.00  -0.00   0.00
  12   1     0.44  -0.40   0.02     0.23  -0.20   0.00     0.05   0.05   0.13
  13   1    -0.09  -0.35  -0.48    -0.03  -0.16  -0.27    -0.00  -0.00  -0.01
  14   1    -0.02   0.00   0.01     0.06   0.02   0.09    -0.05  -0.74   0.14
  15   1     0.05  -0.02  -0.00    -0.07  -0.07   0.04    -0.16  -0.22  -0.50
  16   1    -0.09   0.03  -0.02     0.16  -0.06   0.04    -0.00   0.01   0.00
  17   1    -0.06   0.05  -0.00     0.10  -0.09   0.01    -0.00  -0.00  -0.00
  18   1    -0.03   0.01  -0.01     0.05  -0.01   0.02    -0.00  -0.00  -0.00
                     40                     41                     42
                        a                      a                      a 
 Frequencies --  2946.9129              2966.1996              2977.2753
 Red. masses --     1.9164                 1.5264                 1.5981
 Frc consts  --     0.0000                 0.0000                 0.0000
 IR Inten    --     4.5199                 9.2016                 3.1276
 Raman Activ --     0.0000                 0.0000                 0.0000
 Depolar     --     0.0000                 0.0000                 0.0000
 Atom AN      X      Y      Z        X      Y      Z        X      Y      Z
   1   7    -0.00  -0.00  -0.00    -0.00  -0.00  -0.00     0.00   0.00  -0.00
   2   6     0.23  -0.07   0.15    -0.05   0.05   0.01    -0.01   0.13   0.18
   3   6     0.00   0.03  -0.03    -0.04   0.07  -0.19     0.02   0.02   0.07
   4   6    -0.00   0.00  -0.00    -0.01   0.00  -0.00     0.00   0.00   0.00
   5   6     0.00  -0.00  -0.00     0.00  -0.00   0.00    -0.00  -0.00  -0.00
   6   6    -0.00  -0.00   0.00     0.00   0.00   0.00     0.00  -0.00   0.00
   7   6     0.00  -0.00  -0.00     0.00  -0.00   0.00     0.00  -0.00  -0.00
   8  16    -0.00   0.00  -0.00     0.00   0.00  -0.00     0.00  -0.00  -0.00
   9   1     0.02  -0.01   0.00    -0.01   0.00  -0.00    -0.01   0.01  -0.00
  10   1     0.00   0.00   0.01     0.01   0.01   0.01     0.01   0.01   0.02
  11   1    -0.00  -0.00  -0.00     0.00   0.00  -0.00    -0.00   0.00   0.00
  12   1    -0.12  -0.16  -0.37    -0.05  -0.04  -0.12    -0.29  -0.29  -0.74
  13   1    -0.70   0.41  -0.18     0.23  -0.13   0.07     0.33  -0.18   0.12
  14   1    -0.01  -0.17   0.02    -0.05  -0.57   0.07     0.00   0.04   0.00
  15   1     0.03   0.05   0.10     0.21   0.32   0.62    -0.08  -0.12  -0.23
  16   1    -0.00   0.00   0.00    -0.00   0.00   0.00    -0.00   0.00   0.00
  17   1     0.00  -0.00  -0.00    -0.00  -0.00  -0.00    -0.00  -0.00  -0.00
  18   1    -0.00   0.00  -0.00    -0.00   0.00  -0.00    -0.00   0.00  -0.00
                     43                     44                     45
                        a                      a                      a 
 Frequencies --  3062.1908              3080.7667              3119.4622
 Red. masses --     1.8327                 1.8885                 1.8851
 Frc consts  --     0.0000                 0.0000                 0.0000
 IR Inten    --     3.4254                 7.5664                 0.5625
 Raman Activ --     0.0000                 0.0000                 0.0000
 Depolar     --     0.0000                 0.0000                 0.0000
 Atom AN      X      Y      Z        X      Y      Z        X      Y      Z
   1   7    -0.00   0.00  -0.00     0.00  -0.00   0.00    -0.00   0.00  -0.00
   2   6    -0.00   0.00   0.00    -0.00  -0.00  -0.00    -0.00  -0.00  -0.00
   3   6    -0.00   0.00  -0.00    -0.00  -0.00  -0.00     0.00  -0.00   0.00
   4   6    -0.00   0.00   0.00     0.01  -0.00   0.00    -0.00   0.00   0.00
   5   6    -0.01   0.06   0.02     0.03  -0.25  -0.09    -0.00   0.01   0.00
   6   6    -0.21  -0.09  -0.12    -0.07  -0.03  -0.04     0.03   0.02   0.02
   7   6     0.01  -0.01   0.00     0.01  -0.01   0.00     0.20  -0.20   0.00
   8  16     0.00  -0.00   0.00     0.00   0.00   0.00    -0.00  -0.00  -0.00
   9   1     0.00  -0.00   0.00    -0.00   0.00  -0.00     0.00  -0.00   0.00
  10   1    -0.00   0.00  -0.00    -0.00  -0.00  -0.00    -0.00   0.00   0.00
  11   1    -0.00   0.00   0.00    -0.00  -0.00   0.00     0.00   0.00  -0.00
  12   1    -0.00  -0.00  -0.00     0.00   0.00   0.00     0.00   0.00   0.00
  13   1     0.00  -0.00   0.00     0.00  -0.00   0.00    -0.00   0.00   0.00
  14   1     0.00  -0.00   0.00    -0.00   0.01  -0.00     0.00   0.00   0.00
  15   1     0.00   0.00   0.00     0.00   0.00   0.00    -0.00  -0.00  -0.00
  16   1     0.03  -0.25  -0.09    -0.10   0.87   0.30     0.00  -0.03  -0.01
  17   1     0.74   0.33   0.43     0.21   0.09   0.12    -0.07  -0.03  -0.04
  18   1    -0.06   0.06  -0.00    -0.04   0.04  -0.00    -0.70   0.65  -0.01
                     46                     47                     48
                        a                      a                      a 
 Frequencies --  3196.2330              3204.0209              3225.2863
 Red. masses --     2.0439                 1.9815                 1.3369
 Frc consts  --     0.0000                 0.0000                 0.0000
 IR Inten    --   118.1970                74.3856                26.0065
 Raman Activ --     0.0000                 0.0000                 0.0000
 Depolar     --     0.0000                 0.0000                 0.0000
 Atom AN      X      Y      Z        X      Y      Z        X      Y      Z
   1   7     0.27  -0.07  -0.04     0.03  -0.02   0.27    -0.06  -0.13  -0.06
   2   6     0.01  -0.01   0.00     0.00  -0.00   0.01    -0.00  -0.01  -0.00
   3   6    -0.00  -0.00  -0.00     0.00   0.00  -0.00     0.00  -0.00   0.00
   4   6    -0.00   0.00   0.00    -0.00   0.00   0.00    -0.00   0.00  -0.00
   5   6    -0.00   0.00   0.00    -0.00   0.00  -0.00    -0.00  -0.00  -0.00
   6   6     0.00   0.00   0.00     0.00  -0.00  -0.00    -0.00  -0.00   0.00
   7   6     0.00  -0.00   0.00     0.00  -0.00   0.00     0.00  -0.00   0.00
   8  16    -0.00  -0.00   0.00    -0.00  -0.00   0.00    -0.00  -0.00   0.00
   9   1    -0.63   0.39  -0.19    -0.35   0.21  -0.07    -0.36   0.20  -0.10
  10   1    -0.01  -0.04  -0.09    -0.22  -0.21  -0.48     0.29   0.27   0.67
  11   1    -0.37  -0.09   0.43     0.45   0.09  -0.46     0.28   0.05  -0.32
  12   1    -0.00   0.00   0.00    -0.01  -0.00  -0.01     0.01   0.01   0.02
  13   1    -0.02   0.01  -0.01    -0.01   0.00  -0.00    -0.01   0.01  -0.00
  14   1     0.00   0.00  -0.00    -0.00  -0.00   0.00     0.00   0.01  -0.00
  15   1     0.00   0.00   0.00     0.00  -0.00  -0.00    -0.00  -0.00  -0.00
  16   1     0.00  -0.00  -0.00     0.00  -0.00  -0.00    -0.00   0.00   0.00
  17   1    -0.00   0.00  -0.00     0.00   0.00  -0.00     0.00   0.00   0.00
  18   1    -0.00   0.00  -0.00    -0.00   0.00  -0.00     0.00   0.00   0.00
