 Entering Gaussian System
 *********************************************
 Gaussian 98:
 frequency output generated by the xtb code
 *********************************************
                         Standard orientation:
 --------------------------------------------------------------------
  Center     Atomic     Atomic              Coordinates (Angstroms)
  Number     Number      Type              X           Y           Z
 --------------------------------------------------------------------
    1          7             0       -2.507140    0.953791   -1.461453
    2          6             0       -2.450661    1.933852   -0.337105
    3          6             0       -1.518260    1.487089    0.785203
    4          6             0       -0.057122    1.375071    0.350888
    5          6             0        0.871250    0.954258    1.491575
    6          6             0        2.343739    0.862700    1.081870
    7          6             0        2.630079   -0.250324    0.072891
    8          6             0        4.114657   -0.376782   -0.272714
    9          6             0        4.392638   -1.487625   -1.274673
   10         17             0       -3.005842   -2.195974   -0.015486
   11          1             0       -2.721404    0.010252   -1.103551
   12          1             0       -1.604852    0.894745   -1.952956
   13          1             0       -3.227252    1.201073   -2.158691
   14          1             0       -3.463029    2.088748    0.057548
   15          1             0       -2.132937    2.911650   -0.717408
   16          1             0       -1.854983    0.519112    1.174596
   17          1             0       -1.590673    2.178411    1.634082
   18          1             0        0.279092    2.332659   -0.064215
   19          1             0        0.025632    0.660179   -0.474701
   20          1             0        0.541967   -0.012340    1.891098
   21          1             0        0.756347    1.661010    2.323605
   22          1             0        2.969991    0.707258    1.969829
   23          1             0        2.669942    1.824037    0.667608
   24          1             0        2.057347   -0.080552   -0.846187
   25          1             0        2.261366   -1.205841    0.465294
   26          1             0        4.688550   -0.545863    0.647785
   27          1             0        4.479511    0.583045   -0.661077
   28          1             0        4.068804   -2.456643   -0.890060
   29          1             0        5.455117   -1.568441   -1.514846
   30          1             0        3.856836   -1.318624   -2.210641
 --------------------------------------------------------------------
     1 basis functions        1 primitive gaussians
     1 alpha electrons        1 beta electrons

 Harmonic frequencies (cm**-1), IR intensities (km*mol⁻¹),
 Raman scattering activities (A**4/amu), Raman depolarization ratios,
 reduced masses (AMU), force constants (mDyne/A) and normal coordinates:
                      1                      2                      3
                        a                      a                      a 
 Frequencies --  -138.0565                30.8333                64.5331
 Red. masses --    21.0984                23.9145                15.5291
 Frc consts  --     0.0000                 0.0000                 0.0000
 IR Inten    --   133.0132                12.1956                 7.8595
 Raman Activ --     0.0000                 0.0000                 0.0000
 Depolar     --     0.0000                 0.0000                 0.0000
 Atom AN      X      Y      Z        X      Y      Z        X      Y      Z
   1   7    -0.13  -0.54   0.25    -0.03  -0.13   0.04     0.10  -0.16   0.10
   2   6    -0.04  -0.23  -0.01     0.11  -0.04  -0.04     0.01  -0.13   0.09
   3   6     0.01   0.00   0.04     0.09  -0.04  -0.02     0.10   0.02   0.08
   4   6    -0.00  -0.02   0.02     0.08  -0.12  -0.02     0.13   0.38   0.10
   5   6     0.01  -0.00   0.01     0.09  -0.06  -0.01     0.17   0.33   0.05
   6   6     0.01  -0.01   0.01     0.10   0.02   0.02     0.14   0.21  -0.03
   7   6     0.00  -0.00   0.01     0.18   0.07  -0.01    -0.02   0.10   0.04
   8   6     0.00  -0.00  -0.00     0.20   0.16   0.01    -0.05  -0.10  -0.01
   9   6    -0.00   0.00  -0.01     0.28   0.20  -0.01    -0.25  -0.18   0.01
  10  17     0.11   0.60  -0.23    -0.75  -0.04   0.03    -0.22  -0.31  -0.29
  11   1     0.01  -0.15   0.14    -0.14  -0.00   0.02    -0.00  -0.04   0.01
  12   1    -0.06  -0.15   0.03     0.01  -0.15   0.07     0.04  -0.05   0.05
  13   1    -0.07  -0.21   0.08     0.06   0.02  -0.03     0.05  -0.03   0.00
  14   1    -0.01  -0.04   0.01     0.04   0.03  -0.01     0.00  -0.07   0.03
  15   1    -0.02  -0.09  -0.07     0.06  -0.03  -0.04    -0.04  -0.03   0.02
  16   1     0.01   0.01   0.05     0.01  -0.00   0.01     0.09  -0.02   0.01
  17   1     0.00   0.04  -0.02     0.04  -0.00  -0.02    -0.02  -0.01   0.03
  18   1     0.00  -0.01  -0.00     0.03  -0.05  -0.03    -0.01   0.15   0.08
  19   1    -0.01  -0.01   0.01     0.02  -0.05   0.01     0.09   0.16  -0.01
  20   1     0.00  -0.00   0.01     0.04  -0.02   0.00     0.04   0.10   0.02
  21   1     0.00   0.00   0.00     0.01  -0.02  -0.00     0.08   0.10   0.02
  22   1     0.00  -0.00   0.00     0.03   0.01   0.01     0.05   0.07  -0.02
  23   1     0.00  -0.00   0.00     0.02   0.01   0.02     0.05   0.05  -0.04
  24   1    -0.00  -0.00   0.00     0.06   0.02  -0.01    -0.01   0.03   0.01
  25   1     0.00  -0.00   0.00     0.06   0.01  -0.02    -0.03   0.05   0.04
  26   1     0.00  -0.00  -0.00     0.05   0.05   0.01    -0.01  -0.04  -0.01
  27   1    -0.00  -0.00  -0.00     0.04   0.05   0.01     0.02  -0.05  -0.02
  28   1     0.00  -0.00  -0.00     0.09   0.05  -0.01    -0.10  -0.03   0.02
  29   1    -0.00   0.00  -0.00     0.08   0.08   0.00    -0.08  -0.09  -0.01
  30   1    -0.00   0.00  -0.00     0.08   0.06  -0.00    -0.08  -0.04   0.01
                      4                      5                      6
                        a                      a                      a 
 Frequencies --    71.3142                94.7595                95.5439
 Red. masses --     9.9220                 8.4572                 7.7308
 Frc consts  --     0.0000                 0.0000                 0.0000
 IR Inten    --     2.3688                 5.0527                 1.7582
 Raman Activ --     0.0000                 0.0000                 0.0000
 Depolar     --     0.0000                 0.0000                 0.0000
 Atom AN      X      Y      Z        X      Y      Z        X      Y      Z
   1   7     0.19  -0.21  -0.03     0.19   0.03  -0.21    -0.05  -0.04  -0.06
   2   6     0.21   0.09  -0.28     0.05  -0.15  -0.03    -0.08  -0.06  -0.03
   3   6     0.06   0.27  -0.08    -0.04  -0.31  -0.02    -0.03  -0.09  -0.09
   4   6     0.09   0.07   0.08     0.01  -0.04   0.09     0.07   0.54   0.05
   5   6    -0.07  -0.07   0.15     0.03   0.04   0.10    -0.09  -0.19  -0.10
   6   6    -0.05  -0.17   0.26     0.02   0.05   0.04    -0.05  -0.20   0.03
   7   6    -0.11  -0.03   0.09     0.02  -0.18   0.30     0.02  -0.09  -0.08
   8   6    -0.13   0.02  -0.03    -0.08   0.20  -0.24     0.05  -0.00   0.00
   9   6    -0.23   0.24  -0.30    -0.14   0.03  -0.07     0.20   0.02   0.02
  10  17     0.03  -0.15   0.11    -0.04   0.22   0.06    -0.02   0.08   0.18
  11   1     0.00  -0.02   0.06    -0.02   0.01  -0.10     0.00  -0.01  -0.01
  12   1     0.06  -0.13   0.02     0.08  -0.02   0.01    -0.01   0.00  -0.02
  13   1     0.08  -0.08  -0.04     0.11   0.07  -0.10    -0.02  -0.02  -0.01
  14   1     0.06   0.09  -0.11     0.00  -0.07  -0.03    -0.02  -0.05   0.00
  15   1     0.11  -0.01  -0.14     0.02  -0.02   0.05    -0.05  -0.01   0.00
  16   1    -0.01   0.11   0.03     0.00  -0.13  -0.08     0.07  -0.09  -0.12
  17   1     0.01   0.13  -0.07    -0.06  -0.15   0.03    -0.10  -0.11   0.04
  18   1     0.07   0.01   0.03    -0.04   0.02   0.05    -0.01   0.27   0.25
  19   1     0.02   0.02   0.02     0.05   0.01   0.01     0.11   0.35  -0.15
  20   1    -0.05  -0.02   0.02     0.02   0.01   0.05    -0.08  -0.10  -0.18
  21   1    -0.02  -0.03   0.05     0.01   0.02   0.02    -0.02  -0.18   0.07
  22   1    -0.04  -0.11   0.08     0.03   0.09   0.01    -0.04  -0.10   0.02
  23   1     0.02  -0.04   0.12    -0.03  -0.01  -0.07     0.01  -0.05   0.05
  24   1    -0.04   0.03   0.04    -0.11  -0.19   0.13     0.02  -0.01  -0.03
  25   1    -0.03  -0.02  -0.01     0.14  -0.05   0.21     0.01  -0.04  -0.06
  26   1    -0.02  -0.06  -0.03     0.10   0.18  -0.12    -0.00   0.01   0.01
  27   1    -0.04   0.03   0.04    -0.16   0.06  -0.18     0.01   0.01   0.01
  28   1    -0.07   0.05  -0.15     0.08   0.01   0.09     0.07  -0.00  -0.00
  29   1    -0.07   0.07  -0.11    -0.06   0.08  -0.13     0.06   0.03   0.02
  30   1    -0.08   0.14  -0.07    -0.15  -0.10   0.03     0.07  -0.00  -0.01
                      7                      8                      9
                        a                      a                      a 
 Frequencies --   108.1601               123.8559               165.7832
 Red. masses --     9.8198                 7.9256                 8.8858
 Frc consts  --     0.0000                 0.0000                 0.0000
 IR Inten    --     7.9677                 2.4002                15.3878
 Raman Activ --     0.0000                 0.0000                 0.0000
 Depolar     --     0.0000                 0.0000                 0.0000
 Atom AN      X      Y      Z        X      Y      Z        X      Y      Z
   1   7     0.22  -0.00  -0.20    -0.20   0.06  -0.04    -0.49   0.06  -0.05
   2   6     0.05  -0.18  -0.02    -0.10  -0.03   0.04     0.09   0.07  -0.07
   3   6    -0.05  -0.37  -0.02     0.03  -0.09  -0.09     0.13  -0.17  -0.19
   4   6    -0.01  -0.12   0.06     0.03   0.04  -0.14     0.18  -0.05  -0.09
   5   6     0.03   0.01   0.07     0.04   0.18  -0.10     0.04  -0.06   0.03
   6   6     0.02   0.10   0.04     0.05   0.04  -0.03     0.13   0.02   0.29
   7   6    -0.05   0.31  -0.21     0.09  -0.27   0.32     0.13   0.21   0.09
   8   6    -0.01  -0.12   0.14     0.08  -0.25   0.29     0.08   0.09  -0.05
   9   6    -0.17   0.05  -0.09     0.01   0.25  -0.28    -0.26  -0.09   0.05
  10  17    -0.02   0.23   0.19     0.00   0.03   0.03     0.05  -0.04  -0.01
  11   1     0.01   0.00  -0.09     0.00   0.00  -0.02    -0.05   0.01   0.03
  12   1     0.09  -0.01   0.00    -0.08   0.06  -0.06    -0.21   0.03  -0.16
  13   1     0.11   0.04  -0.09    -0.10   0.00   0.03    -0.24  -0.00   0.10
  14   1    -0.00  -0.08  -0.03    -0.02  -0.03   0.05     0.06   0.11   0.03
  15   1     0.02  -0.03   0.05    -0.06   0.00   0.02     0.08  -0.01  -0.05
  16   1    -0.00  -0.14  -0.08     0.03  -0.04  -0.05     0.04  -0.07  -0.11
  17   1    -0.06  -0.16   0.04     0.01  -0.05  -0.00     0.03  -0.10  -0.01
  18   1    -0.04  -0.01   0.03    -0.02   0.02  -0.05     0.05  -0.00   0.01
  19   1     0.04  -0.02   0.01     0.02   0.00  -0.03     0.08   0.01  -0.04
  20   1     0.03  -0.00   0.03     0.00   0.07   0.02     0.01  -0.03  -0.02
  21   1    -0.00   0.01   0.01     0.02   0.09  -0.06    -0.04  -0.03   0.01
  22   1     0.01  -0.03  -0.00     0.01   0.09   0.01    -0.01  -0.06   0.10
  23   1     0.01   0.05   0.07     0.02  -0.03  -0.10     0.07   0.03   0.16
  24   1     0.08   0.22  -0.09     0.01  -0.16   0.08     0.03   0.12   0.04
  25   1    -0.14   0.09  -0.17     0.04  -0.05   0.17     0.02   0.05  -0.02
  26   1    -0.09  -0.16   0.07     0.02  -0.21   0.06     0.06   0.04  -0.03
  27   1     0.13  -0.04   0.14     0.04  -0.02   0.22     0.03   0.00  -0.06
  28   1    -0.17   0.02  -0.12    -0.06   0.03  -0.24    -0.07   0.00   0.08
  29   1    -0.04  -0.08   0.04     0.01   0.05  -0.06    -0.09  -0.06  -0.06
  30   1     0.03   0.14  -0.05     0.04   0.24  -0.07    -0.14  -0.05   0.05
                     10                     11                     12
                        a                      a                      a 
 Frequencies --   204.1370               222.7445               240.9848
 Red. masses --     6.3621                 7.5642                 4.4475
 Frc consts  --     0.0000                 0.0000                 0.0000
 IR Inten    --     3.5003                 0.8277                 1.8169
 Raman Activ --     0.0000                 0.0000                 0.0000
 Depolar     --     0.0000                 0.0000                 0.0000
 Atom AN      X      Y      Z        X      Y      Z        X      Y      Z
   1   7    -0.25  -0.02   0.10    -0.15   0.02  -0.05     0.02  -0.02  -0.13
   2   6     0.23   0.21  -0.14     0.07  -0.02  -0.01     0.15   0.04  -0.14
   3   6    -0.13  -0.13   0.03     0.06  -0.13  -0.05    -0.09  -0.02   0.06
   4   6    -0.07   0.03   0.20     0.09   0.01   0.03    -0.02  -0.02   0.29
   5   6     0.03  -0.03   0.08     0.10   0.39   0.17     0.07  -0.06   0.19
   6   6    -0.04   0.14  -0.22     0.03  -0.25   0.08    -0.00   0.11  -0.15
   7   6    -0.04  -0.05  -0.02    -0.29  -0.12  -0.17    -0.02  -0.03  -0.02
   8   6    -0.03  -0.08   0.05    -0.24  -0.00  -0.05    -0.02   0.02  -0.06
   9   6     0.04  -0.03   0.01     0.27   0.06   0.03     0.08   0.00  -0.01
  10  17     0.17  -0.03  -0.05     0.01  -0.00  -0.00    -0.13  -0.03   0.01
  11   1    -0.35   0.07   0.06    -0.03   0.00  -0.01     0.38  -0.07   0.04
  12   1    -0.02  -0.30   0.16    -0.06  -0.00  -0.06    -0.14   0.27  -0.33
  13   1     0.09   0.14  -0.09    -0.07   0.02   0.02    -0.29  -0.22   0.19
  14   1     0.08   0.27  -0.09     0.03   0.03   0.01     0.04   0.07  -0.07
  15   1     0.26  -0.02  -0.09     0.05  -0.02  -0.00     0.10  -0.01  -0.05
  16   1    -0.07  -0.07  -0.09     0.03  -0.06  -0.05    -0.06  -0.00  -0.00
  17   1    -0.08  -0.10   0.06    -0.01  -0.07   0.01    -0.07  -0.00   0.01
  18   1    -0.05   0.04   0.11    -0.01  -0.01  -0.05    -0.00   0.01   0.11
  19   1     0.02   0.05   0.02     0.06  -0.05   0.06     0.00   0.02   0.06
  20   1     0.05  -0.02   0.01    -0.04   0.20   0.20     0.06  -0.03   0.05
  21   1     0.03  -0.03   0.04     0.12   0.25  -0.06     0.05  -0.04   0.07
  22   1     0.06   0.13  -0.09    -0.01  -0.20   0.02     0.07   0.11  -0.08
  23   1    -0.09   0.03  -0.15     0.13  -0.09   0.08    -0.08   0.03  -0.12
  24   1    -0.01  -0.07  -0.02    -0.06   0.05  -0.04    -0.03  -0.06  -0.00
  25   1    -0.01   0.01   0.05    -0.11  -0.05  -0.11     0.02   0.00   0.04
  26   1    -0.02  -0.03   0.02    -0.10   0.04   0.01    -0.01   0.02  -0.02
  27   1     0.00  -0.02   0.03    -0.10   0.02  -0.00    -0.02   0.01  -0.03
  28   1    -0.03  -0.01  -0.03     0.19  -0.02   0.01    -0.11   0.02  -0.06
  29   1     0.02  -0.03   0.05     0.10   0.15   0.04     0.05  -0.09   0.14
  30   1     0.06   0.02  -0.02     0.08  -0.06  -0.01     0.17   0.06  -0.07
                     13                     14                     15
                        a                      a                      a 
 Frequencies --   257.0788               284.5629               331.5863
 Red. masses --     2.4683                 9.4107                 7.9824
 Frc consts  --     0.0000                 0.0000                 0.0000
 IR Inten    --     0.1843                 3.8669                 8.1818
 Raman Activ --     0.0000                 0.0000                 0.0000
 Depolar     --     0.0000                 0.0000                 0.0000
 Atom AN      X      Y      Z        X      Y      Z        X      Y      Z
   1   7     0.02  -0.01  -0.04    -0.16   0.01  -0.23     0.24  -0.04   0.29
   2   6     0.03   0.03  -0.06    -0.25  -0.06  -0.13     0.09   0.24  -0.00
   3   6    -0.08   0.01   0.04    -0.29   0.17   0.06    -0.24  -0.20   0.03
   4   6    -0.06   0.00   0.11    -0.18   0.04   0.27    -0.26   0.04  -0.15
   5   6     0.02  -0.03   0.04     0.05   0.13   0.19    -0.14   0.22  -0.20
   6   6     0.00   0.09  -0.09     0.12  -0.09   0.16    -0.03  -0.10   0.11
   7   6     0.03   0.06  -0.07     0.27   0.03   0.01     0.17   0.00   0.03
   8   6     0.07  -0.17   0.17     0.28  -0.10  -0.15     0.17   0.01  -0.06
   9   6     0.01   0.02  -0.07     0.11  -0.17  -0.16     0.00  -0.07  -0.05
  10  17    -0.03  -0.01   0.00     0.04   0.03   0.01    -0.04  -0.04  -0.01
  11   1     0.10  -0.02   0.01    -0.13   0.01  -0.10     0.19  -0.01   0.17
  12   1    -0.03   0.06  -0.08    -0.01  -0.05   0.01     0.04   0.05   0.03
  13   1    -0.07  -0.06   0.04     0.02   0.07  -0.11     0.00  -0.16   0.09
  14   1     0.01   0.03  -0.04    -0.08  -0.05  -0.05     0.01   0.19  -0.09
  15   1     0.04  -0.00  -0.02    -0.10  -0.00  -0.03     0.16   0.02  -0.01
  16   1    -0.04   0.01   0.00    -0.10   0.07   0.07    -0.09  -0.11  -0.13
  17   1    -0.04   0.01   0.01    -0.12   0.11  -0.04    -0.06  -0.17   0.10
  18   1    -0.02   0.01   0.04    -0.05  -0.01   0.03    -0.14   0.03  -0.05
  19   1    -0.01   0.01   0.02    -0.06  -0.02   0.10    -0.05   0.02  -0.04
  20   1     0.03  -0.02   0.00     0.00   0.07   0.12    -0.08   0.10   0.01
  21   1     0.01  -0.03   0.03     0.08   0.08   0.03    -0.02   0.12  -0.10
  22   1     0.03   0.05  -0.04    -0.00  -0.07   0.06    -0.11  -0.10   0.09
  23   1    -0.03   0.03  -0.05     0.08  -0.02   0.10     0.09  -0.03   0.10
  24   1     0.07   0.06  -0.05     0.07   0.04   0.01     0.05   0.01   0.01
  25   1    -0.06   0.03  -0.05     0.08  -0.01  -0.03     0.06  -0.02  -0.02
  26   1    -0.02  -0.13   0.06     0.11  -0.04  -0.06     0.07   0.01  -0.03
  27   1     0.08  -0.04   0.12     0.09  -0.04  -0.06     0.05  -0.01  -0.04
  28   1     0.46  -0.09   0.12    -0.02  -0.03  -0.05    -0.03  -0.00  -0.00
  29   1    -0.06   0.34  -0.42     0.03  -0.10  -0.04    -0.01  -0.06  -0.03
  30   1    -0.40  -0.19   0.18     0.05  -0.02  -0.05    -0.01  -0.01  -0.01
                     16                     17                     18
                        a                      a                      a 
 Frequencies --   405.2346               467.0207               495.0446
 Red. masses --     8.6282                 8.0232                 9.0449
 Frc consts  --     0.0000                 0.0000                 0.0000
 IR Inten    --     0.5441                 8.6052                 0.9493
 Raman Activ --     0.0000                 0.0000                 0.0000
 Depolar     --     0.0000                 0.0000                 0.0000
 Atom AN      X      Y      Z        X      Y      Z        X      Y      Z
   1   7     0.04   0.00   0.07     0.07   0.01   0.23     0.02  -0.01   0.03
   2   6    -0.04   0.05   0.01    -0.34   0.26  -0.07    -0.20   0.13  -0.10
   3   6     0.02  -0.02  -0.08     0.00  -0.01  -0.44    -0.23   0.01  -0.03
   4   6     0.02  -0.04  -0.08     0.20  -0.09   0.07    -0.08  -0.06   0.04
   5   6    -0.10  -0.05   0.03     0.02  -0.04   0.32     0.42  -0.12  -0.23
   6   6     0.01   0.33   0.26    -0.06  -0.03  -0.08     0.50   0.00   0.03
   7   6    -0.12   0.22   0.22     0.03  -0.03  -0.07    -0.12  -0.03   0.05
   8   6    -0.20  -0.26  -0.20     0.07   0.03   0.00    -0.23   0.02   0.06
   9   6     0.34  -0.21  -0.23    -0.03  -0.00   0.01    -0.05   0.11   0.10
  10  17    -0.01  -0.01  -0.00    -0.01  -0.02  -0.01    -0.00  -0.01  -0.00
  11   1     0.02   0.00   0.04     0.07   0.02   0.15     0.03   0.01   0.05
  12   1     0.02   0.01   0.04     0.08   0.03   0.17     0.03   0.01   0.06
  13   1     0.02  -0.03   0.00     0.07  -0.15  -0.04     0.03  -0.08  -0.04
  14   1    -0.01  -0.00   0.01    -0.08  -0.05   0.06    -0.07   0.03  -0.05
  15   1    -0.03   0.02   0.00    -0.24   0.12  -0.03    -0.06   0.04  -0.03
  16   1     0.00  -0.01  -0.04    -0.02  -0.05  -0.26    -0.10  -0.00  -0.05
  17   1     0.02  -0.03  -0.00    -0.01  -0.13  -0.02    -0.08  -0.03   0.01
  18   1     0.02  -0.01  -0.01     0.12  -0.04   0.04    -0.05  -0.01   0.01
  19   1     0.01  -0.01  -0.02     0.15  -0.04   0.04    -0.06   0.00  -0.01
  20   1     0.02  -0.06  -0.07     0.00   0.01   0.15     0.20  -0.09  -0.15
  21   1    -0.14  -0.08   0.05     0.05   0.04   0.05     0.07  -0.12   0.00
  22   1    -0.01   0.11   0.08     0.07   0.06  -0.07     0.09  -0.10   0.03
  23   1    -0.03   0.11   0.08    -0.10  -0.00  -0.08     0.25  -0.02   0.05
  24   1    -0.08   0.09   0.10     0.03  -0.02  -0.04    -0.07   0.03   0.05
  25   1    -0.08   0.10   0.10     0.02  -0.02  -0.03    -0.06   0.01   0.04
  26   1    -0.04  -0.07  -0.07     0.02   0.00   0.00    -0.07   0.03   0.03
  27   1    -0.04  -0.08  -0.06     0.03   0.01   0.00    -0.09   0.02   0.03
  28   1     0.18  -0.11  -0.12    -0.02   0.01   0.02     0.00   0.02   0.02
  29   1     0.13   0.08   0.05    -0.01  -0.02  -0.02    -0.01   0.06   0.06
  30   1     0.18  -0.11  -0.12    -0.02   0.00   0.01     0.00   0.02   0.02
                     19                     20                     21
                        a                      a                      a 
 Frequencies --   760.3570               772.5676               815.3752
 Red. masses --     2.1723                 2.0262                 3.0248
 Frc consts  --     0.0000                 0.0000                 0.0000
 IR Inten    --    20.3161                10.8424                25.6163
 Raman Activ --     0.0000                 0.0000                 0.0000
 Depolar     --     0.0000                 0.0000                 0.0000
 Atom AN      X      Y      Z        X      Y      Z        X      Y      Z
   1   7     0.01  -0.04  -0.03     0.01  -0.04  -0.03    -0.08   0.03   0.06
   2   6     0.07   0.02   0.00     0.04   0.02   0.01    -0.18  -0.10   0.04
   3   6     0.06   0.10   0.03     0.01   0.09   0.06    -0.03  -0.15  -0.09
   4   6     0.01   0.15   0.11    -0.01   0.14   0.01     0.10   0.04  -0.01
   5   6    -0.03   0.12   0.03    -0.00   0.05  -0.01    -0.02   0.16   0.13
   6   6    -0.07   0.06  -0.07     0.02  -0.05   0.05    -0.05   0.09  -0.06
   7   6    -0.03   0.03  -0.11     0.02  -0.13   0.11    -0.04  -0.06  -0.07
   8   6     0.03   0.04  -0.04     0.03  -0.08   0.10     0.07  -0.05   0.08
   9   6     0.01  -0.01  -0.01     0.00  -0.01   0.01     0.02  -0.02   0.01
  10  17    -0.00  -0.00   0.00    -0.00  -0.00   0.00    -0.00   0.01   0.00
  11   1    -0.04   0.01   0.01    -0.03   0.00   0.00     0.11  -0.08  -0.15
  12   1    -0.03  -0.06  -0.06    -0.03  -0.05  -0.06     0.10   0.26   0.20
  13   1    -0.02   0.02   0.03    -0.02   0.02   0.03     0.08  -0.03  -0.10
  14   1     0.02  -0.10   0.03     0.00  -0.06   0.00    -0.02   0.32  -0.05
  15   1    -0.09   0.04  -0.00    -0.05   0.02  -0.00     0.27  -0.15  -0.05
  16   1     0.10  -0.10  -0.22     0.07  -0.08  -0.17     0.02   0.05   0.20
  17   1    -0.15  -0.17   0.15    -0.12  -0.13   0.13     0.07   0.14  -0.16
  18   1     0.07  -0.14  -0.32     0.04  -0.08  -0.24    -0.04  -0.00  -0.09
  19   1    -0.13  -0.25   0.27    -0.12  -0.16   0.16     0.17  -0.08   0.09
  20   1     0.00  -0.08  -0.25    -0.03  -0.03  -0.14     0.04  -0.08  -0.21
  21   1    -0.04  -0.19   0.19    -0.02  -0.10   0.09    -0.08  -0.17   0.20
  22   1    -0.09  -0.20  -0.01     0.06   0.20   0.01    -0.05  -0.14  -0.02
  23   1     0.12   0.04   0.16    -0.07  -0.07  -0.19     0.12   0.03   0.09
  24   1    -0.12  -0.25  -0.00     0.21   0.31  -0.04     0.06  -0.10  -0.08
  25   1     0.17   0.02   0.18    -0.26  -0.05  -0.27    -0.04   0.01   0.03
  26   1    -0.10  -0.12   0.04     0.21   0.26  -0.05     0.09   0.16   0.01
  27   1     0.14   0.01   0.11    -0.25  -0.02  -0.22    -0.09  -0.03  -0.13
  28   1    -0.00   0.02   0.05    -0.01  -0.05  -0.12    -0.01  -0.04  -0.10
  29   1    -0.00  -0.03  -0.01    -0.01   0.02  -0.04    -0.01  -0.00  -0.07
  30   1    -0.01  -0.05  -0.01    -0.01   0.14   0.04    -0.03   0.13   0.05
                     22                     23                     24
                        a                      a                      a 
 Frequencies --   819.1752               853.3426               900.2198
 Red. masses --     2.9351                 3.8264                 6.7141
 Frc consts  --     0.0000                 0.0000                 0.0000
 IR Inten    --     6.9509                 7.3806                26.1614
 Raman Activ --     0.0000                 0.0000                 0.0000
 Depolar     --     0.0000                 0.0000                 0.0000
 Atom AN      X      Y      Z        X      Y      Z        X      Y      Z
   1   7     0.05   0.06   0.02     0.06   0.17   0.09    -0.07  -0.06  -0.40
   2   6     0.15   0.03  -0.06     0.12  -0.06  -0.08    -0.20   0.27   0.06
   3   6     0.03  -0.03  -0.07    -0.07  -0.19  -0.16     0.11  -0.12   0.36
   4   6    -0.06  -0.13   0.13    -0.08   0.00   0.00     0.16   0.01  -0.09
   5   6    -0.02   0.03  -0.05    -0.03   0.22   0.09     0.01   0.03   0.03
   6   6    -0.10   0.13  -0.15     0.06   0.00   0.08    -0.06  -0.00   0.02
   7   6    -0.02   0.04  -0.04    -0.03  -0.17   0.00    -0.02   0.01  -0.02
   8   6     0.04  -0.12   0.14     0.04   0.08  -0.07     0.02   0.01   0.01
   9   6     0.01  -0.05   0.04     0.01   0.03  -0.04     0.01  -0.02   0.00
  10  17     0.00  -0.00  -0.00     0.00  -0.00  -0.01    -0.00  -0.00  -0.01
  11   1    -0.07   0.11   0.19    -0.04   0.15   0.26     0.04   0.13   0.32
  12   1    -0.07  -0.19  -0.12    -0.05  -0.18  -0.08     0.03  -0.20   0.00
  13   1    -0.06  -0.01   0.07    -0.06  -0.03   0.07    -0.01  -0.40  -0.25
  14   1     0.03  -0.26   0.06     0.02  -0.18   0.01    -0.10   0.07  -0.10
  15   1    -0.19   0.12   0.08    -0.07   0.08   0.14     0.03   0.09   0.15
  16   1    -0.08   0.04   0.03    -0.10   0.08   0.21     0.07  -0.03   0.15
  17   1     0.05   0.05  -0.06     0.07   0.19  -0.23     0.14  -0.03   0.11
  18   1    -0.05   0.03   0.16    -0.20   0.04  -0.05     0.00   0.01  -0.04
  19   1     0.06   0.08  -0.05     0.14  -0.03   0.05     0.05  -0.01  -0.01
  20   1     0.09  -0.01   0.03     0.02  -0.07  -0.24    -0.03   0.00  -0.03
  21   1    -0.01   0.02  -0.02    -0.12  -0.17   0.20    -0.02  -0.01   0.02
  22   1    -0.16  -0.25   0.01     0.05   0.10   0.01     0.01   0.01  -0.01
  23   1     0.17   0.08   0.21     0.03  -0.07  -0.13    -0.04   0.01   0.00
  24   1     0.06  -0.14  -0.08     0.03   0.10   0.00    -0.01  -0.03  -0.01
  25   1    -0.04   0.08   0.13    -0.04  -0.09  -0.14     0.02  -0.00   0.01
  26   1     0.12   0.27   0.02    -0.02  -0.13  -0.03    -0.01   0.02   0.01
  27   1    -0.15  -0.08  -0.24     0.04   0.07   0.14     0.01  -0.01  -0.01
  28   1     0.01  -0.10  -0.21    -0.03   0.09   0.16    -0.00  -0.01  -0.02
  29   1    -0.01   0.05  -0.08     0.00  -0.09   0.01    -0.00  -0.01  -0.02
  30   1    -0.04   0.22   0.07     0.00  -0.14  -0.04    -0.01   0.02   0.01
                     25                     26                     27
                        a                      a                      a 
 Frequencies --   922.0456               933.3377               962.7367
 Red. masses --     4.6684                 6.0237                 5.8746
 Frc consts  --     0.0000                 0.0000                 0.0000
 IR Inten    --     1.2608                 8.1741                 2.2816
 Raman Activ --     0.0000                 0.0000                 0.0000
 Depolar     --     0.0000                 0.0000                 0.0000
 Atom AN      X      Y      Z        X      Y      Z        X      Y      Z
   1   7     0.06   0.15   0.10    -0.05   0.09   0.02    -0.01   0.25   0.12
   2   6    -0.00  -0.15  -0.06    -0.00  -0.06  -0.06    -0.05  -0.26  -0.16
   3   6    -0.13  -0.07  -0.06     0.04  -0.07  -0.05    -0.05  -0.03  -0.04
   4   6    -0.01   0.17  -0.15     0.06   0.04   0.20     0.10   0.11   0.06
   5   6     0.01  -0.09   0.11     0.06  -0.02  -0.17     0.11  -0.17  -0.14
   6   6     0.14  -0.18   0.09    -0.20  -0.10  -0.20    -0.10   0.01  -0.04
   7   6     0.12   0.18  -0.13     0.31   0.12   0.19    -0.22   0.06   0.13
   8   6    -0.11  -0.06  -0.01    -0.20  -0.08  -0.04     0.11   0.08   0.07
   9   6    -0.08  -0.03   0.15    -0.23   0.09   0.03     0.18  -0.07  -0.14
  10  17     0.00  -0.00  -0.00    -0.00  -0.00  -0.00    -0.00  -0.00  -0.00
  11   1    -0.02   0.09   0.14     0.04   0.05   0.09     0.02   0.13   0.22
  12   1    -0.03  -0.08  -0.04     0.03   0.03   0.09     0.01  -0.03   0.06
  13   1    -0.04   0.00   0.07     0.01  -0.10  -0.07    -0.01  -0.10  -0.01
  14   1    -0.03  -0.01  -0.10     0.02   0.01   0.02    -0.03   0.02  -0.11
  15   1     0.09  -0.02   0.10     0.03  -0.01   0.03     0.13  -0.06   0.10
  16   1     0.06  -0.01   0.10     0.05   0.00   0.06     0.20  -0.05   0.07
  17   1    -0.09   0.08  -0.10    -0.05   0.05  -0.08    -0.23   0.06  -0.09
  18   1    -0.02  -0.01  -0.17     0.02  -0.03  -0.04     0.18  -0.06  -0.07
  19   1    -0.05  -0.06   0.04     0.04  -0.08   0.13    -0.13  -0.05   0.06
  20   1    -0.17   0.04   0.03    -0.03   0.02  -0.02    -0.01   0.03   0.12
  21   1     0.09   0.01   0.01     0.20  -0.01  -0.02     0.15   0.08  -0.13
  22   1     0.21   0.09  -0.07    -0.19  -0.06   0.04    -0.07  -0.03   0.01
  23   1    -0.19   0.00  -0.06     0.01  -0.01   0.04    -0.04   0.04   0.06
  24   1    -0.15  -0.09   0.06     0.20   0.08  -0.02    -0.04   0.04   0.03
  25   1     0.24   0.01   0.08    -0.01   0.04  -0.02    -0.15   0.07   0.07
  26   1    -0.14   0.09   0.09     0.10  -0.13  -0.13     0.04   0.04   0.02
  27   1     0.13  -0.14  -0.16    -0.05  -0.02  -0.00    -0.07   0.08   0.08
  28   1     0.08  -0.15  -0.25     0.12  -0.03   0.03    -0.10   0.08   0.09
  29   1    -0.01   0.21   0.04     0.03   0.28   0.31    -0.01  -0.26  -0.19
  30   1     0.01   0.21   0.06     0.16  -0.19  -0.15    -0.08  -0.02   0.03
                     28                     29                     30
                        a                      a                      a 
 Frequencies --   981.6896              1008.5631              1024.1349
 Red. masses --     4.9698                 6.4885                 4.6855
 Frc consts  --     0.0000                 0.0000                 0.0000
 IR Inten    --     2.8124                17.0569                 4.6208
 Raman Activ --     0.0000                 0.0000                 0.0000
 Depolar     --     0.0000                 0.0000                 0.0000
 Atom AN      X      Y      Z        X      Y      Z        X      Y      Z
   1   7     0.16   0.01   0.03     0.16  -0.15   0.02     0.08   0.11   0.10
   2   6    -0.16  -0.05   0.06    -0.16   0.16   0.08    -0.18  -0.13  -0.14
   3   6    -0.17   0.07   0.06    -0.15  -0.07   0.02    -0.03   0.07   0.12
   4   6     0.10   0.03  -0.27     0.22  -0.01  -0.02     0.24  -0.16   0.09
   5   6    -0.09  -0.07   0.25     0.26   0.02  -0.09    -0.01   0.15  -0.12
   6   6     0.13   0.13  -0.06    -0.26  -0.18  -0.06    -0.16   0.11   0.06
   7   6     0.09  -0.11  -0.06    -0.09   0.21   0.18     0.03  -0.14  -0.04
   8   6    -0.02  -0.11   0.01     0.02   0.11   0.08     0.00   0.06  -0.09
   9   6    -0.09   0.13  -0.01     0.06  -0.12  -0.10    -0.06  -0.04   0.08
  10  17     0.00   0.00  -0.00     0.00   0.00   0.00     0.00  -0.00   0.00
  11   1    -0.09   0.04   0.03    -0.10  -0.06  -0.15    -0.04   0.05   0.05
  12   1    -0.09  -0.17  -0.21    -0.09  -0.11  -0.23    -0.04  -0.05  -0.07
  13   1    -0.07   0.15   0.18    -0.05   0.24   0.20    -0.04   0.09   0.10
  14   1    -0.14   0.06  -0.25    -0.11   0.04  -0.15    -0.11   0.05  -0.21
  15   1     0.13  -0.04   0.09    -0.01   0.02  -0.02     0.07  -0.06  -0.01
  16   1     0.08  -0.03  -0.00    -0.18   0.05   0.05     0.09  -0.04  -0.03
  17   1    -0.03  -0.03   0.05     0.16   0.01   0.00    -0.08  -0.05   0.08
  18   1     0.14  -0.01  -0.02    -0.10   0.03  -0.07     0.22  -0.04   0.16
  19   1     0.02   0.03  -0.09     0.21  -0.05   0.05     0.02   0.04  -0.05
  20   1     0.00  -0.01   0.10    -0.05   0.01  -0.12     0.25  -0.05  -0.03
  21   1    -0.10   0.02   0.02     0.26  -0.07   0.06    -0.21   0.01  -0.04
  22   1     0.10  -0.15  -0.09    -0.07  -0.01  -0.00    -0.22   0.11   0.15
  23   1     0.05   0.09   0.14    -0.12  -0.03  -0.02     0.17  -0.11  -0.12
  24   1     0.19  -0.11  -0.14    -0.03   0.05   0.05    -0.06   0.08   0.05
  25   1    -0.13   0.06   0.06    -0.00   0.05   0.04     0.16  -0.17  -0.20
  26   1     0.17  -0.07  -0.12    -0.01   0.03   0.03    -0.13  -0.01   0.05
  27   1    -0.17   0.05   0.03     0.03   0.02   0.02     0.18  -0.06  -0.04
  28   1     0.01   0.08   0.14    -0.00  -0.03  -0.04     0.04  -0.08  -0.12
  29   1     0.01   0.05   0.13     0.01  -0.07  -0.07    -0.00   0.11   0.03
  30   1     0.06  -0.15  -0.08    -0.01  -0.01  -0.01     0.01   0.09   0.02
                     31                     32                     33
                        a                      a                      a 
 Frequencies --  1058.3159              1083.1286              1104.9293
 Red. masses --     8.0789                 8.0540                 7.7068
 Frc consts  --     0.0000                 0.0000                 0.0000
 IR Inten    --     9.4170                 5.4023                 0.6342
 Raman Activ --     0.0000                 0.0000                 0.0000
 Depolar     --     0.0000                 0.0000                 0.0000
 Atom AN      X      Y      Z        X      Y      Z        X      Y      Z
   1   7    -0.10   0.18   0.22    -0.03   0.05  -0.01    -0.04  -0.05  -0.03
   2   6    -0.00  -0.11  -0.53     0.04  -0.09  -0.01     0.12   0.05   0.11
   3   6     0.07  -0.05   0.42     0.05   0.09  -0.00    -0.23  -0.01   0.01
   4   6     0.14  -0.06  -0.11    -0.21  -0.01  -0.21     0.29  -0.01   0.08
   5   6     0.06   0.05   0.01     0.09   0.03   0.23    -0.05   0.01  -0.17
   6   6    -0.04  -0.02   0.08    -0.03  -0.12  -0.12     0.06   0.12   0.17
   7   6    -0.01   0.01  -0.06    -0.10   0.12   0.15     0.18  -0.13  -0.21
   8   6     0.02  -0.02   0.04     0.05   0.37   0.29    -0.20   0.22   0.27
   9   6    -0.02   0.01  -0.02    -0.11  -0.31  -0.24    -0.02  -0.22  -0.21
  10  17    -0.00  -0.00   0.00    -0.00  -0.00  -0.00    -0.00   0.00   0.00
  11   1     0.03   0.01  -0.01     0.02   0.03   0.05     0.02  -0.03  -0.03
  12   1     0.03   0.15   0.13     0.02   0.01   0.04     0.01   0.02   0.03
  13   1     0.02   0.04   0.00     0.01  -0.05  -0.04     0.01  -0.02  -0.04
  14   1     0.00  -0.14  -0.09     0.02  -0.00   0.02     0.04  -0.05   0.07
  15   1    -0.22   0.00  -0.25     0.02  -0.03  -0.00    -0.02   0.04   0.06
  16   1    -0.13  -0.01  -0.00     0.09  -0.03  -0.06    -0.15   0.03   0.02
  17   1     0.09  -0.09   0.17     0.01  -0.04   0.05    -0.21   0.06  -0.06
  18   1    -0.15   0.05  -0.03    -0.02   0.02   0.02     0.10  -0.03  -0.01
  19   1     0.08   0.01  -0.05    -0.10   0.07  -0.12     0.08  -0.03   0.05
  20   1    -0.11   0.02  -0.08     0.20  -0.07   0.03    -0.12   0.05  -0.04
  21   1    -0.03  -0.02   0.02    -0.07  -0.05   0.09    -0.10   0.06  -0.11
  22   1     0.11  -0.02  -0.06     0.07  -0.12  -0.10     0.04   0.09   0.04
  23   1    -0.14   0.05   0.05     0.12  -0.10  -0.09    -0.11   0.09   0.07
  24   1     0.05  -0.09  -0.07     0.04   0.01  -0.01     0.13  -0.13  -0.13
  25   1    -0.02   0.04   0.06     0.06  -0.03  -0.03     0.11  -0.05  -0.04
  26   1     0.07   0.00  -0.03     0.06   0.07   0.05    -0.10   0.13   0.11
  27   1    -0.05   0.01   0.00     0.07   0.07   0.05    -0.17   0.12   0.12
  28   1     0.01   0.01   0.03     0.12  -0.17  -0.16     0.03  -0.07  -0.06
  29   1     0.00   0.01   0.03     0.02   0.10   0.08     0.01  -0.03  -0.01
  30   1     0.02  -0.04  -0.03     0.12  -0.15  -0.16     0.04  -0.12  -0.09
                     34                     35                     36
                        a                      a                      a 
 Frequencies --  1109.8730              1122.3757              1138.2985
 Red. masses --     8.2699                 7.4510                 8.2369
 Frc consts  --     0.0000                 0.0000                 0.0000
 IR Inten    --     3.4476                 0.3887                 3.4537
 Raman Activ --     0.0000                 0.0000                 0.0000
 Depolar     --     0.0000                 0.0000                 0.0000
 Atom AN      X      Y      Z        X      Y      Z        X      Y      Z
   1   7    -0.07  -0.04  -0.04     0.04   0.02   0.01     0.10  -0.03   0.03
   2   6     0.18   0.01   0.13    -0.08  -0.01  -0.04    -0.20   0.10  -0.06
   3   6    -0.26   0.04  -0.02     0.18  -0.01  -0.07     0.28  -0.13  -0.10
   4   6     0.13   0.02  -0.18    -0.31   0.09  -0.10    -0.13   0.03   0.31
   5   6     0.37  -0.00   0.01     0.34  -0.08   0.11    -0.05  -0.04  -0.23
   6   6    -0.29   0.06   0.22    -0.24   0.18   0.20     0.11   0.09   0.20
   7   6    -0.27  -0.09  -0.07     0.23  -0.19  -0.17    -0.27  -0.12  -0.16
   8   6     0.29  -0.09  -0.09    -0.20  -0.01   0.02     0.28   0.09   0.12
   9   6    -0.12   0.11   0.09     0.05  -0.02  -0.02    -0.17  -0.04  -0.06
  10  17    -0.00  -0.00   0.00     0.00   0.00   0.00     0.00   0.00   0.00
  11   1     0.04  -0.02  -0.01    -0.02   0.01   0.01    -0.05  -0.01  -0.04
  12   1     0.03   0.04   0.06    -0.01  -0.02  -0.03    -0.04  -0.04  -0.10
  13   1     0.02  -0.06  -0.07    -0.01   0.02   0.03    -0.02   0.08   0.08
  14   1     0.07  -0.07   0.11    -0.02   0.05  -0.02    -0.06   0.09  -0.05
  15   1    -0.01   0.04   0.07     0.02  -0.02  -0.04     0.01  -0.00  -0.04
  16   1    -0.12   0.03  -0.02     0.14  -0.02  -0.00     0.16  -0.02   0.07
  17   1    -0.22   0.05  -0.05     0.15  -0.03   0.01     0.13   0.02  -0.06
  18   1     0.02   0.01  -0.05    -0.17   0.04  -0.08    -0.07  -0.01   0.01
  19   1    -0.06   0.04  -0.09    -0.10   0.02  -0.02    -0.10  -0.03   0.11
  20   1     0.18  -0.03  -0.00     0.21  -0.04   0.09    -0.12   0.05  -0.01
  21   1    -0.01  -0.00  -0.01     0.20  -0.03   0.05    -0.01   0.05  -0.11
  22   1     0.01   0.01  -0.01    -0.15   0.09   0.12     0.11   0.06   0.00
  23   1    -0.16   0.04   0.06    -0.16   0.13   0.16    -0.11   0.06   0.04
  24   1    -0.03  -0.10  -0.06     0.08  -0.06  -0.06    -0.06  -0.11  -0.06
  25   1    -0.04  -0.04  -0.02     0.11  -0.09  -0.11    -0.05  -0.01   0.02
  26   1     0.19  -0.08  -0.10    -0.13   0.04   0.06     0.17   0.01  -0.04
  27   1     0.13  -0.08  -0.10    -0.13   0.05   0.06     0.07  -0.00  -0.03
  28   1     0.06  -0.00   0.01    -0.04   0.01   0.01     0.10  -0.07  -0.04
  29   1     0.00   0.14   0.13    -0.01  -0.07  -0.05     0.01   0.15   0.15
  30   1     0.06  -0.01  -0.03    -0.03   0.01   0.02     0.10  -0.10  -0.11
                     37                     38                     39
                        a                      a                      a 
 Frequencies --  1161.8482              1181.7129              1220.3469
 Red. masses --     7.1655                 5.4987                 4.4457
 Frc consts  --     0.0000                 0.0000                 0.0000
 IR Inten    --     4.0657                 2.6796                 2.0831
 Raman Activ --     0.0000                 0.0000                 0.0000
 Depolar     --     0.0000                 0.0000                 0.0000
 Atom AN      X      Y      Z        X      Y      Z        X      Y      Z
   1   7     0.05   0.14  -0.09     0.01  -0.11   0.06    -0.05   0.03   0.01
   2   6    -0.07  -0.30   0.19    -0.04   0.23  -0.10     0.07  -0.06   0.01
   3   6     0.04   0.33  -0.14     0.09  -0.17   0.01    -0.08   0.02   0.00
   4   6    -0.06  -0.26   0.13    -0.02  -0.04   0.06    -0.00   0.10  -0.06
   5   6     0.09   0.22  -0.15     0.08   0.18  -0.03    -0.08  -0.10   0.05
   6   6    -0.05  -0.18   0.14    -0.12  -0.25   0.07     0.06   0.03   0.02
   7   6     0.02   0.14  -0.08     0.11   0.25  -0.06    -0.07   0.09  -0.17
   8   6    -0.04  -0.11   0.06    -0.12  -0.19   0.12     0.09  -0.22   0.27
   9   6     0.03   0.06  -0.03     0.07   0.11  -0.08    -0.06   0.18  -0.22
  10  17    -0.00  -0.00  -0.00     0.00   0.00   0.00    -0.00  -0.00  -0.00
  11   1     0.00   0.12   0.17    -0.03  -0.07  -0.11     0.03  -0.00   0.00
  12   1     0.00  -0.10  -0.01    -0.02   0.05  -0.03     0.01   0.00   0.04
  13   1    -0.04  -0.10  -0.02     0.02   0.07   0.03     0.00  -0.03  -0.03
  14   1     0.01   0.14   0.02    -0.02  -0.03  -0.02    -0.02  -0.06  -0.07
  15   1     0.16  -0.17  -0.04    -0.05   0.11   0.08     0.01  -0.00   0.03
  16   1    -0.06   0.02  -0.24     0.24  -0.06   0.15    -0.12   0.03  -0.03
  17   1     0.04  -0.12   0.12    -0.20   0.10  -0.13     0.19  -0.04   0.06
  18   1    -0.10   0.02   0.15     0.11  -0.03   0.07     0.06  -0.01  -0.04
  19   1     0.11   0.05  -0.05    -0.23   0.06  -0.07     0.08  -0.04   0.05
  20   1    -0.04   0.01  -0.19     0.23  -0.05  -0.06     0.03  -0.01   0.09
  21   1    -0.04  -0.05   0.04    -0.28   0.00  -0.01     0.16  -0.01   0.03
  22   1     0.14   0.04  -0.06     0.12  -0.00  -0.08    -0.20   0.17   0.19
  23   1    -0.19  -0.01  -0.03    -0.07  -0.11  -0.13     0.19  -0.11  -0.14
  24   1     0.02  -0.11  -0.05    -0.01  -0.09  -0.01    -0.21  -0.01   0.07
  25   1     0.03   0.07   0.10     0.13   0.06   0.08     0.17  -0.04  -0.01
  26   1     0.06   0.03  -0.02     0.06   0.07  -0.01     0.01   0.25   0.13
  27   1    -0.09  -0.01  -0.02    -0.14  -0.04  -0.06    -0.01  -0.15  -0.22
  28   1    -0.03   0.06   0.07    -0.05   0.11   0.13     0.01   0.14   0.22
  29   1     0.00  -0.05  -0.01     0.00  -0.11  -0.02     0.02  -0.06   0.11
  30   1    -0.01  -0.04  -0.01    -0.03  -0.08  -0.01     0.04  -0.25  -0.13
                     40                     41                     42
                        a                      a                      a 
 Frequencies --  1233.8458              1263.2211              1274.3286
 Red. masses --     3.0054                 3.3277                 2.9950
 Frc consts  --     0.0000                 0.0000                 0.0000
 IR Inten    --    16.2997                 0.9682                 1.1922
 Raman Activ --     0.0000                 0.0000                 0.0000
 Depolar     --     0.0000                 0.0000                 0.0000
 Atom AN      X      Y      Z        X      Y      Z        X      Y      Z
   1   7    -0.20  -0.10   0.09     0.04  -0.04   0.00    -0.04   0.00   0.02
   2   6     0.16   0.04  -0.08    -0.05   0.08  -0.02    -0.00  -0.04   0.03
   3   6    -0.01   0.16  -0.07     0.08   0.08   0.06     0.09   0.03  -0.07
   4   6    -0.13  -0.11   0.03     0.03  -0.29  -0.09     0.08   0.06   0.13
   5   6    -0.00   0.07  -0.06     0.04   0.07   0.10     0.07  -0.08  -0.04
   6   6     0.03  -0.02   0.05     0.05   0.06  -0.13    -0.08   0.13  -0.09
   7   6    -0.02  -0.02  -0.02     0.02  -0.14   0.04    -0.00  -0.07   0.23
   8   6     0.02   0.04  -0.04     0.08  -0.03   0.03    -0.09  -0.04   0.06
   9   6    -0.01  -0.03   0.03    -0.06   0.06  -0.09     0.04   0.10  -0.09
  10  17    -0.00  -0.00   0.00    -0.00   0.00   0.00    -0.00  -0.00   0.00
  11   1     0.07  -0.12  -0.11    -0.03  -0.01  -0.01     0.02  -0.02  -0.02
  12   1     0.02   0.15   0.12    -0.01   0.01  -0.04     0.00   0.01   0.02
  13   1     0.06   0.03  -0.07     0.01   0.03   0.01     0.01  -0.01  -0.02
  14   1    -0.16  -0.26  -0.43     0.02   0.05   0.07    -0.07  -0.04  -0.16
  15   1     0.15   0.19   0.53    -0.01   0.03   0.01     0.07   0.02   0.13
  16   1     0.15  -0.03  -0.07     0.28  -0.07   0.02    -0.15   0.05  -0.08
  17   1     0.13  -0.05   0.06    -0.45   0.07  -0.06     0.06  -0.02   0.01
  18   1     0.05  -0.01   0.10    -0.21   0.05   0.09    -0.21   0.04  -0.10
  19   1     0.14   0.01  -0.00     0.02   0.08  -0.16    -0.08  -0.01   0.04
  20   1    -0.05   0.01  -0.07    -0.31   0.05  -0.14    -0.02   0.01   0.02
  21   1     0.14  -0.05   0.06     0.18  -0.07   0.12    -0.25   0.10  -0.14
  22   1     0.01   0.04   0.02    -0.10   0.01   0.05     0.24  -0.29  -0.26
  23   1    -0.07   0.03   0.03    -0.06   0.11   0.13    -0.06   0.12   0.15
  24   1     0.04  -0.03  -0.04    -0.09   0.13   0.10     0.05   0.12   0.05
  25   1    -0.07   0.04   0.04    -0.08  -0.01  -0.02     0.18  -0.21  -0.25
  26   1    -0.00  -0.03  -0.01    -0.18   0.16   0.16    -0.09   0.08   0.08
  27   1     0.00   0.03   0.04     0.11  -0.09  -0.11     0.20  -0.18  -0.20
  28   1     0.01  -0.03  -0.04     0.02   0.04   0.08    -0.02   0.08   0.09
  29   1    -0.00   0.02  -0.01     0.01   0.01   0.06     0.00  -0.08  -0.00
  30   1     0.00   0.03   0.01     0.03  -0.10  -0.06    -0.02  -0.09  -0.02
                     43                     44                     45
                        a                      a                      a 
 Frequencies --  1279.5709              1286.6016              1292.5011
 Red. masses --     2.2528                 2.3108                 2.9326
 Frc consts  --     0.0000                 0.0000                 0.0000
 IR Inten    --     0.3727                 0.1034                 2.3639
 Raman Activ --     0.0000                 0.0000                 0.0000
 Depolar     --     0.0000                 0.0000                 0.0000
 Atom AN      X      Y      Z        X      Y      Z        X      Y      Z
   1   7    -0.00   0.01   0.01    -0.01  -0.01   0.01     0.03  -0.02  -0.03
   2   6    -0.01  -0.04  -0.00    -0.01   0.01   0.02     0.01   0.03  -0.07
   3   6    -0.01  -0.11  -0.05     0.08   0.07   0.01    -0.16  -0.03   0.04
   4   6     0.04  -0.00   0.02     0.10  -0.08  -0.00    -0.16  -0.06  -0.07
   5   6     0.06   0.18   0.06    -0.02  -0.09   0.05    -0.08   0.08  -0.11
   6   6    -0.01  -0.00  -0.13     0.01   0.10  -0.05    -0.01   0.14   0.09
   7   6     0.10  -0.09  -0.06    -0.08   0.14  -0.10    -0.12   0.03   0.10
   8   6     0.10  -0.05   0.03    -0.02  -0.07   0.10    -0.13  -0.00   0.07
   9   6    -0.05  -0.03  -0.00     0.04  -0.06   0.09     0.07   0.04   0.00
  10  17     0.00  -0.00   0.00    -0.00  -0.00   0.00     0.00   0.00  -0.00
  11   1    -0.01   0.01   0.02    -0.00  -0.01  -0.01    -0.01   0.02   0.03
  12   1    -0.00   0.02  -0.00    -0.00   0.01  -0.00     0.01   0.01  -0.01
  13   1     0.02  -0.01  -0.02     0.01  -0.00  -0.01    -0.01   0.04   0.03
  14   1    -0.01  -0.02  -0.02    -0.03  -0.00  -0.07     0.09   0.02   0.20
  15   1     0.03  -0.01   0.03     0.02   0.02   0.06    -0.04  -0.00  -0.07
  16   1    -0.25   0.05  -0.01     0.03  -0.00  -0.04     0.20  -0.06   0.10
  17   1     0.23  -0.02  -0.00    -0.19   0.02  -0.02     0.08  -0.02   0.03
  18   1     0.35  -0.08   0.10    -0.31   0.08  -0.06     0.39  -0.09   0.17
  19   1    -0.45   0.10  -0.14     0.03   0.01  -0.02     0.14  -0.01  -0.00
  20   1    -0.14   0.03  -0.15    -0.11   0.01   0.02    -0.08   0.02  -0.08
  21   1     0.04  -0.05   0.10     0.03   0.02  -0.02     0.37  -0.07   0.10
  22   1    -0.01  -0.04  -0.04    -0.06  -0.02   0.02     0.20  -0.11  -0.15
  23   1    -0.15   0.15   0.18     0.12  -0.02  -0.04     0.00   0.05   0.04
  24   1    -0.30   0.22   0.23    -0.24   0.06   0.12     0.10  -0.05  -0.06
  25   1     0.02  -0.03  -0.03     0.38  -0.18  -0.19     0.27  -0.21  -0.23
  26   1     0.03   0.03   0.01     0.38  -0.19  -0.25     0.13  -0.08  -0.10
  27   1    -0.18   0.11   0.11    -0.30   0.15   0.16     0.08  -0.09  -0.10
  28   1     0.03  -0.03  -0.01    -0.00  -0.05  -0.07    -0.03   0.02   0.01
  29   1     0.00   0.05   0.05    -0.00  -0.02  -0.03    -0.00  -0.07  -0.05
  30   1     0.02   0.00  -0.01    -0.02   0.07   0.05    -0.02  -0.01   0.02
                     46                     47                     48
                        a                      a                      a 
 Frequencies --  1304.6353              1327.0741              1356.6998
 Red. masses --     2.4256                 3.5955                 4.1477
 Frc consts  --     0.0000                 0.0000                 0.0000
 IR Inten    --     2.0486                14.7823                 2.9050
 Raman Activ --     0.0000                 0.0000                 0.0000
 Depolar     --     0.0000                 0.0000                 0.0000
 Atom AN      X      Y      Z        X      Y      Z        X      Y      Z
   1   7     0.01   0.00   0.02     0.07  -0.18  -0.05     0.02   0.00   0.02
   2   6    -0.05  -0.02   0.01    -0.18  -0.06  -0.35    -0.07  -0.01  -0.04
   3   6     0.16  -0.06  -0.03    -0.09   0.09   0.03     0.17  -0.02   0.05
   4   6     0.05  -0.05   0.01     0.07   0.02   0.02    -0.01  -0.00  -0.04
   5   6     0.12  -0.04   0.11     0.05  -0.04   0.03    -0.12  -0.03  -0.09
   6   6    -0.05   0.11   0.09    -0.01   0.00  -0.02    -0.20   0.15   0.20
   7   6    -0.05   0.05   0.01     0.01   0.01  -0.01     0.05   0.04   0.03
   8   6    -0.15   0.08   0.00     0.00  -0.00   0.00     0.22  -0.16  -0.17
   9   6     0.07   0.01   0.02    -0.00  -0.00  -0.00    -0.09  -0.03  -0.02
  10  17     0.00  -0.00   0.00     0.00  -0.00  -0.00     0.00  -0.00   0.00
  11   1    -0.02  -0.01  -0.02    -0.07   0.04   0.16    -0.04  -0.01  -0.04
  12   1    -0.01   0.00  -0.02     0.02   0.16  -0.02    -0.01  -0.01  -0.02
  13   1     0.01  -0.02  -0.02     0.01   0.21   0.09    -0.01  -0.04   0.01
  14   1    -0.04   0.00  -0.07     0.21   0.12   0.51    -0.00   0.02   0.02
  15   1     0.05   0.00   0.07     0.22   0.11   0.46     0.05   0.02   0.10
  16   1    -0.24   0.06  -0.07    -0.01   0.01  -0.02    -0.19   0.04  -0.07
  17   1    -0.04   0.02  -0.05     0.15  -0.07   0.10    -0.16   0.04  -0.04
  18   1     0.02  -0.01   0.02    -0.09   0.02  -0.05     0.01   0.01   0.02
  19   1    -0.42   0.10  -0.15    -0.01  -0.00   0.01     0.02  -0.02   0.01
  20   1    -0.38   0.07  -0.10    -0.05   0.01   0.01     0.07  -0.02   0.03
  21   1     0.11  -0.03   0.06    -0.11   0.03  -0.04     0.27  -0.03   0.03
  22   1    -0.08   0.07   0.08    -0.04   0.01   0.02     0.29  -0.17  -0.22
  23   1     0.27  -0.17  -0.20     0.03  -0.02  -0.03     0.23  -0.15  -0.17
  24   1     0.27  -0.21  -0.22    -0.01   0.00   0.01     0.01  -0.01   0.01
  25   1    -0.00   0.01   0.01    -0.01   0.02   0.02     0.00   0.00  -0.02
  26   1     0.05  -0.09  -0.07    -0.00   0.01   0.00    -0.25   0.18   0.19
  27   1     0.16  -0.09  -0.09    -0.01   0.00   0.00    -0.24   0.17   0.19
  28   1    -0.03   0.01  -0.01    -0.00   0.00   0.01     0.02   0.00   0.05
  29   1    -0.00  -0.05  -0.06    -0.00   0.00   0.00     0.01   0.11   0.09
  30   1    -0.02   0.01   0.02     0.00  -0.01  -0.00     0.01   0.05  -0.01
                     49                     50                     51
                        a                      a                      a 
 Frequencies --  1361.4605              1368.5451              1383.1616
 Red. masses --     4.2952                 2.5889                 5.1750
 Frc consts  --     0.0000                 0.0000                 0.0000
 IR Inten    --     8.0384               127.2833                 3.7073
 Raman Activ --     0.0000                 0.0000                 0.0000
 Depolar     --     0.0000                 0.0000                 0.0000
 Atom AN      X      Y      Z        X      Y      Z        X      Y      Z
   1   7     0.04  -0.00   0.03    -0.10  -0.24  -0.17    -0.00   0.00   0.01
   2   6    -0.12  -0.02  -0.07     0.04  -0.00   0.12     0.06  -0.01   0.02
   3   6     0.30  -0.05   0.11     0.09  -0.04  -0.02    -0.22   0.05  -0.09
   4   6     0.00   0.03  -0.09     0.00   0.01  -0.01     0.33  -0.08   0.09
   5   6    -0.28   0.10  -0.05    -0.05   0.02  -0.02    -0.27   0.04  -0.08
   6   6     0.16  -0.11  -0.03     0.02  -0.01   0.01    -0.09   0.07   0.13
   7   6    -0.03  -0.04  -0.02    -0.01   0.01   0.01     0.16  -0.12  -0.12
   8   6    -0.11   0.09   0.09     0.01  -0.01  -0.01    -0.11   0.10   0.09
   9   6     0.04   0.02   0.01    -0.00  -0.00  -0.00     0.03   0.00  -0.00
  10  17     0.00  -0.00   0.00    -0.00  -0.01  -0.01    -0.00   0.00  -0.00
  11   1    -0.08  -0.01  -0.06     0.16   0.15   0.57    -0.03   0.01   0.01
  12   1    -0.02   0.00  -0.04     0.05   0.31   0.06    -0.00   0.05  -0.01
  13   1    -0.02  -0.06   0.01     0.14   0.53   0.02     0.02  -0.02  -0.04
  14   1    -0.00   0.04   0.04    -0.08   0.02  -0.18     0.01  -0.01  -0.00
  15   1     0.10   0.03   0.17    -0.10  -0.03  -0.14    -0.03  -0.00  -0.04
  16   1    -0.39   0.09  -0.13    -0.08   0.03   0.02     0.21  -0.04   0.07
  17   1    -0.28   0.06  -0.06    -0.10   0.01  -0.03     0.17  -0.05   0.05
  18   1     0.03   0.01   0.02    -0.00   0.01   0.01    -0.29   0.06  -0.09
  19   1     0.02  -0.02   0.01    -0.03  -0.01   0.01    -0.29   0.07  -0.10
  20   1     0.37  -0.08   0.08     0.06  -0.01   0.02     0.22  -0.06   0.06
  21   1     0.23  -0.06   0.10     0.06  -0.01   0.02     0.30  -0.04   0.07
  22   1    -0.03   0.08   0.06     0.01   0.01  -0.00     0.16  -0.08  -0.11
  23   1    -0.20   0.12   0.14    -0.02   0.00  -0.00     0.08  -0.06  -0.07
  24   1    -0.00   0.01  -0.00     0.02  -0.02  -0.02    -0.11   0.07   0.09
  25   1    -0.02  -0.00   0.01     0.01  -0.01  -0.01    -0.16   0.10   0.11
  26   1     0.12  -0.09  -0.09    -0.01   0.02   0.01     0.08  -0.07  -0.06
  27   1     0.14  -0.09  -0.10    -0.00   0.00   0.00     0.11  -0.07  -0.09
  28   1    -0.01  -0.00  -0.03    -0.00   0.01   0.01    -0.01  -0.00  -0.02
  29   1    -0.00  -0.06  -0.05    -0.00   0.00   0.00    -0.00  -0.03  -0.03
  30   1    -0.00  -0.03   0.00     0.00  -0.00  -0.00    -0.01  -0.03   0.00
                     52                     53                     54
                        a                      a                      a 
 Frequencies --  1391.0327              1399.3157              1436.6298
 Red. masses --     5.1438                 1.6277                 3.2404
 Frc consts  --     0.0000                 0.0000                 0.0000
 IR Inten    --     0.4088                74.0550                 0.3904
 Raman Activ --     0.0000                 0.0000                 0.0000
 Depolar     --     0.0000                 0.0000                 0.0000
 Atom AN      X      Y      Z        X      Y      Z        X      Y      Z
   1   7    -0.01  -0.01  -0.02    -0.15   0.10   0.03     0.00  -0.00  -0.01
   2   6    -0.03   0.01  -0.00    -0.08   0.00  -0.06     0.00   0.00   0.00
   3   6     0.12  -0.02   0.06     0.01   0.00   0.00    -0.00  -0.00  -0.00
   4   6    -0.21   0.04  -0.06     0.03  -0.01   0.02    -0.00   0.00  -0.00
   5   6     0.18  -0.07  -0.01    -0.04   0.02  -0.00     0.00  -0.00  -0.00
   6   6    -0.22   0.12   0.11     0.02  -0.01  -0.00    -0.02   0.00   0.01
   7   6     0.25  -0.17  -0.20    -0.01   0.01   0.01     0.01   0.01   0.01
   8   6    -0.15   0.13   0.16     0.01  -0.00  -0.01     0.06  -0.05  -0.05
   9   6     0.04   0.00  -0.01    -0.00   0.01   0.00    -0.10   0.32   0.29
  10  17    -0.00  -0.00  -0.00    -0.01  -0.00   0.00     0.00  -0.00  -0.00
  11   1     0.07  -0.01   0.02     0.69  -0.18  -0.06    -0.01   0.00   0.00
  12   1     0.00  -0.04   0.01    -0.06  -0.54  -0.01     0.01   0.01   0.01
  13   1     0.00   0.06   0.02     0.16   0.29  -0.08    -0.01  -0.00   0.01
  14   1    -0.01   0.01  -0.01     0.04   0.03   0.12    -0.00   0.00  -0.00
  15   1     0.01   0.00   0.01     0.05   0.00   0.05    -0.00   0.00  -0.00
  16   1    -0.09   0.02  -0.04    -0.00   0.01   0.02    -0.00  -0.00  -0.00
  17   1    -0.13   0.03  -0.03    -0.01  -0.02   0.02     0.00   0.00  -0.00
  18   1     0.15  -0.03   0.06    -0.02  -0.01  -0.05     0.00   0.00   0.00
  19   1     0.26  -0.07   0.09    -0.04   0.04  -0.04    -0.00  -0.00   0.00
  20   1    -0.16   0.05  -0.01     0.04  -0.01   0.01    -0.01   0.00  -0.00
  21   1    -0.10   0.01  -0.05     0.04  -0.01   0.02     0.00   0.00  -0.00
  22   1     0.13  -0.09  -0.12    -0.00   0.00   0.00     0.02  -0.01  -0.01
  23   1     0.17  -0.10  -0.11    -0.02   0.01   0.01     0.02  -0.01  -0.01
  24   1    -0.27   0.19   0.20     0.02  -0.01  -0.01     0.01   0.01   0.00
  25   1    -0.21   0.15   0.17     0.01  -0.01  -0.01     0.00   0.01   0.01
  26   1     0.17  -0.12  -0.12    -0.01   0.00   0.01    -0.08   0.01   0.05
  27   1     0.13  -0.09  -0.12    -0.01   0.01   0.00    -0.08   0.03   0.01
  28   1    -0.02  -0.01  -0.03     0.01  -0.01  -0.01     0.20  -0.22  -0.42
  29   1     0.00  -0.04  -0.03    -0.00  -0.01   0.00    -0.12  -0.39  -0.30
  30   1    -0.02  -0.03   0.01     0.00  -0.01  -0.00     0.22  -0.41  -0.19
                     55                     56                     57
                        a                      a                      a 
 Frequencies --  1440.9941              1484.9324              1491.1125
 Red. masses --     1.8818                 1.8621                 1.9282
 Frc consts  --     0.0000                 0.0000                 0.0000
 IR Inten    --    88.6656                14.2306                 3.7825
 Raman Activ --     0.0000                 0.0000                 0.0000
 Depolar     --     0.0000                 0.0000                 0.0000
 Atom AN      X      Y      Z        X      Y      Z        X      Y      Z
   1   7    -0.02  -0.01   0.25    -0.00   0.01  -0.01     0.01   0.00   0.03
   2   6    -0.02  -0.01   0.01    -0.11   0.20  -0.01     0.09  -0.13  -0.02
   3   6    -0.02   0.01   0.01     0.06   0.02  -0.14     0.08   0.04  -0.22
   4   6    -0.02   0.01  -0.01     0.00   0.00  -0.01    -0.03   0.01  -0.00
   5   6     0.02  -0.01  -0.00    -0.01  -0.01   0.02     0.00  -0.01   0.03
   6   6    -0.00   0.00  -0.00    -0.00  -0.00   0.00    -0.00  -0.00  -0.00
   7   6    -0.00   0.00   0.00     0.00   0.00  -0.00     0.00   0.00  -0.00
   8   6     0.00  -0.00  -0.00    -0.00   0.00   0.00    -0.00   0.00  -0.00
   9   6    -0.00   0.01   0.01     0.00  -0.00   0.00    -0.00   0.00  -0.00
  10  17     0.00  -0.00   0.00     0.00   0.00  -0.00     0.00   0.00   0.00
  11   1    -0.06   0.02   0.06    -0.02   0.02   0.02    -0.03  -0.02  -0.05
  12   1    -0.31   0.16  -0.56     0.02   0.03   0.05    -0.03  -0.00  -0.05
  13   1     0.47  -0.05  -0.49    -0.04   0.01   0.04     0.03  -0.04  -0.04
  14   1     0.01  -0.05   0.05    -0.04  -0.54   0.11     0.03   0.36  -0.09
  15   1     0.06  -0.05  -0.04     0.47  -0.22  -0.19    -0.32   0.16   0.14
  16   1     0.00  -0.01  -0.02    -0.05   0.17   0.35    -0.09   0.24   0.50
  17   1     0.02   0.01   0.00    -0.14  -0.28   0.21    -0.18  -0.41   0.30
  18   1     0.02  -0.00   0.01    -0.01   0.01   0.00     0.03  -0.02  -0.01
  19   1     0.06  -0.01   0.03     0.00  -0.01   0.00     0.02   0.01  -0.01
  20   1    -0.01   0.00   0.00     0.01  -0.02  -0.04     0.01  -0.03  -0.07
  21   1    -0.03   0.00  -0.01     0.02   0.04  -0.03     0.02   0.06  -0.04
  22   1    -0.00  -0.00   0.00     0.00   0.01  -0.00     0.00   0.01   0.00
  23   1     0.00  -0.00  -0.00     0.01  -0.00   0.00     0.01   0.00   0.01
  24   1    -0.00  -0.00  -0.00    -0.01  -0.01   0.00    -0.00  -0.01   0.00
  25   1    -0.00  -0.00  -0.00    -0.01   0.00  -0.00    -0.01   0.00  -0.01
  26   1    -0.00   0.00   0.00     0.00  -0.00  -0.00     0.00  -0.00  -0.00
  27   1    -0.00   0.00   0.00     0.00  -0.00  -0.00    -0.00   0.00   0.00
  28   1     0.00  -0.01  -0.01    -0.00   0.00   0.00     0.00  -0.00  -0.00
  29   1    -0.00  -0.01  -0.01    -0.00   0.00  -0.01     0.00  -0.00   0.01
  30   1     0.00  -0.01  -0.00     0.00  -0.00  -0.00    -0.00   0.00   0.00
                     58                     59                     60
                        a                      a                      a 
 Frequencies --  1510.0725              1511.7606              1513.1182
 Red. masses --     1.8976                 1.5345                 1.8323
 Frc consts  --     0.0000                 0.0000                 0.0000
 IR Inten    --     0.7846                 2.8923                 2.5206
 Raman Activ --     0.0000                 0.0000                 0.0000
 Depolar     --     0.0000                 0.0000                 0.0000
 Atom AN      X      Y      Z        X      Y      Z        X      Y      Z
   1   7    -0.01   0.01   0.00    -0.00   0.00   0.00    -0.00  -0.00  -0.00
   2   6     0.01  -0.01  -0.00     0.00  -0.00   0.00    -0.00  -0.00   0.00
   3   6    -0.02   0.01  -0.02    -0.00   0.00  -0.00    -0.01  -0.00   0.03
   4   6     0.08   0.04  -0.21     0.01   0.01  -0.03    -0.02   0.00   0.02
   5   6     0.01  -0.01   0.05    -0.00  -0.00   0.01    -0.06  -0.05   0.20
   6   6    -0.00   0.01   0.01    -0.01  -0.00  -0.01    -0.09  -0.09  -0.04
   7   6    -0.10  -0.09  -0.06    -0.01  -0.01  -0.01     0.02   0.02   0.01
   8   6     0.02   0.00  -0.01     0.01  -0.02   0.04     0.01   0.04   0.03
   9   6     0.02   0.02  -0.02     0.01  -0.14   0.16    -0.08  -0.02  -0.02
  10  17    -0.00  -0.00   0.00    -0.00   0.00   0.00    -0.00  -0.00  -0.00
  11   1     0.03  -0.01  -0.01     0.01  -0.01  -0.01     0.01   0.00   0.01
  12   1    -0.00  -0.03  -0.00    -0.00  -0.01  -0.00     0.00   0.00  -0.00
  13   1     0.01   0.00  -0.01     0.00  -0.00  -0.00     0.00   0.01   0.00
  14   1     0.00   0.01   0.01     0.00   0.01  -0.00     0.00   0.00   0.00
  15   1    -0.01   0.01   0.01    -0.01   0.00   0.00     0.00  -0.00  -0.00
  16   1     0.02  -0.00  -0.00     0.00  -0.00  -0.00     0.02  -0.03  -0.07
  17   1     0.02  -0.01   0.00     0.00   0.00  -0.00     0.03   0.06  -0.04
  18   1    -0.10   0.24   0.50    -0.01   0.03   0.07     0.00  -0.01  -0.02
  19   1    -0.21  -0.39   0.32    -0.03  -0.05   0.05     0.02   0.02  -0.01
  20   1     0.02  -0.06  -0.13     0.00  -0.02  -0.04     0.09  -0.22  -0.45
  21   1     0.03   0.10  -0.08     0.01   0.03  -0.02     0.14   0.38  -0.30
  22   1    -0.02  -0.03   0.01     0.01   0.02  -0.01     0.14   0.29  -0.04
  23   1    -0.03  -0.01  -0.03     0.01   0.00   0.02     0.22   0.03   0.24
  24   1     0.17   0.28  -0.06     0.01   0.05   0.00    -0.04  -0.08   0.01
  25   1     0.21   0.03   0.27     0.04  -0.00   0.03    -0.07  -0.00  -0.06
  26   1    -0.02  -0.02   0.01    -0.01  -0.01   0.02    -0.05  -0.12   0.01
  27   1    -0.02   0.00  -0.01    -0.02  -0.02  -0.04    -0.07  -0.02  -0.11
  28   1    -0.00  -0.02  -0.06    -0.37   0.17   0.14     0.22  -0.01   0.15
  29   1     0.02  -0.03   0.10    -0.09   0.43  -0.55    -0.02  -0.13  -0.03
  30   1    -0.10  -0.04   0.05     0.42  -0.05  -0.24     0.12   0.19  -0.04
                     61                     62                     63
                        a                      a                      a 
 Frequencies --  1515.3379              1518.8350              1523.3240
 Red. masses --     1.6780                 1.9227                 1.8605
 Frc consts  --     0.0000                 0.0000                 0.0000
 IR Inten    --     1.1589                 0.2131                 0.5004
 Raman Activ --     0.0000                 0.0000                 0.0000
 Depolar     --     0.0000                 0.0000                 0.0000
 Atom AN      X      Y      Z        X      Y      Z        X      Y      Z
   1   7    -0.00   0.00   0.00    -0.00   0.00  -0.00     0.01  -0.01  -0.00
   2   6     0.00  -0.00  -0.00     0.00  -0.00  -0.00    -0.00   0.00   0.00
   3   6    -0.00   0.01  -0.03    -0.00   0.01  -0.01     0.01  -0.01   0.01
   4   6     0.04   0.01  -0.07     0.02  -0.00  -0.01    -0.05  -0.02   0.13
   5   6     0.05   0.03  -0.14     0.03   0.01  -0.10    -0.01  -0.00  -0.00
   6   6    -0.02  -0.02  -0.02    -0.17  -0.15  -0.09    -0.01   0.01   0.01
   7   6     0.02   0.01   0.01    -0.04   0.00   0.01    -0.16  -0.13  -0.09
   8   6    -0.00   0.04   0.03     0.06   0.02   0.01     0.07   0.05   0.03
   9   6    -0.16  -0.04  -0.03     0.08   0.02   0.01    -0.02  -0.01  -0.01
  10  17    -0.00   0.00   0.00     0.00   0.00  -0.00     0.00  -0.00  -0.00
  11   1     0.01  -0.01  -0.01     0.00  -0.00   0.00    -0.02   0.01   0.01
  12   1    -0.00  -0.01   0.00     0.00  -0.00   0.00     0.00   0.03  -0.00
  13   1     0.00  -0.00  -0.00     0.00   0.00  -0.00    -0.00  -0.00   0.00
  14   1     0.00   0.00   0.00     0.00   0.00   0.00    -0.00  -0.01  -0.00
  15   1    -0.00   0.00   0.00    -0.00   0.00   0.00     0.01  -0.01  -0.01
  16   1    -0.00   0.02   0.05     0.00   0.01   0.02    -0.01   0.00   0.00
  17   1    -0.01  -0.04   0.03    -0.00  -0.02   0.01    -0.01   0.00  -0.00
  18   1    -0.04   0.08   0.14    -0.03   0.02   0.03     0.06  -0.14  -0.29
  19   1    -0.07  -0.11   0.09    -0.02  -0.02   0.02     0.11   0.23  -0.20
  20   1    -0.06   0.15   0.30    -0.04   0.10   0.22     0.01  -0.00   0.01
  21   1    -0.11  -0.25   0.20    -0.08  -0.18   0.13     0.01  -0.00   0.00
  22   1     0.03   0.05  -0.02     0.25   0.49  -0.09    -0.00  -0.03  -0.01
  23   1     0.04   0.01   0.05     0.37   0.05   0.42    -0.01  -0.01  -0.03
  24   1    -0.01  -0.02   0.00     0.03   0.02  -0.02     0.27   0.46  -0.08
  25   1    -0.01  -0.00  -0.03     0.04  -0.01   0.02     0.35   0.04   0.42
  26   1    -0.06  -0.14   0.00    -0.05  -0.08   0.02    -0.12  -0.20   0.03
  27   1    -0.08  -0.03  -0.12    -0.07   0.00  -0.06    -0.16  -0.02  -0.18
  28   1     0.42  -0.01   0.32    -0.20   0.01  -0.15     0.05   0.00   0.05
  29   1    -0.05  -0.22  -0.12     0.03   0.10   0.08    -0.00  -0.02  -0.00
  30   1     0.29   0.39  -0.10    -0.16  -0.18   0.06     0.03   0.06  -0.00
                     64                     65                     66
                        a                      a                      a 
 Frequencies --  1527.8746              2903.8873              2910.5333
 Red. masses --     2.0208                 1.9023                 1.9170
 Frc consts  --     0.0000                 0.0000                 0.0000
 IR Inten    --     0.2169                19.0370                 1.8816
 Raman Activ --     0.0000                 0.0000                 0.0000
 Depolar     --     0.0000                 0.0000                 0.0000
 Atom AN      X      Y      Z        X      Y      Z        X      Y      Z
   1   7    -0.00  -0.00  -0.00    -0.00  -0.00   0.00    -0.00  -0.00   0.00
   2   6    -0.00   0.00  -0.00    -0.00  -0.00   0.00     0.00   0.00  -0.00
   3   6     0.00  -0.00   0.00     0.00   0.00   0.00     0.00   0.02   0.00
   4   6    -0.01  -0.00   0.03    -0.00  -0.02  -0.00    -0.02  -0.10  -0.01
   5   6    -0.00  -0.00  -0.01     0.00   0.01   0.01    -0.00   0.07   0.04
   6   6    -0.06  -0.04  -0.02    -0.01   0.01  -0.02    -0.05   0.13  -0.17
   7   6    -0.06  -0.07  -0.05     0.01  -0.06   0.08     0.02  -0.06   0.07
   8   6    -0.19  -0.15  -0.10    -0.03   0.18  -0.20     0.01  -0.05   0.06
   9   6    -0.06  -0.00   0.01     0.00  -0.01   0.01    -0.00   0.00  -0.00
  10  17    -0.00  -0.00  -0.00     0.00  -0.00   0.00    -0.00   0.00   0.00
  11   1     0.00  -0.00   0.00    -0.00   0.00  -0.00     0.00   0.00  -0.00
  12   1     0.00   0.00   0.00    -0.00  -0.00   0.00    -0.00  -0.00   0.00
  13   1     0.00   0.00   0.00    -0.00  -0.00   0.00    -0.00  -0.00  -0.00
  14   1    -0.00  -0.00   0.00     0.00  -0.00  -0.00    -0.00   0.00   0.00
  15   1     0.00  -0.00  -0.00     0.00   0.00  -0.00    -0.00   0.00  -0.00
  16   1    -0.00  -0.00  -0.00    -0.00  -0.01   0.00    -0.02  -0.04   0.02
  17   1    -0.00   0.00  -0.00     0.00  -0.00  -0.01     0.00  -0.03  -0.04
  18   1     0.01  -0.03  -0.06     0.01   0.04  -0.02     0.09   0.24  -0.11
  19   1     0.02   0.04  -0.04    -0.00   0.03   0.03    -0.02   0.12   0.15
  20   1     0.00   0.00   0.01    -0.01  -0.02   0.01    -0.02  -0.07   0.04
  21   1    -0.00  -0.00   0.00     0.00  -0.02  -0.03     0.03  -0.18  -0.21
  22   1     0.08   0.15  -0.03     0.04  -0.01   0.06     0.33  -0.08   0.47
  23   1     0.11   0.01   0.12    -0.02  -0.05   0.02    -0.15  -0.40   0.16
  24   1     0.09   0.18  -0.03    -0.14   0.04  -0.22    -0.13   0.03  -0.21
  25   1     0.12   0.02   0.17     0.09   0.21  -0.08     0.07   0.17  -0.06
  26   1     0.29   0.51  -0.09     0.32  -0.08   0.50    -0.09   0.02  -0.14
  27   1     0.38   0.04   0.45    -0.22  -0.57   0.22     0.06   0.15  -0.06
  28   1     0.13  -0.01   0.08     0.02   0.05  -0.02    -0.00  -0.01   0.00
  29   1    -0.03  -0.08  -0.06     0.00  -0.00   0.00     0.00   0.00  -0.00
  30   1     0.11   0.10  -0.05    -0.03   0.00  -0.04     0.01  -0.00   0.02
                     67                     68                     69
                        a                      a                      a 
 Frequencies --  2912.5790              2922.9903              2927.6310
 Red. masses --     1.8782                 1.9074                 1.9923
 Frc consts  --     0.0000                 0.0000                 0.0000
 IR Inten    --    11.4192                31.6212                54.6716
 Raman Activ --     0.0000                 0.0000                 0.0000
 Depolar     --     0.0000                 0.0000                 0.0000
 Atom AN      X      Y      Z        X      Y      Z        X      Y      Z
   1   7    -0.00  -0.01   0.00    -0.00  -0.01   0.01    -0.00  -0.02   0.01
   2   6     0.00   0.00  -0.00     0.00   0.00  -0.00     0.01   0.01  -0.01
   3   6     0.00   0.02   0.00     0.01   0.07   0.03    -0.00   0.00   0.01
   4   6    -0.02  -0.13  -0.02    -0.04  -0.21  -0.01     0.01  -0.00  -0.02
   5   6     0.01   0.19   0.08    -0.00  -0.14  -0.09     0.01  -0.00  -0.02
   6   6     0.02  -0.08   0.09     0.03   0.00   0.02     0.04  -0.07   0.10
   7   6    -0.01   0.03  -0.04     0.01   0.03  -0.01     0.04  -0.15   0.19
   8   6    -0.00   0.01  -0.01    -0.00   0.00  -0.01     0.00  -0.06   0.06
   9   6    -0.00  -0.00   0.00     0.00  -0.00   0.00    -0.00   0.01  -0.01
  10  17    -0.00   0.00  -0.00    -0.00   0.00  -0.00    -0.00   0.00  -0.00
  11   1     0.00   0.02  -0.01     0.01   0.04  -0.02     0.02   0.07  -0.03
  12   1    -0.00  -0.00   0.00    -0.00  -0.00   0.00     0.00  -0.00  -0.00
  13   1    -0.00  -0.00  -0.00    -0.00  -0.00  -0.00    -0.00  -0.00  -0.00
  14   1    -0.01   0.00   0.00    -0.01   0.00   0.01    -0.02   0.00   0.01
  15   1    -0.00  -0.01   0.00    -0.00  -0.01   0.00    -0.01  -0.03   0.01
  16   1    -0.02  -0.05   0.02    -0.05  -0.14   0.06     0.00   0.01  -0.00
  17   1     0.01  -0.03  -0.04     0.02  -0.14  -0.18     0.00  -0.02  -0.02
  18   1     0.11   0.32  -0.14     0.19   0.53  -0.23    -0.02  -0.06   0.02
  19   1    -0.03   0.18   0.22    -0.04   0.21   0.26    -0.01   0.06   0.06
  20   1    -0.12  -0.32   0.15     0.06   0.15  -0.08    -0.02  -0.06   0.02
  21   1     0.06  -0.38  -0.45    -0.05   0.35   0.40    -0.01   0.06   0.06
  22   1    -0.15   0.03  -0.21    -0.08   0.03  -0.12    -0.20   0.05  -0.28
  23   1     0.10   0.28  -0.12    -0.01  -0.05   0.03     0.07   0.18  -0.07
  24   1     0.07  -0.02   0.10     0.01  -0.00   0.02    -0.32   0.09  -0.50
  25   1    -0.04  -0.09   0.03    -0.03  -0.09   0.04     0.18   0.46  -0.18
  26   1     0.01  -0.00   0.02     0.01  -0.00   0.02    -0.08   0.02  -0.13
  27   1    -0.01  -0.02   0.01    -0.00  -0.00   0.00     0.08   0.20  -0.08
  28   1     0.00   0.01  -0.00     0.00   0.00  -0.00    -0.01  -0.03   0.01
  29   1     0.00  -0.00  -0.00    -0.00  -0.00   0.00    -0.00   0.00  -0.00
  30   1    -0.00   0.00  -0.00    -0.00   0.00  -0.00     0.02  -0.01   0.04
                     70                     71                     72
                        a                      a                      a 
 Frequencies --  2935.9087              2938.5944              2939.9966
 Red. masses --     1.9479                 1.5039                 1.9076
 Frc consts  --     0.0000                 0.0000                 0.0000
 IR Inten    --   958.7628                15.4570               118.8640
 Raman Activ --     0.0000                 0.0000                 0.0000
 Depolar     --     0.0000                 0.0000                 0.0000
 Atom AN      X      Y      Z        X      Y      Z        X      Y      Z
   1   7    -0.04  -0.17   0.08    -0.00  -0.01   0.00     0.01   0.06  -0.02
   2   6     0.13   0.11  -0.09    -0.00  -0.00   0.00     0.03   0.03  -0.02
   3   6    -0.00  -0.02   0.00     0.00   0.04   0.02    -0.02  -0.22  -0.12
   4   6    -0.00   0.01   0.02     0.00   0.00   0.00    -0.02  -0.08   0.02
   5   6    -0.00   0.00   0.01     0.00  -0.01  -0.01     0.00  -0.02  -0.02
   6   6    -0.00   0.01  -0.01    -0.04  -0.04  -0.01     0.01   0.00   0.01
   7   6    -0.01   0.01  -0.01    -0.02  -0.03  -0.00     0.00  -0.01   0.01
   8   6    -0.00   0.00  -0.00     0.14   0.10   0.09     0.02   0.02   0.02
   9   6     0.00  -0.00   0.00    -0.02  -0.00  -0.00    -0.00   0.00  -0.00
  10  17     0.00   0.01  -0.00     0.00   0.00  -0.00    -0.00  -0.00   0.00
  11   1     0.16   0.63  -0.25     0.01   0.03  -0.01    -0.05  -0.20   0.08
  12   1     0.03  -0.01  -0.01     0.00  -0.00  -0.00    -0.00   0.00   0.00
  13   1    -0.02  -0.00  -0.01    -0.00  -0.00  -0.00     0.00   0.00   0.00
  14   1    -0.31   0.06   0.12     0.01  -0.00  -0.00    -0.06   0.01   0.02
  15   1    -0.16  -0.48   0.19     0.01   0.02  -0.01    -0.05  -0.15   0.05
  16   1     0.03   0.09  -0.04    -0.02  -0.06   0.03     0.12   0.33  -0.16
  17   1    -0.00   0.00   0.01     0.01  -0.08  -0.10    -0.05   0.47   0.58
  18   1     0.00   0.02  -0.00    -0.00  -0.01   0.00     0.09   0.26  -0.10
  19   1     0.00  -0.06  -0.07     0.00  -0.01  -0.01    -0.00   0.01   0.03
  20   1     0.00   0.01  -0.00    -0.01  -0.02   0.01    -0.00  -0.01  -0.00
  21   1     0.00  -0.01  -0.02    -0.01   0.04   0.05    -0.01   0.06   0.07
  22   1     0.02  -0.00   0.02     0.09  -0.03   0.13    -0.03   0.01  -0.04
  23   1    -0.01  -0.02   0.01     0.06   0.19  -0.09    -0.00  -0.01   0.01
  24   1     0.03  -0.01   0.05     0.04  -0.02   0.07    -0.01   0.00  -0.01
  25   1    -0.01  -0.01   0.00     0.05   0.13  -0.06     0.01   0.02  -0.01
  26   1     0.01  -0.00   0.01    -0.33   0.14  -0.57    -0.06   0.03  -0.10
  27   1    -0.01  -0.01   0.01    -0.17  -0.52   0.25    -0.03  -0.09   0.04
  28   1     0.00   0.01  -0.00     0.01   0.04  -0.02    -0.00   0.00  -0.00
  29   1     0.00  -0.00   0.00     0.06  -0.00  -0.01     0.01  -0.00  -0.00
  30   1    -0.00   0.00  -0.01     0.02  -0.01   0.05     0.01  -0.00   0.01
                     73                     74                     75
                        a                      a                      a 
 Frequencies --  2945.7730              2948.0801              2952.0770
 Red. masses --     1.4856                 1.9063                 1.5339
 Frc consts  --     0.0000                 0.0000                 0.0000
 IR Inten    --    44.5257               354.3172                 9.1408
 Raman Activ --     0.0000                 0.0000                 0.0000
 Depolar     --     0.0000                 0.0000                 0.0000
 Atom AN      X      Y      Z        X      Y      Z        X      Y      Z
   1   7    -0.01  -0.02   0.01     0.03   0.14  -0.07    -0.00  -0.00   0.00
   2   6    -0.03  -0.02   0.02     0.18   0.06  -0.09     0.00   0.01  -0.01
   3   6     0.00   0.01  -0.01    -0.00   0.04   0.07    -0.00  -0.02  -0.00
   4   6    -0.00   0.01   0.02     0.01   0.02  -0.01     0.03  -0.03  -0.11
   5   6    -0.00   0.02   0.03     0.01   0.02  -0.01    -0.05  -0.10   0.11
   6   6     0.11   0.11   0.04     0.02   0.02   0.00     0.03   0.01   0.03
   7   6    -0.07  -0.06  -0.04    -0.01  -0.01  -0.01     0.05   0.05   0.02
   8   6     0.02   0.02   0.01     0.00   0.00   0.00     0.02   0.02   0.01
   9   6     0.00   0.00   0.00    -0.00  -0.00   0.00    -0.01  -0.00  -0.00
  10  17     0.00   0.00  -0.00    -0.00  -0.01   0.00     0.00   0.00  -0.00
  11   1     0.02   0.07  -0.03    -0.12  -0.50   0.20     0.00   0.01  -0.00
  12   1     0.00  -0.00  -0.00    -0.01   0.01   0.00    -0.00   0.00   0.01
  13   1    -0.00  -0.00  -0.00     0.02   0.00   0.01     0.00  -0.00   0.00
  14   1     0.09  -0.01  -0.04    -0.57   0.08   0.23     0.00   0.00  -0.00
  15   1     0.02   0.07  -0.03    -0.08  -0.28   0.10    -0.02  -0.05   0.02
  16   1    -0.02  -0.05   0.02     0.02   0.07  -0.02     0.03   0.07  -0.03
  17   1     0.00   0.01   0.01     0.02  -0.20  -0.23    -0.00   0.02   0.02
  18   1     0.01   0.02  -0.00    -0.03  -0.07   0.03    -0.07  -0.23   0.07
  19   1     0.01  -0.06  -0.06    -0.00   0.02   0.02    -0.03   0.35   0.36
  20   1     0.01   0.02  -0.01    -0.02  -0.05   0.02     0.18   0.56  -0.20
  21   1     0.01  -0.09  -0.10     0.00   0.00  -0.00     0.02  -0.21  -0.21
  22   1    -0.27   0.10  -0.41    -0.04   0.01  -0.06    -0.08   0.03  -0.13
  23   1    -0.16  -0.53   0.25    -0.03  -0.09   0.04    -0.02  -0.08   0.04
  24   1     0.17  -0.07   0.30     0.03  -0.01   0.05    -0.09   0.04  -0.16
  25   1     0.11   0.32  -0.15     0.02   0.06  -0.03    -0.07  -0.21   0.10
  26   1    -0.05   0.02  -0.09    -0.01   0.00  -0.01    -0.05   0.02  -0.09
  27   1    -0.03  -0.09   0.04    -0.00  -0.01   0.01    -0.03  -0.10   0.05
  28   1    -0.00  -0.00   0.00    -0.00   0.00   0.00     0.01   0.02  -0.01
  29   1    -0.00   0.00   0.00     0.00  -0.00  -0.00     0.03  -0.00  -0.01
  30   1    -0.01   0.00  -0.01    -0.00   0.00  -0.00     0.01  -0.00   0.02
                     76                     77                     78
                        a                      a                      a 
 Frequencies --  2958.8376              2960.2815              2971.9778
 Red. masses --     1.5919                 1.5547                 1.5474
 Frc consts  --     0.0000                 0.0000                 0.0000
 IR Inten    --   144.3882                73.8129                67.6423
 Raman Activ --     0.0000                 0.0000                 0.0000
 Depolar     --     0.0000                 0.0000                 0.0000
 Atom AN      X      Y      Z        X      Y      Z        X      Y      Z
   1   7    -0.00  -0.01   0.01     0.00   0.01  -0.00     0.01   0.04  -0.02
   2   6    -0.02   0.00   0.01     0.04  -0.02  -0.01    -0.09   0.11   0.02
   3   6    -0.01  -0.03   0.03     0.03   0.07  -0.04    -0.04  -0.04   0.12
   4   6     0.02   0.02  -0.04    -0.03   0.04   0.14    -0.02   0.00   0.07
   5   6     0.05   0.10  -0.09    -0.02  -0.01   0.06    -0.01  -0.02   0.03
   6   6     0.06   0.08   0.00     0.03   0.01   0.03     0.00  -0.01   0.01
   7   6     0.08   0.09   0.03     0.08   0.05   0.05     0.01  -0.00   0.01
   8   6     0.03   0.03   0.01     0.02   0.01   0.01     0.00  -0.00   0.00
   9   6    -0.03  -0.01   0.00    -0.03  -0.00  -0.01    -0.01   0.00  -0.00
  10  17     0.00   0.00  -0.00     0.00  -0.00   0.00    -0.00  -0.00   0.00
  11   1     0.01   0.05  -0.02    -0.01  -0.05   0.02    -0.04  -0.14   0.06
  12   1    -0.00   0.00   0.00     0.01  -0.00  -0.01    -0.02   0.00   0.01
  13   1    -0.00  -0.00  -0.00     0.00  -0.00  -0.00     0.01   0.00   0.00
  14   1     0.08  -0.01  -0.03    -0.16   0.02   0.07     0.48  -0.05  -0.20
  15   1    -0.00  -0.00   0.00     0.03   0.07  -0.03    -0.15  -0.37   0.15
  16   1     0.05   0.16  -0.06    -0.10  -0.29   0.11     0.13   0.40  -0.14
  17   1     0.00  -0.05  -0.06     0.00   0.04   0.04     0.02  -0.25  -0.28
  18   1    -0.06  -0.17   0.06     0.09   0.27  -0.08     0.06   0.17  -0.06
  19   1    -0.01   0.09   0.09     0.04  -0.40  -0.42     0.02  -0.18  -0.18
  20   1    -0.16  -0.48   0.18     0.06   0.19  -0.06     0.04   0.12  -0.04
  21   1    -0.01   0.14   0.13     0.02  -0.14  -0.15     0.01  -0.07  -0.07
  22   1    -0.10   0.04  -0.15    -0.09   0.03  -0.14    -0.01   0.00  -0.02
  23   1    -0.09  -0.30   0.14    -0.02  -0.08   0.04     0.01   0.02  -0.01
  24   1    -0.16   0.07  -0.28    -0.19   0.08  -0.32    -0.03   0.01  -0.04
  25   1    -0.14  -0.40   0.18    -0.09  -0.27   0.13    -0.00  -0.00   0.00
  26   1    -0.06   0.03  -0.10    -0.05   0.02  -0.08    -0.00   0.00  -0.01
  27   1    -0.04  -0.12   0.06    -0.02  -0.07   0.03     0.00  -0.00   0.00
  28   1     0.02   0.05  -0.02     0.01   0.03  -0.01    -0.00  -0.01   0.00
  29   1     0.07  -0.01  -0.01     0.06  -0.00  -0.01     0.01  -0.00  -0.00
  30   1     0.02  -0.01   0.04     0.03  -0.01   0.05     0.01  -0.00   0.02
                     79                     80                     81
                        a                      a                      a 
 Frequencies --  2976.4611              2988.1027              2991.9738
 Red. masses --     1.6223                 1.8999                 1.9289
 Frc consts  --     0.0000                 0.0000                 0.0000
 IR Inten    --    12.4889                65.7132                58.6740
 Raman Activ --     0.0000                 0.0000                 0.0000
 Depolar     --     0.0000                 0.0000                 0.0000
 Atom AN      X      Y      Z        X      Y      Z        X      Y      Z
   1   7    -0.01  -0.05   0.02     0.00   0.00  -0.00     0.00   0.00  -0.00
   2   6     0.03  -0.14   0.02    -0.00   0.00  -0.00    -0.00  -0.00   0.00
   3   6    -0.05  -0.12   0.11     0.00   0.00   0.00    -0.00  -0.00   0.00
   4   6    -0.02  -0.02   0.03    -0.00   0.00   0.00    -0.00   0.00   0.00
   5   6    -0.01  -0.01   0.02     0.00   0.00   0.00    -0.00  -0.00   0.00
   6   6    -0.00  -0.01   0.00     0.01   0.00   0.00    -0.00  -0.00   0.00
   7   6     0.00  -0.00   0.00     0.01   0.01   0.01     0.00  -0.01   0.01
   8   6    -0.00  -0.00   0.00     0.03   0.01   0.01     0.00  -0.02   0.03
   9   6     0.00   0.00  -0.00     0.28   0.00   0.02    -0.01  -0.18   0.22
  10  17     0.00   0.00  -0.00     0.00  -0.00  -0.00    -0.00  -0.00   0.00
  11   1     0.04   0.16  -0.06    -0.00  -0.00   0.00    -0.00  -0.01   0.00
  12   1     0.02  -0.01  -0.01     0.00   0.00  -0.00    -0.00  -0.00   0.00
  13   1    -0.00  -0.00  -0.00     0.00  -0.00   0.00     0.00  -0.00  -0.00
  14   1    -0.29   0.02   0.12     0.01  -0.00  -0.00     0.00  -0.00  -0.00
  15   1     0.19   0.50  -0.20    -0.00  -0.01   0.00     0.00   0.01  -0.00
  16   1     0.19   0.56  -0.21    -0.00  -0.00   0.00     0.00   0.01  -0.00
  17   1     0.01  -0.16  -0.16     0.00  -0.00  -0.01    -0.00  -0.00  -0.00
  18   1     0.04   0.13  -0.05     0.00   0.00   0.00     0.00   0.01  -0.00
  19   1     0.00  -0.07  -0.07     0.00  -0.01  -0.01     0.00  -0.01  -0.01
  20   1     0.03   0.09  -0.03    -0.00  -0.01   0.00     0.00   0.01  -0.00
  21   1     0.00  -0.04  -0.04     0.00  -0.01  -0.01    -0.00  -0.00  -0.00
  22   1    -0.00  -0.00  -0.00    -0.01   0.00  -0.02    -0.00  -0.00  -0.00
  23   1     0.01   0.02  -0.01    -0.01  -0.02   0.01     0.00   0.01  -0.01
  24   1    -0.00   0.00  -0.01    -0.04   0.02  -0.06    -0.01   0.00  -0.02
  25   1     0.00   0.01  -0.00    -0.02  -0.06   0.03     0.01   0.02  -0.01
  26   1    -0.00  -0.00  -0.00    -0.04   0.02  -0.07    -0.03   0.01  -0.04
  27   1     0.00   0.00  -0.00    -0.02  -0.06   0.03     0.02   0.06  -0.03
  28   1    -0.00  -0.01   0.00    -0.00  -0.13   0.06     0.21   0.58  -0.22
  29   1    -0.01   0.00   0.00    -0.84   0.05   0.19     0.18  -0.04  -0.00
  30   1     0.00  -0.00   0.00    -0.15   0.07  -0.32    -0.35   0.10  -0.56
                     82                     83                     84
                        a                      a                      a 
 Frequencies --  3007.6688              3200.9834              3237.0022
 Red. masses --     1.3015                 1.8358                 1.6875
 Frc consts  --     0.0000                 0.0000                 0.0000
 IR Inten    --    34.9482                43.5379                38.1978
 Raman Activ --     0.0000                 0.0000                 0.0000
 Depolar     --     0.0000                 0.0000                 0.0000
 Atom AN      X      Y      Z        X      Y      Z        X      Y      Z
   1   7    -0.00  -0.00   0.00     0.20  -0.05   0.14    -0.19   0.02   0.13
   2   6     0.00  -0.00  -0.00     0.00   0.00   0.00    -0.01   0.00   0.01
   3   6     0.00   0.00  -0.00    -0.00   0.00   0.00    -0.00   0.00   0.00
   4   6    -0.00   0.00   0.00    -0.00   0.00  -0.00     0.00  -0.00  -0.00
   5   6     0.00   0.00  -0.00    -0.00  -0.00   0.00    -0.00   0.00  -0.00
   6   6     0.00   0.00   0.00     0.00   0.00   0.00    -0.00   0.00  -0.00
   7   6     0.01   0.01   0.00    -0.00  -0.00   0.00    -0.00   0.00  -0.00
   8   6     0.01   0.01   0.01     0.00   0.00   0.00    -0.00  -0.00  -0.00
   9   6     0.03   0.14   0.08     0.00  -0.00  -0.00    -0.00   0.00  -0.00
  10  17     0.00  -0.00  -0.00     0.00   0.00  -0.00     0.00   0.00   0.00
  11   1     0.00   0.00  -0.00     0.01  -0.04   0.02    -0.03  -0.05   0.03
  12   1     0.00   0.00   0.00    -0.09  -0.00   0.07     0.85  -0.05  -0.44
  13   1    -0.00   0.00  -0.00    -0.68   0.24  -0.63    -0.11   0.03  -0.07
  14   1    -0.00   0.00   0.00    -0.01   0.00   0.00     0.02  -0.00  -0.01
  15   1     0.00   0.00  -0.00    -0.00  -0.00   0.00    -0.00  -0.01   0.00
  16   1    -0.00  -0.00   0.00     0.00   0.00  -0.00    -0.00  -0.00   0.00
  17   1     0.00   0.00   0.00     0.00  -0.00  -0.00    -0.00  -0.00  -0.00
  18   1     0.00   0.00  -0.00    -0.00  -0.00   0.00    -0.00  -0.00   0.00
  19   1     0.00  -0.00  -0.00    -0.00  -0.00  -0.00     0.00   0.01   0.01
  20   1    -0.00  -0.01   0.00     0.00   0.00  -0.00     0.00  -0.00   0.00
  21   1     0.00   0.00   0.00     0.00  -0.00  -0.00     0.00   0.00   0.00
  22   1    -0.00   0.00  -0.00    -0.00   0.00  -0.00     0.00  -0.00   0.00
  23   1    -0.00  -0.01   0.00    -0.00  -0.00   0.00    -0.00  -0.00  -0.00
  24   1    -0.02   0.01  -0.03     0.00  -0.00   0.00     0.00   0.00   0.00
  25   1    -0.01  -0.03   0.01     0.00   0.00  -0.00    -0.00  -0.00   0.00
  26   1    -0.02   0.01  -0.03    -0.00   0.00  -0.00     0.00  -0.00   0.00
  27   1    -0.01  -0.03   0.02    -0.00  -0.00   0.00     0.00   0.00  -0.00
  28   1    -0.21  -0.60   0.27     0.00   0.00   0.00    -0.00  -0.00  -0.00
  29   1     0.38  -0.00  -0.07    -0.00   0.00   0.00     0.00   0.00  -0.00
  30   1    -0.29   0.12  -0.49     0.00  -0.00   0.00    -0.00   0.00   0.00
