12
 energy: -15.339536739416 gnorm: 0.000611627327 xtb: 6.5.1 (fef0646)
N            1.02820853961058       -0.01508016019993       -0.04101274340154
C            2.52148384632826        0.06379905580788       -0.07548756693125
C            3.04031570159214       -0.49095804723611       -1.40371958634733
C            2.45661552633826       -1.79777083565661       -1.62354148519530
N            1.89359646710472       -2.78627716312864       -1.71764318665879
H            0.65654645738681        0.25159819501108        0.87987569657804
H            0.74264527824663       -0.98824447424323       -0.25103320008870
H            0.60948499921907        0.59784988988105       -0.75442956513320
H            2.91151566267477       -0.52953892601859        0.75454022314370
H            2.83148782400841        1.10171203719608        0.05455439501471
H            4.12824658465177       -0.58092392796702       -1.37153007210777
H            2.78311311283853        0.15891435655401       -2.24473290887261
