21
 energy: -46.803770001830 gnorm: 0.000811962044 xtb: 6.5.1 (fef0646)
N            0.94470957299340        0.19381987490868       -0.05928364128786
C            2.43798471260061        0.19620662775452       -0.06522349541166
C            2.96327802887139        0.17138049263246       -1.50096310448237
C            4.47158768312602        0.16984592469070       -1.50077670596169
C            5.18824925629120       -1.02127127593130       -1.49795381212221
F            4.50318020001537       -2.16994812678429       -1.46642962608893
C            6.57927707852208       -1.03869559379103       -1.51589976000195
F            7.23350853634798       -2.19020285486426       -1.51283989913551
C            7.27801751174864        0.16967106059958       -1.52913856306092
F            8.59943564737154        0.16975697448378       -1.54402553382792
C            6.57946583876779        1.37828811917267       -1.51546770310500
F            7.23406470174547        2.52956497579802       -1.51178143669242
C            5.18863440900390        1.36080975130477       -1.49769217320639
F            4.50267368128529        2.50917570183435       -1.46560951397279
H            0.57765145005111        0.21026046685588        0.90108260871590
H            0.59176522697368       -0.64977092304691       -0.53228425381175
H            0.58896621546938        1.01895071777585       -0.56183614372070
H            2.79043248315672       -0.68230813116021        0.47811788066423
H            2.78746076677903        1.09485913371013        0.44620533531687
H            2.61838732528023        1.05280154514512       -2.04403575460190
H            2.61623967359917       -0.72643446108853       -2.01483470420502
