 Entering Gaussian System
 *********************************************
 Gaussian 98:
 frequency output generated by the xtb code
 *********************************************
                         Standard orientation:
 --------------------------------------------------------------------
  Center     Atomic     Atomic              Coordinates (Angstroms)
  Number     Number      Type              X           Y           Z
 --------------------------------------------------------------------
    1          7             0       -2.467295    1.566262   -0.716624
    2          6             0       -1.491818    2.015289    0.312192
    3          6             0       -0.184972    1.290431    0.221378
    4          6             0        1.008561    1.986135    0.082083
    5          6             0        2.211877    1.314789    0.002370
    6          6             0        2.261750   -0.076802    0.056142
    7          6             0        3.553086   -0.766259   -0.027351
    8          6             0        3.709758   -2.042810   -0.352659
    9          6             0        1.060807   -0.769155    0.199638
   10          6             0       -0.140570   -0.094419    0.279451
   11         17             0       -3.221809   -1.768993    0.068184
   12          1             0       -3.342582    2.114676   -0.692732
   13          1             0       -2.718249    0.571473   -0.575782
   14          1             0       -2.065057    1.651518   -1.665476
   15          1             0       -1.913796    1.874872    1.314244
   16          1             0       -1.321363    3.093428    0.210709
   17          1             0        0.988326    3.062785    0.036451
   18          1             0        3.130800    1.867294   -0.107394
   19          1             0        4.427430   -0.170543    0.183535
   20          1             0        2.872644   -2.667736   -0.596185
   21          1             0        4.681206   -2.498275   -0.402032
   22          1             0        1.072251   -1.844415    0.261210
   23          1             0       -1.061372   -0.645674    0.379195
 --------------------------------------------------------------------
     1 basis functions        1 primitive gaussians
     1 alpha electrons        1 beta electrons

 Harmonic frequencies (cm**-1), IR intensities (km*mol⁻¹),
 Raman scattering activities (A**4/amu), Raman depolarization ratios,
 reduced masses (AMU), force constants (mDyne/A) and normal coordinates:
                      1                      2                      3
                        a                      a                      a 
 Frequencies --  -134.0145               -59.7463                50.3616
 Red. masses --    19.8265                 7.8430                12.6795
 Frc consts  --     0.0000                 0.0000                 0.0000
 IR Inten    --   130.9329                 1.3867                 1.7074
 Raman Activ --     0.0000                 0.0000                 0.0000
 Depolar     --     0.0000                 0.0000                 0.0000
 Atom AN      X      Y      Z        X      Y      Z        X      Y      Z
   1   7    -0.15  -0.58   0.19     0.02  -0.01  -0.07     0.07   0.06  -0.04
   2   6    -0.06  -0.14  -0.09     0.04   0.07  -0.12    -0.08  -0.14   0.19
   3   6    -0.01  -0.06  -0.02     0.02   0.03  -0.04    -0.04  -0.06   0.15
   4   6    -0.03  -0.03   0.02     0.03   0.00  -0.12    -0.10  -0.04  -0.24
   5   6    -0.01   0.00   0.04     0.03  -0.01   0.01    -0.09  -0.01  -0.33
   6   6     0.03   0.01   0.02     0.00   0.00   0.18    -0.03  -0.00  -0.01
   7   6     0.04   0.02   0.03    -0.03  -0.09   0.34    -0.02   0.02  -0.14
   8   6     0.04   0.04  -0.05    -0.12   0.12  -0.52    -0.05  -0.02   0.03
   9   6     0.05  -0.03   0.01     0.00   0.02   0.23     0.03  -0.02   0.38
  10   6     0.04  -0.06  -0.01     0.00   0.04   0.14     0.02  -0.05   0.45
  11  17     0.06   0.60  -0.10     0.01  -0.11   0.03     0.17   0.16  -0.26
  12   1    -0.04  -0.16   0.02     0.01  -0.00  -0.03     0.01  -0.00  -0.00
  13   1    -0.04  -0.17   0.15     0.01   0.00   0.01     0.03   0.00  -0.09
  14   1    -0.07  -0.24   0.03     0.00  -0.03  -0.02     0.05   0.09   0.01
  15   1     0.02   0.03   0.00     0.01   0.05  -0.03    -0.05  -0.12   0.03
  16   1    -0.05  -0.04  -0.12     0.02   0.02  -0.07    -0.03  -0.03   0.13
  17   1    -0.02  -0.01   0.01     0.01  -0.00  -0.08    -0.04  -0.02  -0.14
  18   1    -0.01   0.01   0.02     0.01  -0.01  -0.02    -0.04  -0.00  -0.18
  19   1     0.01  -0.00   0.04    -0.01  -0.11   0.36     0.00   0.02  -0.12
  20   1     0.01   0.02  -0.05    -0.04   0.15  -0.43    -0.03  -0.02   0.08
  21   1     0.01   0.01  -0.01    -0.06  -0.02  -0.10    -0.02  -0.00  -0.03
  22   1     0.02  -0.01   0.00     0.01   0.01   0.11     0.03  -0.00   0.18
  23   1     0.02  -0.02  -0.01    -0.00   0.02   0.06     0.01  -0.01   0.19
                      4                      5                      6
                        a                      a                      a 
 Frequencies --    76.6079               104.4682               119.7019
 Red. masses --    23.0272                11.9165                16.8287
 Frc consts  --     0.0000                 0.0000                 0.0000
 IR Inten    --    24.4226                18.4970                16.6508
 Raman Activ --     0.0000                 0.0000                 0.0000
 Depolar     --     0.0000                 0.0000                 0.0000
 Atom AN      X      Y      Z        X      Y      Z        X      Y      Z
   1   7    -0.02  -0.07   0.00     0.22  -0.21  -0.32    -0.10  -0.19   0.39
   2   6    -0.03   0.17  -0.09     0.00   0.02  -0.19     0.13   0.20  -0.01
   3   6    -0.04   0.13   0.03     0.04   0.05   0.15     0.13   0.18  -0.03
   4   6     0.01   0.06   0.12     0.05   0.06   0.27     0.15   0.12  -0.14
   5   6    -0.04  -0.02   0.10     0.05   0.06   0.22     0.12   0.06  -0.14
   6   6    -0.14  -0.03   0.01     0.04   0.05   0.06     0.06   0.06  -0.02
   7   6    -0.20  -0.13  -0.10     0.01   0.06  -0.35     0.01  -0.05  -0.02
   8   6    -0.34  -0.17  -0.01    -0.09   0.00  -0.19    -0.14  -0.11   0.15
   9   6    -0.18   0.05  -0.01     0.05   0.05   0.19     0.04   0.13   0.10
  10   6    -0.13   0.13   0.00     0.05   0.05   0.21     0.08   0.19   0.10
  11  17     0.72  -0.05  -0.01    -0.28  -0.09   0.06    -0.27  -0.34  -0.29
  12   1    -0.03  -0.06   0.00     0.07  -0.03  -0.18    -0.05  -0.10   0.15
  13   1     0.06  -0.03   0.02     0.02  -0.04  -0.02     0.03  -0.06   0.14
  14   1    -0.02  -0.02  -0.01     0.12  -0.14  -0.07    -0.11  -0.06   0.07
  15   1    -0.01   0.11  -0.02    -0.05   0.05  -0.07     0.10   0.15   0.04
  16   1    -0.01   0.04  -0.09    -0.00   0.00  -0.10     0.02   0.05  -0.12
  17   1     0.02   0.02   0.05     0.01   0.02   0.10     0.06   0.03  -0.06
  18   1     0.00  -0.02   0.04     0.01   0.02   0.07     0.04   0.00  -0.07
  19   1    -0.04  -0.05  -0.08     0.03   0.04  -0.26     0.02  -0.03  -0.05
  20   1    -0.12  -0.04   0.05    -0.05  -0.03   0.11    -0.06  -0.02   0.08
  21   1    -0.11  -0.07  -0.03    -0.03   0.01  -0.17    -0.05  -0.06   0.04
  22   1    -0.08   0.01  -0.01     0.01   0.02   0.05    -0.00   0.04   0.06
  23   1    -0.05   0.05  -0.01     0.02   0.01   0.06     0.02   0.06   0.05
                      7                      8                      9
                        a                      a                      a 
 Frequencies --   188.5506               221.7423               293.7860
 Red. masses --     9.1338                 9.0743                 3.9267
 Frc consts  --     0.0000                 0.0000                 0.0000
 IR Inten    --    10.3638                 4.2953                 2.5983
 Raman Activ --     0.0000                 0.0000                 0.0000
 Depolar     --     0.0000                 0.0000                 0.0000
 Atom AN      X      Y      Z        X      Y      Z        X      Y      Z
   1   7     0.30  -0.22  -0.11     0.29  -0.15   0.02     0.07  -0.14  -0.10
   2   6    -0.08  -0.22   0.25     0.05   0.21   0.06    -0.08  -0.07   0.02
   3   6     0.06   0.08   0.12    -0.01   0.11   0.27     0.05   0.17  -0.06
   4   6     0.01   0.14   0.02     0.02   0.00   0.02     0.11   0.08  -0.03
   5   6     0.03   0.17  -0.15    -0.09  -0.14  -0.19     0.04  -0.08   0.10
   6   6     0.04   0.17  -0.17    -0.21  -0.14  -0.20    -0.06  -0.09   0.04
   7   6    -0.06  -0.06   0.14    -0.11   0.02   0.05    -0.03  -0.05   0.00
   8   6    -0.35  -0.08   0.10     0.36   0.09   0.02     0.18  -0.00  -0.07
   9   6     0.07   0.12  -0.24    -0.25  -0.06  -0.15    -0.13   0.01  -0.02
  10   6     0.07   0.07  -0.10    -0.16   0.10   0.16    -0.03   0.17   0.01
  11  17    -0.07  -0.02   0.06    -0.01  -0.04  -0.04    -0.08   0.04   0.06
  12   1     0.08  -0.06  -0.12     0.10  -0.00  -0.14    -0.18  -0.37   0.26
  13   1     0.06  -0.06  -0.05     0.02  -0.01   0.11     0.38  -0.17  -0.28
  14   1     0.18  -0.06   0.01     0.16  -0.18   0.03    -0.13   0.41  -0.05
  15   1    -0.06  -0.20   0.04    -0.02   0.15   0.01    -0.02  -0.14  -0.01
  16   1    -0.10  -0.04   0.19     0.03   0.05  -0.07    -0.11   0.00   0.09
  17   1    -0.01   0.04   0.03     0.03   0.00   0.00     0.07   0.02  -0.02
  18   1     0.00   0.05  -0.05    -0.01  -0.07  -0.09     0.03  -0.05   0.05
  19   1     0.01  -0.10   0.17    -0.09   0.05   0.12    -0.03   0.02  -0.01
  20   1    -0.13   0.07  -0.10     0.18  -0.03  -0.10     0.08  -0.05  -0.00
  21   1    -0.14  -0.12   0.14     0.15   0.11   0.11     0.08   0.06  -0.04
  22   1     0.03   0.04  -0.09    -0.10  -0.02  -0.09    -0.07   0.00  -0.02
  23   1     0.03   0.02  -0.02    -0.06   0.05   0.07    -0.02   0.07   0.03
                     10                     11                     12
                        a                      a                      a 
 Frequencies --   319.4155               345.8674               369.0205
 Red. masses --     7.9685                 8.7996                 8.9248
 Frc consts  --     0.0000                 0.0000                 0.0000
 IR Inten    --     1.5373                 2.5960                 0.7385
 Raman Activ --     0.0000                 0.0000                 0.0000
 Depolar     --     0.0000                 0.0000                 0.0000
 Atom AN      X      Y      Z        X      Y      Z        X      Y      Z
   1   7     0.18  -0.09   0.10    -0.35   0.04  -0.10    -0.00   0.02   0.01
   2   6     0.04  -0.11   0.21    -0.29  -0.13   0.04     0.04  -0.00  -0.02
   3   6     0.09   0.10  -0.21    -0.02   0.26  -0.06    -0.00  -0.05   0.02
   4   6     0.09   0.06  -0.30     0.10   0.12   0.03    -0.06  -0.04  -0.41
   5   6     0.02  -0.08   0.10     0.07  -0.04   0.07     0.04   0.05   0.41
   6   6    -0.12  -0.07   0.38     0.10  -0.07  -0.08     0.02   0.04   0.01
   7   6    -0.08   0.08   0.03     0.07  -0.25  -0.04    -0.00   0.02  -0.01
   8   6    -0.02   0.12  -0.08     0.26  -0.24  -0.05    -0.07   0.00   0.02
   9   6    -0.17  -0.04   0.09     0.00   0.13   0.03    -0.01  -0.02  -0.42
  10   6    -0.09   0.10  -0.26     0.08   0.27   0.12     0.05  -0.03   0.42
  11  17     0.01  -0.02  -0.01     0.04  -0.02  -0.01     0.00  -0.00  -0.01
  12   1     0.11   0.09  -0.12     0.01   0.17  -0.14     0.01   0.02  -0.00
  13   1    -0.09   0.02   0.10    -0.27   0.07   0.05    -0.02   0.01   0.01
  14   1     0.16  -0.18   0.06    -0.01  -0.16  -0.01    -0.00  -0.01  -0.00
  15   1     0.05  -0.17   0.06    -0.07  -0.19  -0.01     0.01   0.02  -0.00
  16   1    -0.06  -0.01   0.17    -0.18  -0.01   0.13     0.03  -0.00  -0.02
  17   1     0.04   0.02  -0.15     0.08   0.04   0.02    -0.04  -0.02  -0.27
  18   1     0.03  -0.07   0.03     0.03  -0.01   0.05     0.02   0.03   0.25
  19   1    -0.02   0.08  -0.18     0.01  -0.08   0.04     0.01  -0.00  -0.01
  20   1    -0.02  -0.03   0.18     0.11  -0.10  -0.07    -0.03   0.00   0.02
  21   1     0.02   0.10  -0.23     0.10  -0.03   0.04    -0.02  -0.01  -0.01
  22   1    -0.08  -0.01   0.02    -0.04   0.04   0.02    -0.01  -0.01  -0.28
  23   1    -0.05   0.06  -0.12     0.02   0.09   0.07     0.03  -0.00   0.24
                     13                     14                     15
                        a                      a                      a 
 Frequencies --   425.1183               477.4266               524.5250
 Red. masses --     9.2599                 9.4568                 8.9613
 Frc consts  --     0.0000                 0.0000                 0.0000
 IR Inten    --     5.1074                 5.7615                 6.3021
 Raman Activ --     0.0000                 0.0000                 0.0000
 Depolar     --     0.0000                 0.0000                 0.0000
 Atom AN      X      Y      Z        X      Y      Z        X      Y      Z
   1   7     0.03  -0.01  -0.03    -0.26   0.02  -0.12     0.10  -0.01   0.05
   2   6    -0.21   0.23   0.09    -0.05  -0.12  -0.10    -0.16   0.22   0.13
   3   6    -0.22   0.06   0.35     0.17   0.10   0.32    -0.21   0.11  -0.27
   4   6    -0.18  -0.10  -0.12     0.23  -0.01   0.11    -0.07  -0.14  -0.03
   5   6    -0.08  -0.00  -0.10     0.08  -0.23  -0.21    -0.13  -0.27   0.12
   6   6     0.25   0.00   0.34    -0.01  -0.18   0.10     0.13  -0.24  -0.23
   7   6     0.24  -0.18   0.09     0.14   0.23   0.14     0.40   0.18  -0.06
   8   6     0.09  -0.17  -0.09    -0.20   0.25   0.03    -0.08   0.11   0.06
   9   6     0.10   0.15  -0.12    -0.06  -0.17  -0.20     0.01  -0.05   0.06
  10   6    -0.01   0.03  -0.17     0.10   0.08   0.09     0.03   0.10  -0.01
  11  17    -0.01   0.00   0.01     0.01  -0.00   0.00    -0.01  -0.00  -0.00
  12   1    -0.04  -0.08  -0.05    -0.03   0.06   0.04    -0.02  -0.07  -0.10
  13   1     0.09  -0.02  -0.01    -0.12   0.02  -0.04     0.09  -0.02   0.04
  14   1     0.04   0.02   0.01    -0.12   0.01  -0.05     0.11  -0.03   0.04
  15   1    -0.12   0.16   0.01    -0.05  -0.03  -0.04    -0.02   0.02   0.04
  16   1    -0.02   0.05  -0.06    -0.03  -0.03  -0.03    -0.07   0.07   0.06
  17   1    -0.04  -0.03  -0.15     0.12  -0.00  -0.02     0.07  -0.03   0.09
  18   1    -0.07   0.06  -0.15     0.04  -0.12  -0.16    -0.04  -0.05   0.16
  19   1     0.10  -0.06  -0.09     0.03   0.10  -0.04     0.10   0.05   0.05
  20   1    -0.01  -0.06   0.11    -0.15   0.16   0.12    -0.16   0.22  -0.02
  21   1     0.02  -0.05  -0.19    -0.11  -0.03  -0.13    -0.12  -0.18   0.05
  22   1    -0.01   0.03  -0.15    -0.09  -0.05  -0.14    -0.08  -0.01   0.15
  23   1     0.03  -0.06  -0.15     0.00   0.06  -0.02     0.03   0.01   0.10
                     16                     17                     18
                        a                      a                      a 
 Frequencies --   604.2984               619.4232               698.1921
 Red. masses --    10.3725                 8.7087                 9.0404
 Frc consts  --     0.0000                 0.0000                 0.0000
 IR Inten    --     1.4999                 3.6102                 1.0999
 Raman Activ --     0.0000                 0.0000                 0.0000
 Depolar     --     0.0000                 0.0000                 0.0000
 Atom AN      X      Y      Z        X      Y      Z        X      Y      Z
   1   7     0.01   0.02   0.00    -0.07  -0.02  -0.04     0.08   0.00   0.05
   2   6     0.02   0.00  -0.02    -0.05  -0.02   0.03     0.12  -0.07  -0.08
   3   6     0.09   0.11   0.17     0.03  -0.01   0.33    -0.02  -0.02  -0.32
   4   6    -0.15   0.39  -0.11     0.15  -0.23  -0.20    -0.06   0.05   0.26
   5   6    -0.38  -0.05   0.16     0.28  -0.03   0.22    -0.13  -0.01  -0.14
   6   6    -0.08  -0.09   0.07     0.01   0.01  -0.01     0.06   0.00   0.47
   7   6    -0.04   0.01  -0.20     0.02   0.15  -0.37     0.19   0.05  -0.30
   8   6    -0.01  -0.06   0.04    -0.01   0.05   0.10     0.05  -0.07   0.07
   9   6     0.16  -0.39   0.11    -0.08   0.15   0.23    -0.13   0.07  -0.14
  10   6     0.39   0.06  -0.16    -0.22  -0.03  -0.20    -0.14   0.03   0.24
  11  17    -0.00  -0.00   0.00     0.00   0.00   0.00    -0.00  -0.00  -0.00
  12   1     0.01   0.01   0.02    -0.01   0.01   0.01     0.03   0.02   0.04
  13   1    -0.00   0.01  -0.01    -0.03  -0.00  -0.02     0.01   0.01   0.03
  14   1    -0.01   0.01  -0.00    -0.03   0.01  -0.01    -0.01  -0.01  -0.00
  15   1    -0.01   0.06  -0.00    -0.05   0.00  -0.01     0.09  -0.11  -0.01
  16   1     0.03  -0.01  -0.05    -0.02  -0.01   0.00     0.00  -0.01   0.05
  17   1    -0.01   0.10  -0.14     0.03  -0.07  -0.21    -0.04   0.01  -0.08
  18   1    -0.09  -0.06  -0.03     0.07  -0.02  -0.05    -0.06   0.00  -0.25
  19   1    -0.02  -0.03   0.07    -0.02  -0.00   0.12     0.05  -0.05   0.10
  20   1     0.03  -0.00  -0.15     0.01   0.10  -0.24    -0.01   0.09  -0.19
  21   1    -0.00  -0.03   0.18    -0.03  -0.08   0.32    -0.03  -0.13   0.19
  22   1    -0.00  -0.11  -0.02    -0.01   0.03  -0.02    -0.08   0.01  -0.23
  23   1     0.08   0.05  -0.12    -0.07  -0.02  -0.19    -0.05   0.02  -0.02
                     19                     20                     21
                        a                      a                      a 
 Frequencies --   726.9255               813.0027               841.8438
 Red. masses --     9.3111                 5.4169                 3.4715
 Frc consts  --     0.0000                 0.0000                 0.0000
 IR Inten    --     6.5814                13.1643                45.6072
 Raman Activ --     0.0000                 0.0000                 0.0000
 Depolar     --     0.0000                 0.0000                 0.0000
 Atom AN      X      Y      Z        X      Y      Z        X      Y      Z
   1   7    -0.07   0.03  -0.02    -0.05  -0.03  -0.03    -0.01   0.09  -0.09
   2   6    -0.28   0.27   0.12    -0.03  -0.05   0.08     0.07   0.25  -0.13
   3   6    -0.10   0.02  -0.21     0.05  -0.01   0.13     0.06  -0.02   0.14
   4   6     0.15  -0.21   0.09     0.02   0.08  -0.23    -0.01   0.08  -0.09
   5   6     0.22  -0.05  -0.09     0.03   0.05  -0.26     0.02   0.09  -0.08
   6   6    -0.00   0.04   0.22    -0.00   0.03   0.37    -0.04   0.04   0.02
   7   6    -0.35   0.08  -0.11     0.06   0.03  -0.19     0.08  -0.01  -0.02
   8   6    -0.13   0.10   0.05     0.02  -0.05   0.06     0.03  -0.04   0.03
   9   6     0.20  -0.18  -0.09    -0.07  -0.07  -0.18    -0.02  -0.14   0.03
  10   6     0.28  -0.05   0.07    -0.08  -0.04  -0.07    -0.08  -0.15   0.02
  11  17    -0.01   0.00  -0.00     0.00   0.00   0.00    -0.01  -0.00  -0.01
  12   1    -0.10  -0.11  -0.17     0.01   0.03  -0.01    -0.11  -0.15   0.03
  13   1     0.10  -0.02   0.05    -0.06  -0.01  -0.10     0.22   0.03   0.41
  14   1     0.09  -0.03   0.04     0.04   0.06   0.02    -0.27  -0.26  -0.16
  15   1    -0.06   0.04   0.04    -0.04   0.14   0.03    -0.09  -0.34  -0.13
  16   1    -0.09   0.08   0.06     0.03  -0.03  -0.12    -0.07   0.11   0.37
  17   1     0.07  -0.06   0.01     0.04   0.05   0.46    -0.04   0.03   0.13
  18   1     0.07  -0.04  -0.07     0.07   0.01   0.41     0.03   0.02   0.14
  19   1    -0.09  -0.00   0.02     0.03  -0.04   0.04     0.03  -0.01   0.01
  20   1     0.10  -0.10  -0.11     0.01   0.03  -0.13    -0.02   0.03  -0.02
  21   1     0.05   0.19   0.12     0.00  -0.03   0.06    -0.01  -0.05  -0.05
  22   1     0.10  -0.05  -0.07     0.03  -0.00   0.27     0.03  -0.04  -0.03
  23   1     0.11  -0.06   0.02    -0.02   0.04   0.23    -0.03  -0.05  -0.03
                     22                     23                     24
                        a                      a                      a 
 Frequencies --   844.9574               874.9770               889.5484
 Red. masses --     8.8779                 3.3989                 3.7340
 Frc consts  --     0.0000                 0.0000                 0.0000
 IR Inten    --     7.5621                 0.7450                16.8665
 Raman Activ --     0.0000                 0.0000                 0.0000
 Depolar     --     0.0000                 0.0000                 0.0000
 Atom AN      X      Y      Z        X      Y      Z        X      Y      Z
   1   7    -0.15   0.00  -0.03     0.01   0.01  -0.01    -0.01   0.01  -0.01
   2   6    -0.18   0.13   0.16     0.03   0.02  -0.03     0.02   0.02  -0.02
   3   6     0.11  -0.08  -0.11    -0.00   0.01   0.07     0.01   0.00   0.04
   4   6     0.14   0.33   0.06     0.00  -0.02   0.18     0.00  -0.00   0.06
   5   6     0.22   0.27   0.05    -0.01  -0.01   0.13    -0.01  -0.01  -0.01
   6   6    -0.12   0.06  -0.06     0.01   0.00   0.04     0.02   0.00   0.10
   7   6     0.21  -0.04   0.04    -0.01   0.02  -0.09    -0.02  -0.04   0.16
   8   6     0.11  -0.08  -0.03    -0.00  -0.05   0.16     0.03   0.11  -0.41
   9   6    -0.12  -0.34   0.03    -0.02   0.00  -0.31    -0.02  -0.01  -0.13
  10   6    -0.20  -0.27   0.04    -0.01   0.01  -0.17    -0.01  -0.01  -0.05
  11  17     0.00   0.00   0.00     0.00  -0.00  -0.01     0.00  -0.00  -0.00
  12   1    -0.09  -0.08  -0.20     0.00   0.00   0.04    -0.01  -0.01   0.01
  13   1     0.03  -0.03  -0.09     0.01   0.01   0.05     0.01   0.00   0.03
  14   1     0.17   0.05   0.09    -0.07  -0.05  -0.04    -0.04  -0.04  -0.02
  15   1    -0.01   0.15   0.08    -0.03  -0.05  -0.03    -0.01  -0.03  -0.02
  16   1    -0.04   0.02  -0.07     0.01   0.01   0.06    -0.00   0.01   0.04
  17   1    -0.07   0.09  -0.16    -0.03  -0.02  -0.36    -0.01  -0.01  -0.13
  18   1     0.10  -0.01  -0.14    -0.03  -0.00  -0.22    -0.01   0.00  -0.01
  19   1     0.05  -0.00  -0.00    -0.01  -0.02   0.09     0.02   0.05  -0.25
  20   1    -0.08   0.09   0.06     0.01   0.02  -0.11    -0.02  -0.09   0.29
  21   1    -0.05  -0.18  -0.07     0.03   0.08  -0.23    -0.05  -0.17   0.68
  22   1     0.04  -0.10   0.00     0.08   0.04   0.61     0.02   0.01   0.24
  23   1    -0.11  -0.00   0.00     0.03   0.03   0.35     0.01   0.01   0.12
                     25                     26                     27
                        a                      a                      a 
 Frequencies --   903.4942               939.8930               977.9332
 Red. masses --     3.3646                 3.5109                 8.4733
 Frc consts  --     0.0000                 0.0000                 0.0000
 IR Inten    --     0.3278                 5.8535                50.2702
 Raman Activ --     0.0000                 0.0000                 0.0000
 Depolar     --     0.0000                 0.0000                 0.0000
 Atom AN      X      Y      Z        X      Y      Z        X      Y      Z
   1   7    -0.01   0.00  -0.01    -0.01   0.02  -0.00    -0.36   0.01  -0.23
   2   6     0.02   0.01   0.00    -0.00  -0.01  -0.00     0.31   0.02   0.28
   3   6     0.00  -0.00  -0.01     0.00  -0.01   0.01     0.16  -0.09   0.00
   4   6    -0.03  -0.01  -0.29    -0.00  -0.02   0.10     0.04   0.14   0.00
   5   6     0.03   0.02   0.35     0.01   0.02  -0.07    -0.23  -0.21   0.03
   6   6     0.00   0.00   0.01    -0.00   0.01   0.02     0.11  -0.06  -0.02
   7   6     0.00  -0.00   0.01     0.02   0.00   0.00     0.01   0.02  -0.00
   8   6     0.00   0.01  -0.03    -0.01   0.00  -0.00    -0.10   0.03   0.00
   9   6    -0.01  -0.01  -0.06     0.01  -0.00   0.26     0.05   0.29  -0.01
  10   6    -0.00  -0.01  -0.01    -0.02  -0.01  -0.38    -0.10  -0.08   0.00
  11  17     0.00  -0.00  -0.00     0.00   0.00  -0.01    -0.00   0.00  -0.00
  12   1    -0.00  -0.00   0.00     0.00   0.01   0.00    -0.22  -0.20  -0.31
  13   1     0.01   0.00   0.02     0.01   0.00   0.02     0.13  -0.04   0.02
  14   1    -0.02  -0.02  -0.01    -0.02  -0.02  -0.01     0.09  -0.07   0.01
  15   1    -0.00  -0.01  -0.01    -0.03   0.01  -0.01     0.13   0.05   0.10
  16   1     0.00   0.00   0.01     0.03  -0.01   0.00     0.18  -0.02   0.05
  17   1     0.04   0.02   0.56    -0.02  -0.01  -0.08     0.09   0.04  -0.02
  18   1    -0.06  -0.03  -0.66     0.00   0.01   0.02    -0.04  -0.09   0.01
  19   1    -0.00   0.00  -0.00     0.01  -0.01  -0.00     0.03  -0.04   0.02
  20   1    -0.00  -0.01   0.04     0.00  -0.01   0.00     0.06  -0.10  -0.01
  21   1    -0.00  -0.01   0.03    -0.00  -0.01   0.01     0.04   0.14   0.03
  22   1     0.00  -0.00   0.00    -0.07  -0.03  -0.45     0.05   0.08  -0.01
  23   1     0.01   0.01   0.16     0.05   0.07   0.74    -0.01  -0.05   0.02
                     28                     29                     30
                        a                      a                      a 
 Frequencies --   996.4824              1005.9845              1019.1208
 Red. masses --     2.0520                 6.0197                 8.3284
 Frc consts  --     0.0000                 0.0000                 0.0000
 IR Inten    --    18.7113                 5.6161                 9.6022
 Raman Activ --     0.0000                 0.0000                 0.0000
 Depolar     --     0.0000                 0.0000                 0.0000
 Atom AN      X      Y      Z        X      Y      Z        X      Y      Z
   1   7     0.00  -0.03  -0.01    -0.12   0.06  -0.12    -0.14  -0.31  -0.26
   2   6     0.00   0.03   0.01     0.14  -0.13   0.15     0.36   0.38   0.27
   3   6     0.01   0.01  -0.01    -0.06  -0.03  -0.02    -0.03   0.08  -0.01
   4   6     0.01   0.04   0.00    -0.05  -0.20   0.02    -0.09  -0.19   0.03
   5   6    -0.02  -0.02   0.02     0.06   0.13  -0.02     0.01   0.10  -0.01
   6   6     0.04  -0.02  -0.03    -0.17   0.03   0.06    -0.02   0.06  -0.01
   7   6    -0.01  -0.05   0.24    -0.20  -0.08  -0.01     0.03   0.00  -0.00
   8   6    -0.02  -0.04   0.14     0.29  -0.06   0.02     0.00  -0.02  -0.01
   9   6     0.00   0.00  -0.01    -0.03   0.02  -0.01    -0.02  -0.18   0.02
  10   6    -0.05  -0.04   0.01     0.25   0.23  -0.02     0.05   0.03  -0.01
  11  17     0.00   0.00   0.00    -0.00  -0.00  -0.00     0.01   0.00   0.00
  12   1     0.02   0.02   0.02    -0.12  -0.12  -0.12     0.10   0.13   0.11
  13   1    -0.03  -0.00  -0.02     0.12  -0.00   0.10    -0.30  -0.05  -0.26
  14   1    -0.01   0.01  -0.00    -0.01  -0.08  -0.03    -0.12   0.07  -0.09
  15   1     0.00  -0.00   0.00     0.00   0.08   0.04     0.16  -0.09   0.07
  16   1    -0.03   0.01   0.00     0.24  -0.07  -0.01    -0.15   0.14   0.12
  17   1     0.02   0.01  -0.00    -0.08  -0.06   0.01    -0.09  -0.05   0.01
  18   1    -0.01   0.00  -0.03    -0.02   0.09   0.00    -0.06   0.13   0.01
  19   1     0.07   0.16  -0.70    -0.19   0.20  -0.04     0.02  -0.03   0.03
  20   1     0.06   0.15  -0.59    -0.18   0.31   0.01     0.00  -0.02   0.02
  21   1     0.01   0.01   0.04    -0.10  -0.36  -0.09     0.00  -0.00  -0.01
  22   1     0.05  -0.00  -0.01    -0.13   0.01   0.02    -0.03  -0.05  -0.01
  23   1    -0.02  -0.00   0.01     0.07   0.07  -0.03    -0.03   0.08  -0.01
                     31                     32                     33
                        a                      a                      a 
 Frequencies --  1038.5300              1043.2919              1150.1065
 Red. masses --     5.4537                 5.4230                 2.8982
 Frc consts  --     0.0000                 0.0000                 0.0000
 IR Inten    --     5.9733                13.9289                 0.1850
 Raman Activ --     0.0000                 0.0000                 0.0000
 Depolar     --     0.0000                 0.0000                 0.0000
 Atom AN      X      Y      Z        X      Y      Z        X      Y      Z
   1   7     0.04   0.05  -0.15    -0.14   0.10   0.19     0.01   0.03   0.01
   2   6     0.02  -0.19   0.25     0.09  -0.06  -0.32    -0.03  -0.07  -0.00
   3   6    -0.10   0.02  -0.11     0.05   0.03   0.17     0.06   0.14  -0.02
   4   6    -0.03  -0.07   0.02    -0.11  -0.22  -0.00     0.08  -0.18  -0.00
   5   6     0.15   0.16  -0.00     0.05   0.13  -0.02    -0.16  -0.03   0.02
   6   6     0.03  -0.01  -0.05     0.01   0.03  -0.02    -0.01   0.17  -0.00
   7   6     0.21   0.05   0.03     0.11   0.02   0.02     0.00   0.01   0.01
   8   6    -0.19   0.01  -0.01    -0.08  -0.01   0.00     0.03  -0.02  -0.01
   9   6    -0.15  -0.21   0.03    -0.12  -0.17   0.00     0.02  -0.16   0.01
  10   6     0.03   0.19   0.03     0.07   0.16  -0.03    -0.13  -0.01   0.02
  11  17    -0.00  -0.00  -0.00    -0.00  -0.00   0.00     0.00  -0.00  -0.00
  12   1    -0.02  -0.05   0.09    -0.13  -0.11  -0.30    -0.02  -0.03  -0.01
  13   1     0.08   0.03   0.17     0.12  -0.03  -0.06     0.03   0.00   0.03
  14   1    -0.18  -0.12  -0.13     0.32   0.06   0.20    -0.00  -0.02  -0.00
  15   1    -0.21   0.20   0.01     0.31  -0.20   0.01    -0.04   0.03  -0.01
  16   1     0.30  -0.11  -0.07    -0.10   0.01   0.05     0.06  -0.03  -0.02
  17   1    -0.08  -0.02  -0.02    -0.16  -0.06   0.04     0.50  -0.05  -0.04
  18   1     0.00   0.10  -0.03    -0.07   0.17   0.01    -0.28   0.37   0.01
  19   1     0.19  -0.16  -0.04     0.10  -0.08  -0.04    -0.01   0.01   0.02
  20   1     0.13  -0.20  -0.06     0.07  -0.09  -0.05    -0.00  -0.01   0.03
  21   1     0.07   0.25   0.07     0.04   0.12   0.03    -0.03  -0.08  -0.03
  22   1    -0.21  -0.06   0.03    -0.17  -0.04   0.05     0.45  -0.04  -0.06
  23   1    -0.07   0.16  -0.07    -0.05   0.16  -0.00    -0.22   0.30  -0.01
                     34                     35                     36
                        a                      a                      a 
 Frequencies --  1192.2111              1207.9311              1220.0469
 Red. masses --     3.8535                 3.7310                 2.9898
 Frc consts  --     0.0000                 0.0000                 0.0000
 IR Inten    --     0.8750                 5.8607                 9.5651
 Raman Activ --     0.0000                 0.0000                 0.0000
 Depolar     --     0.0000                 0.0000                 0.0000
 Atom AN      X      Y      Z        X      Y      Z        X      Y      Z
   1   7     0.01  -0.01   0.01     0.09   0.12  -0.11    -0.07  -0.12   0.17
   2   6    -0.05   0.04   0.01    -0.18  -0.04   0.12     0.05   0.15  -0.08
   3   6     0.10  -0.07  -0.02     0.30  -0.06  -0.02     0.10  -0.15  -0.06
   4   6     0.09   0.14  -0.01    -0.02  -0.03   0.00    -0.00   0.04  -0.00
   5   6     0.02   0.08  -0.01    -0.02  -0.11   0.01    -0.00  -0.03   0.00
   6   6     0.33  -0.22  -0.00     0.15  -0.12   0.00     0.14  -0.13   0.00
   7   6    -0.15  -0.03  -0.03    -0.05  -0.02  -0.01    -0.04  -0.02  -0.01
   8   6    -0.03   0.02   0.00    -0.02   0.01  -0.00    -0.03   0.01  -0.00
   9   6    -0.01  -0.02   0.00     0.06   0.05  -0.01     0.10   0.05  -0.01
  10   6    -0.06  -0.14   0.01    -0.03   0.02   0.00    -0.02   0.05   0.01
  11  17    -0.00   0.00  -0.00    -0.00  -0.00  -0.00     0.00  -0.00   0.00
  12   1     0.01   0.01   0.01    -0.02  -0.05   0.07     0.00   0.01  -0.09
  13   1    -0.01   0.00  -0.00     0.05   0.06   0.14    -0.09  -0.05  -0.16
  14   1    -0.00   0.01   0.00    -0.12  -0.09  -0.10     0.10   0.09   0.10
  15   1    -0.06   0.01  -0.02     0.21   0.11   0.16    -0.52  -0.03  -0.26
  16   1    -0.05   0.01  -0.00    -0.36   0.02  -0.21     0.26   0.02   0.24
  17   1     0.17   0.04  -0.02    -0.49  -0.02   0.04    -0.28   0.01   0.03
  18   1    -0.29   0.51   0.01    -0.07   0.08   0.00     0.01  -0.02   0.00
  19   1    -0.18   0.17   0.05    -0.11   0.13   0.03    -0.11   0.12   0.03
  20   1    -0.04   0.05   0.01    -0.01   0.01   0.01    -0.01   0.01   0.00
  21   1     0.03   0.08   0.02    -0.00   0.02   0.01     0.00   0.03   0.01
  22   1    -0.50  -0.01   0.05     0.15   0.01  -0.02     0.08   0.01  -0.02
  23   1     0.05  -0.16   0.01    -0.19   0.31  -0.01    -0.22   0.37  -0.03
                     37                     38                     39
                        a                      a                      a 
 Frequencies --  1252.6491              1272.0867              1300.2330
 Red. masses --     7.5645                 4.7389                 5.3641
 Frc consts  --     0.0000                 0.0000                 0.0000
 IR Inten    --     4.0395                 8.7423                 1.4230
 Raman Activ --     0.0000                 0.0000                 0.0000
 Depolar     --     0.0000                 0.0000                 0.0000
 Atom AN      X      Y      Z        X      Y      Z        X      Y      Z
   1   7    -0.02  -0.01  -0.03    -0.04   0.01   0.04     0.04  -0.04  -0.04
   2   6     0.15  -0.12  -0.04     0.04  -0.00   0.03    -0.16   0.09  -0.02
   3   6    -0.42   0.24   0.06     0.20   0.05  -0.05     0.02  -0.25   0.02
   4   6    -0.08   0.18   0.00     0.16  -0.08  -0.01     0.05  -0.06  -0.00
   5   6     0.24   0.05  -0.03    -0.04  -0.03   0.01    -0.10   0.16   0.00
   6   6     0.19  -0.30   0.01    -0.34  -0.09   0.03    -0.20   0.08   0.03
   7   6     0.01  -0.01  -0.01     0.24   0.05   0.02     0.32   0.02   0.04
   8   6    -0.10  -0.01  -0.01    -0.09  -0.08  -0.03    -0.16  -0.21  -0.06
   9   6     0.07  -0.16   0.00    -0.17   0.07   0.01     0.07   0.09  -0.01
  10   6    -0.19   0.09   0.01     0.08   0.11  -0.01     0.09   0.02  -0.01
  11  17     0.00   0.00  -0.00    -0.00   0.00   0.00     0.00  -0.00  -0.00
  12   1    -0.00   0.00  -0.00    -0.00   0.01  -0.03     0.02   0.01   0.04
  13   1     0.03  -0.01   0.00     0.01  -0.01  -0.02    -0.04   0.01   0.03
  14   1     0.02  -0.01   0.00     0.03   0.02   0.03    -0.02   0.02  -0.02
  15   1     0.20  -0.06   0.05    -0.25   0.04  -0.09     0.17  -0.02   0.08
  16   1     0.17  -0.05   0.02    -0.08   0.01  -0.03     0.06   0.01   0.06
  17   1    -0.10   0.06   0.01    -0.26  -0.03   0.02     0.24  -0.02  -0.02
  18   1     0.06   0.04  -0.00    -0.19   0.29   0.00     0.09  -0.15   0.00
  19   1    -0.24   0.32   0.07    -0.04   0.15   0.03    -0.28   0.51   0.09
  20   1     0.01  -0.05  -0.00     0.09  -0.16  -0.04     0.10  -0.23  -0.07
  21   1     0.00   0.05   0.02    -0.01  -0.02   0.00     0.02   0.03   0.02
  22   1     0.35  -0.05  -0.04     0.28   0.03  -0.03    -0.16   0.03   0.03
  23   1     0.02  -0.10   0.02     0.29  -0.40   0.00    -0.06   0.15  -0.00
                     40                     41                     42
                        a                      a                      a 
 Frequencies --  1321.8256              1344.4442              1375.5676
 Red. masses --     4.8421                10.6116                 2.9703
 Frc consts  --     0.0000                 0.0000                 0.0000
 IR Inten    --    22.9895                 2.7417               134.3770
 Raman Activ --     0.0000                 0.0000                 0.0000
 Depolar     --     0.0000                 0.0000                 0.0000
 Atom AN      X      Y      Z        X      Y      Z        X      Y      Z
   1   7    -0.01   0.15   0.10    -0.03  -0.06  -0.04     0.25   0.16   0.13
   2   6     0.38  -0.14   0.09    -0.13   0.02  -0.03    -0.08   0.05  -0.02
   3   6    -0.07   0.16  -0.03     0.21   0.28  -0.02    -0.01  -0.03   0.02
   4   6    -0.17  -0.05   0.02    -0.36   0.03   0.03    -0.05   0.06   0.00
   5   6     0.03  -0.01  -0.00     0.22  -0.33  -0.01     0.09  -0.05  -0.01
   6   6     0.11   0.17  -0.01     0.17   0.31  -0.02    -0.05  -0.04   0.01
   7   6     0.05  -0.00   0.01     0.02   0.00   0.01     0.02  -0.01  -0.00
   8   6    -0.04  -0.08  -0.02    -0.01  -0.05  -0.01    -0.00   0.01   0.00
   9   6    -0.03  -0.06   0.01    -0.40   0.03   0.04    -0.09   0.06   0.01
  10   6     0.01  -0.11   0.00     0.23  -0.31  -0.01     0.09  -0.04  -0.01
  11  17    -0.00   0.00   0.00    -0.00  -0.00  -0.00     0.01   0.00   0.00
  12   1    -0.09  -0.10  -0.10     0.05   0.07   0.03    -0.28  -0.47  -0.06
  13   1     0.04   0.01  -0.10     0.03  -0.01   0.07    -0.48   0.10  -0.37
  14   1    -0.01  -0.14   0.00     0.03   0.08   0.02    -0.18  -0.29  -0.10
  15   1    -0.36   0.03  -0.16     0.05   0.02   0.03     0.09  -0.07   0.02
  16   1    -0.49   0.03  -0.25     0.24  -0.03   0.09     0.13  -0.01   0.01
  17   1     0.14  -0.01  -0.02    -0.05   0.01   0.00     0.02   0.02   0.01
  18   1     0.11  -0.17  -0.00    -0.00   0.02   0.00    -0.02   0.07   0.01
  19   1    -0.14   0.21   0.04    -0.10   0.15   0.03     0.02  -0.03  -0.00
  20   1     0.02  -0.05  -0.02     0.02  -0.05  -0.01    -0.01   0.02  -0.00
  21   1     0.01   0.01  -0.00    -0.00  -0.02  -0.01     0.01   0.02   0.01
  22   1    -0.10  -0.02   0.01     0.00   0.01   0.00     0.04   0.02  -0.01
  23   1    -0.04   0.03  -0.00     0.02  -0.00  -0.01     0.03  -0.00   0.00
                     43                     44                     45
                        a                      a                      a 
 Frequencies --  1402.3727              1409.8293              1414.3579
 Red. masses --     2.7343                 1.7359                 8.7320
 Frc consts  --     0.0000                 0.0000                 0.0000
 IR Inten    --     4.5753                67.9681                10.1318
 Raman Activ --     0.0000                 0.0000                 0.0000
 Depolar     --     0.0000                 0.0000                 0.0000
 Atom AN      X      Y      Z        X      Y      Z        X      Y      Z
   1   7    -0.00   0.02   0.03     0.10  -0.07  -0.14    -0.02  -0.02  -0.02
   2   6    -0.02  -0.01  -0.00     0.08  -0.04  -0.02     0.10   0.04   0.01
   3   6    -0.02   0.05   0.00    -0.01   0.05  -0.00    -0.17  -0.32   0.03
   4   6     0.07   0.00  -0.01     0.02  -0.02   0.00    -0.23   0.22   0.01
   5   6    -0.03  -0.05   0.00    -0.03   0.01   0.00     0.30  -0.01  -0.03
   6   6     0.13   0.02  -0.02     0.06   0.02  -0.01    -0.17  -0.34   0.02
   7   6    -0.15   0.27   0.06    -0.04   0.05   0.01     0.00   0.05  -0.00
   8   6     0.02   0.08   0.02     0.00   0.01   0.00    -0.01   0.10   0.03
   9   6     0.09  -0.04  -0.01     0.04  -0.04  -0.00    -0.20   0.24   0.01
  10   6    -0.09  -0.01   0.01    -0.06   0.02  -0.00     0.31  -0.06  -0.02
  11  17    -0.00   0.00   0.00     0.01  -0.00  -0.01    -0.00  -0.00  -0.00
  12   1     0.01   0.02  -0.00    -0.17  -0.30   0.04     0.03   0.06  -0.02
  13   1     0.05  -0.03  -0.13    -0.46   0.18   0.51     0.05  -0.00   0.10
  14   1    -0.03  -0.12  -0.02     0.16   0.48   0.10     0.01   0.09   0.01
  15   1     0.02  -0.01   0.01    -0.07   0.02  -0.04    -0.02  -0.02  -0.02
  16   1     0.06  -0.01   0.01    -0.05   0.00  -0.01    -0.21   0.04  -0.05
  17   1    -0.08   0.00   0.01    -0.01  -0.01  -0.01     0.22   0.07  -0.03
  18   1    -0.01  -0.01   0.00     0.01  -0.03  -0.01    -0.02   0.17  -0.01
  19   1     0.03  -0.02   0.00    -0.00   0.00   0.00     0.09  -0.12  -0.02
  20   1     0.37  -0.46  -0.11     0.06  -0.08  -0.01     0.09  -0.10  -0.02
  21   1    -0.25  -0.56  -0.18    -0.05  -0.10  -0.03    -0.07  -0.12  -0.03
  22   1    -0.14  -0.01   0.03    -0.03  -0.01   0.01     0.14   0.07  -0.01
  23   1    -0.02  -0.01  -0.00     0.01  -0.03   0.02    -0.05   0.22  -0.01
                     46                     47                     48
                        a                      a                      a 
 Frequencies --  1450.4321              1474.7519              1490.3134
 Red. masses --     1.9647                 1.9260                 9.5367
 Frc consts  --     0.0000                 0.0000                 0.0000
 IR Inten    --    76.2473                18.4300                 3.0480
 Raman Activ --     0.0000                 0.0000                 0.0000
 Depolar     --     0.0000                 0.0000                 0.0000
 Atom AN      X      Y      Z        X      Y      Z        X      Y      Z
   1   7    -0.13   0.10  -0.20    -0.03   0.02  -0.03     0.01  -0.01   0.01
   2   6     0.03  -0.00  -0.05    -0.07   0.20   0.18     0.09  -0.05  -0.01
   3   6    -0.02  -0.01  -0.00     0.03  -0.01   0.00    -0.36   0.20   0.03
   4   6     0.01   0.01  -0.00     0.00   0.00   0.00     0.27   0.13  -0.03
   5   6     0.01  -0.01  -0.00    -0.01   0.00   0.00     0.10  -0.33   0.01
   6   6    -0.04  -0.01   0.00     0.01  -0.00  -0.00    -0.38   0.19   0.02
   7   6     0.01  -0.00  -0.00    -0.00  -0.00  -0.00     0.10  -0.01   0.01
   8   6    -0.00   0.00   0.00     0.00   0.00   0.00    -0.00  -0.06  -0.01
   9   6     0.00   0.03  -0.00    -0.01   0.00   0.00     0.30   0.11  -0.03
  10   6     0.03  -0.03   0.00    -0.00   0.00  -0.00     0.05  -0.30   0.01
  11  17    -0.00   0.00  -0.00    -0.00  -0.00  -0.00     0.00  -0.00  -0.00
  12   1    -0.07  -0.13   0.65     0.00   0.01   0.12     0.00   0.00  -0.04
  13   1    -0.01   0.01  -0.05     0.03   0.01   0.05     0.01   0.00   0.03
  14   1     0.54  -0.36   0.19     0.12  -0.02   0.05    -0.02   0.04  -0.00
  15   1    -0.03   0.10  -0.01    -0.05  -0.65  -0.11     0.03  -0.03  -0.00
  16   1    -0.04   0.03   0.13     0.23  -0.09  -0.63     0.02  -0.01  -0.02
  17   1     0.00   0.00   0.00    -0.02   0.00  -0.00    -0.22   0.04   0.02
  18   1    -0.01   0.02  -0.00    -0.00  -0.00  -0.00    -0.15   0.20   0.00
  19   1     0.01  -0.01  -0.00    -0.00   0.00  -0.00     0.03  -0.00  -0.01
  20   1    -0.00   0.00  -0.00    -0.00   0.00   0.00    -0.02   0.02  -0.01
  21   1     0.00   0.00   0.00     0.00   0.00   0.00     0.03   0.04   0.02
  22   1    -0.01   0.01   0.00     0.00   0.00   0.00    -0.22   0.03   0.03
  23   1    -0.01   0.03  -0.00    -0.01   0.01   0.00    -0.15   0.17   0.00
                     49                     50                     51
                        a                      a                      a 
 Frequencies --  1577.4872              1600.0847              1673.7027
 Red. masses --    11.5779                11.5156                11.2078
 Frc consts  --     0.0000                 0.0000                 0.0000
 IR Inten    --     0.6186                 8.5705                 0.0959
 Raman Activ --     0.0000                 0.0000                 0.0000
 Depolar     --     0.0000                 0.0000                 0.0000
 Atom AN      X      Y      Z        X      Y      Z        X      Y      Z
   1   7     0.00  -0.00  -0.00    -0.01  -0.00  -0.01    -0.00   0.00  -0.00
   2   6     0.03   0.04  -0.00    -0.02   0.02   0.01    -0.01   0.00   0.00
   3   6    -0.28  -0.47   0.05     0.23  -0.16  -0.02     0.05   0.00  -0.01
   4   6     0.28   0.19  -0.03    -0.43   0.10   0.03    -0.10   0.01   0.01
   5   6    -0.01  -0.31   0.01     0.31  -0.32  -0.01     0.07  -0.03  -0.01
   6   6     0.25   0.41  -0.04    -0.21   0.15   0.01    -0.00  -0.10  -0.01
   7   6    -0.04   0.04   0.02     0.05  -0.09  -0.02    -0.17   0.66   0.15
   8   6     0.02  -0.08  -0.02    -0.01   0.07   0.02     0.08  -0.61  -0.16
   9   6    -0.28  -0.16   0.03     0.40  -0.12  -0.03     0.07   0.01  -0.00
  10   6     0.04   0.31  -0.02    -0.31   0.35   0.01    -0.04   0.03   0.00
  11  17    -0.00   0.00   0.00    -0.00   0.00  -0.00    -0.00   0.00  -0.00
  12   1     0.01   0.01   0.01    -0.00  -0.00   0.01     0.00   0.00   0.00
  13   1     0.00  -0.00  -0.00    -0.00  -0.00  -0.01     0.00  -0.00  -0.00
  14   1     0.00  -0.00   0.00     0.00  -0.01   0.00     0.00  -0.00   0.00
  15   1     0.02  -0.02   0.00    -0.02   0.01  -0.01    -0.00   0.00  -0.00
  16   1    -0.08   0.02  -0.00    -0.01   0.00   0.00     0.00  -0.00   0.00
  17   1    -0.07   0.05   0.00     0.10   0.03  -0.01     0.02   0.00  -0.00
  18   1    -0.07   0.04   0.00    -0.02   0.10  -0.00     0.00   0.02  -0.00
  19   1    -0.03   0.05   0.01    -0.01   0.01  -0.01     0.12  -0.03   0.01
  20   1    -0.03   0.02   0.01     0.02  -0.01  -0.01    -0.17   0.05   0.01
  21   1     0.02   0.01  -0.00    -0.02  -0.01  -0.00     0.14   0.06   0.03
  22   1     0.08  -0.04  -0.01    -0.09  -0.03   0.01     0.01   0.00  -0.01
  23   1     0.07  -0.01  -0.01     0.04  -0.11   0.00    -0.00  -0.01   0.00
                     52                     53                     54
                        a                      a                      a 
 Frequencies --  2900.0228              2950.8727              2977.8369
 Red. masses --     1.9796                 1.9730                 1.5057
 Frc consts  --     0.0000                 0.0000                 0.0000
 IR Inten    --  1330.7352                 7.1573                 7.0735
 Raman Activ --     0.0000                 0.0000                 0.0000
 Depolar     --     0.0000                 0.0000                 0.0000
 Atom AN      X      Y      Z        X      Y      Z        X      Y      Z
   1   7     0.05   0.26  -0.05    -0.01  -0.04   0.01     0.01   0.03  -0.01
   2   6    -0.01  -0.04   0.02    -0.10  -0.20   0.19    -0.04   0.15   0.14
   3   6     0.00  -0.00   0.00    -0.01  -0.01   0.00    -0.01   0.01   0.00
   4   6     0.00   0.00  -0.00     0.00   0.00   0.00     0.00  -0.00   0.00
   5   6    -0.00   0.00   0.00     0.00  -0.00  -0.00     0.00   0.00  -0.00
   6   6    -0.00  -0.00  -0.00     0.00   0.00   0.00     0.00  -0.00   0.00
   7   6    -0.00   0.00   0.00     0.00   0.00   0.00    -0.00   0.00   0.00
   8   6    -0.00  -0.00  -0.00     0.00   0.00  -0.00     0.00  -0.00   0.00
   9   6     0.00   0.00  -0.00    -0.00  -0.00  -0.00     0.00  -0.00   0.00
  10   6    -0.01  -0.01   0.00     0.00   0.00  -0.00    -0.00  -0.00  -0.00
  11  17    -0.00  -0.01   0.00     0.00   0.00  -0.00    -0.00  -0.00   0.00
  12   1     0.03  -0.00  -0.01    -0.00   0.00   0.00     0.00   0.00   0.00
  13   1    -0.22  -0.91   0.13     0.03   0.12  -0.02    -0.02  -0.08   0.01
  14   1    -0.01   0.01   0.03    -0.00  -0.00   0.01    -0.01  -0.00   0.03
  15   1     0.01  -0.00  -0.03     0.27   0.08  -0.63     0.26   0.13  -0.61
  16   1     0.02   0.15  -0.02     0.10   0.64  -0.05    -0.13  -0.68   0.10
  17   1     0.00  -0.00   0.00     0.00  -0.01   0.00    -0.00   0.01  -0.00
  18   1     0.00   0.00   0.00    -0.00  -0.00   0.00    -0.00  -0.00   0.00
  19   1     0.00   0.00   0.00    -0.00  -0.00  -0.00    -0.00  -0.00   0.00
  20   1    -0.00   0.00  -0.00    -0.00  -0.00  -0.00    -0.00  -0.00  -0.00
  21   1     0.00  -0.00  -0.00    -0.00   0.00  -0.00    -0.00   0.00   0.00
  22   1    -0.00  -0.00   0.00     0.00   0.00  -0.00    -0.00   0.00  -0.00
  23   1     0.03   0.02  -0.01    -0.01  -0.00   0.00     0.00   0.00  -0.00
                     55                     56                     57
                        a                      a                      a 
 Frequencies --  3086.3551              3091.1403              3095.9963
 Red. masses --     1.8761                 1.8078                 1.7812
 Frc consts  --     0.0000                 0.0000                 0.0000
 IR Inten    --   279.5567                 6.6813                28.4306
 Raman Activ --     0.0000                 0.0000                 0.0000
 Depolar     --     0.0000                 0.0000                 0.0000
 Atom AN      X      Y      Z        X      Y      Z        X      Y      Z
   1   7    -0.00  -0.01   0.00    -0.00  -0.00   0.00    -0.00   0.00   0.00
   2   6    -0.00  -0.00   0.00    -0.00  -0.00   0.00     0.00  -0.00  -0.00
   3   6    -0.01   0.01   0.00    -0.00  -0.00   0.00     0.01  -0.01  -0.00
   4   6     0.00   0.02  -0.00     0.00  -0.02   0.00     0.00  -0.23   0.01
   5   6     0.00   0.00  -0.00     0.04   0.02  -0.00     0.10   0.06  -0.01
   6   6     0.00   0.00  -0.00    -0.00  -0.01  -0.00     0.01   0.00  -0.00
   7   6     0.03   0.02   0.01    -0.20  -0.15  -0.05     0.04   0.03   0.01
   8   6    -0.00  -0.00  -0.00     0.03   0.00   0.00    -0.01  -0.00  -0.00
   9   6     0.00   0.02  -0.00     0.00   0.01  -0.00    -0.00   0.00  -0.00
  10   6    -0.23  -0.14   0.03    -0.04  -0.02   0.00    -0.01  -0.00   0.00
  11  17     0.00  -0.00   0.00    -0.00  -0.00   0.00    -0.00  -0.00  -0.00
  12   1     0.00   0.00   0.00    -0.00   0.00   0.00    -0.00  -0.00  -0.00
  13   1     0.01   0.03  -0.00     0.00   0.01  -0.00     0.00   0.00   0.00
  14   1     0.01   0.00  -0.01     0.00  -0.00  -0.00     0.00  -0.00  -0.00
  15   1     0.00   0.00  -0.00     0.00  -0.00  -0.00    -0.00  -0.00   0.00
  16   1     0.00   0.00  -0.00     0.00   0.00  -0.00    -0.00   0.01  -0.00
  17   1     0.00  -0.08   0.00    -0.00   0.09  -0.00    -0.01   0.84  -0.04
  18   1    -0.00  -0.00   0.00    -0.15  -0.09   0.02    -0.37  -0.23   0.04
  19   1    -0.12  -0.08  -0.03     0.75   0.51   0.18    -0.14  -0.09  -0.03
  20   1     0.01   0.01   0.00    -0.04  -0.04  -0.01     0.01   0.01   0.00
  21   1     0.01  -0.00  -0.00    -0.09   0.04   0.01     0.01  -0.01  -0.00
  22   1     0.00  -0.10   0.01     0.00  -0.03   0.00     0.00  -0.01   0.00
  23   1     0.80   0.49  -0.09     0.12   0.08  -0.01     0.04   0.02  -0.00
                     58                     59                     60
                        a                      a                      a 
 Frequencies --  3110.5423              3121.7871              3140.0390
 Red. masses --     1.8678                 1.8437                 1.5619
 Frc consts  --     0.0000                 0.0000                 0.0000
 IR Inten    --    41.2393                 5.6453                14.9274
 Raman Activ --     0.0000                 0.0000                 0.0000
 Depolar     --     0.0000                 0.0000                 0.0000
 Atom AN      X      Y      Z        X      Y      Z        X      Y      Z
   1   7     0.00   0.00  -0.00     0.00  -0.00   0.00     0.00  -0.00   0.00
   2   6     0.00   0.00  -0.00    -0.00   0.00   0.00     0.00   0.00   0.00
   3   6    -0.01   0.00   0.00    -0.00  -0.00   0.00    -0.00  -0.00   0.00
   4   6    -0.00   0.14  -0.01    -0.00   0.00  -0.00     0.00  -0.00  -0.00
   5   6     0.21   0.12  -0.02    -0.00  -0.00   0.00     0.00   0.00   0.00
   6   6     0.01  -0.00  -0.00    -0.01   0.01   0.00     0.00  -0.00  -0.00
   7   6     0.02   0.02   0.01     0.00   0.00   0.00    -0.01  -0.02  -0.01
   8   6    -0.01  -0.00  -0.00    -0.01  -0.01  -0.00    -0.11   0.19   0.04
   9   6    -0.00   0.00   0.00    -0.00   0.27  -0.02    -0.00   0.01  -0.00
  10   6     0.02   0.01  -0.00     0.03   0.02  -0.00    -0.00  -0.00   0.00
  11  17     0.00   0.00   0.00    -0.00  -0.00  -0.00    -0.00  -0.00   0.00
  12   1     0.00  -0.00  -0.00    -0.00   0.00   0.00    -0.00   0.00   0.00
  13   1    -0.00  -0.00   0.00    -0.00   0.00  -0.00     0.00   0.00  -0.00
  14   1    -0.00   0.00   0.01     0.00   0.00  -0.00     0.00   0.00  -0.00
  15   1    -0.00  -0.00   0.00     0.00   0.00  -0.00     0.00   0.00  -0.00
  16   1     0.00  -0.01   0.00    -0.00  -0.00   0.00    -0.00   0.00  -0.00
  17   1     0.01  -0.45   0.02    -0.00  -0.01   0.00    -0.00   0.00  -0.00
  18   1    -0.71  -0.43   0.09     0.01   0.01  -0.00    -0.00  -0.00   0.00
  19   1    -0.08  -0.05  -0.02    -0.00  -0.00  -0.00     0.04   0.03   0.01
  20   1     0.02   0.01   0.00     0.05   0.04   0.02    -0.40  -0.26  -0.10
  21   1     0.02  -0.01  -0.00    -0.02   0.01  -0.00     0.77  -0.34  -0.03
  22   1     0.00   0.00  -0.00     0.01  -0.95   0.05     0.00  -0.05   0.00
  23   1    -0.05  -0.03   0.01    -0.08  -0.05   0.01     0.01   0.00  -0.00
                     61                     62                     63
                        a                      a                      a 
 Frequencies --  3172.4252              3178.7929              3188.9836
 Red. masses --     2.0625                 1.9328                 1.5887
 Frc consts  --     0.0000                 0.0000                 0.0000
 IR Inten    --    35.8789                38.5233                21.3036
 Raman Activ --     0.0000                 0.0000                 0.0000
 Depolar     --     0.0000                 0.0000                 0.0000
 Atom AN      X      Y      Z        X      Y      Z        X      Y      Z
   1   7     0.00   0.00  -0.00    -0.16   0.03   0.21     0.17  -0.12   0.06
   2   6     0.00   0.00  -0.00    -0.00   0.00   0.01     0.00  -0.00   0.00
   3   6    -0.00  -0.00   0.00     0.00  -0.00  -0.00     0.00   0.00   0.00
   4   6     0.00   0.00  -0.00    -0.00   0.00  -0.00    -0.00   0.00   0.00
   5   6     0.00   0.00  -0.00     0.00   0.00   0.00     0.00   0.00  -0.00
   6   6    -0.00   0.00  -0.00    -0.00  -0.00   0.00     0.00   0.00   0.00
   7   6     0.03   0.02   0.01     0.00   0.00   0.00     0.00   0.00   0.00
   8   6     0.29   0.08   0.05     0.00   0.00   0.00     0.00  -0.00   0.00
   9   6    -0.00   0.01  -0.00    -0.00  -0.00   0.00    -0.00  -0.00   0.00
  10   6     0.00   0.00  -0.00     0.00   0.00  -0.00     0.00   0.00  -0.00
  11  17     0.00  -0.00  -0.00     0.00   0.00  -0.00     0.00   0.00  -0.00
  12   1     0.00  -0.00  -0.00     0.24  -0.17   0.01    -0.78   0.49   0.05
  13   1    -0.00   0.00  -0.00    -0.02  -0.03   0.02     0.00  -0.07   0.01
  14   1    -0.00  -0.00   0.00     0.37   0.08  -0.83     0.14   0.01  -0.28
  15   1    -0.00   0.00   0.00     0.01   0.01  -0.02     0.00   0.00  -0.01
  16   1     0.00  -0.00   0.00    -0.00  -0.01   0.00    -0.00  -0.00  -0.00
  17   1     0.00  -0.00   0.00     0.00  -0.00   0.00     0.00  -0.00   0.00
  18   1    -0.01  -0.01   0.00    -0.00  -0.00   0.00    -0.00  -0.00   0.00
  19   1    -0.09  -0.06  -0.02    -0.00  -0.00  -0.00    -0.00  -0.00  -0.00
  20   1    -0.64  -0.49  -0.19    -0.00  -0.00  -0.00    -0.00  -0.00  -0.00
  21   1    -0.40   0.21   0.03    -0.00   0.00   0.00    -0.00   0.00   0.00
  22   1    -0.00  -0.05   0.00    -0.00   0.00  -0.00    -0.00   0.00  -0.00
  23   1    -0.00  -0.00   0.00    -0.01  -0.01   0.00    -0.00  -0.00  -0.00
