 Entering Gaussian System
 *********************************************
 Gaussian 98:
 frequency output generated by the xtb code
 *********************************************
                         Standard orientation:
 --------------------------------------------------------------------
  Center     Atomic     Atomic              Coordinates (Angstroms)
  Number     Number      Type              X           Y           Z
 --------------------------------------------------------------------
    1          7             0       -3.280962    0.072596   -0.626679
    2          6             0       -2.151613    0.538509   -1.476034
    3          6             0       -0.814962    0.209063   -0.887338
    4          6             0       -0.484495    0.650863    0.405931
    5          6             0        0.729085    0.365868    0.961187
    6          6             0        0.103482   -0.523323   -1.595530
    7          6             0        1.369472   -0.837579   -1.052893
    8          6             0        1.688959   -0.384418    0.247945
    9          6             0        2.955269   -0.698474    0.790731
   10          6             0        3.858073   -1.427620    0.072089
   11          6             0        3.542116   -1.876251   -1.215959
   12          6             0        2.327426   -1.590115   -1.768996
   13         17             0       -3.116842    1.966701    2.323148
   14          1             0       -4.199623    0.240530   -1.069436
   15          1             0       -3.280326    0.562158    0.287960
   16          1             0       -3.201717   -0.938094   -0.435047
   17          1             0       -2.221597    1.621739   -1.629795
   18          1             0       -2.233928    0.091587   -2.473693
   19          1             0       -1.213650    1.213428    0.965672
   20          1             0        0.967701    0.709208    1.954426
   21          1             0       -0.139264   -0.868094   -2.586468
   22          1             0        3.198425   -0.353354    1.782180
   23          1             0        4.821883   -1.661325    0.496516
   24          1             0        4.265401   -2.451526   -1.772401
   25          1             0        2.084620   -1.935676   -2.760514
 --------------------------------------------------------------------
     1 basis functions        1 primitive gaussians
     1 alpha electrons        1 beta electrons

 Harmonic frequencies (cm**-1), IR intensities (km*mol⁻¹),
 Raman scattering activities (A**4/amu), Raman depolarization ratios,
 reduced masses (AMU), force constants (mDyne/A) and normal coordinates:
                      1                      2                      3
                        a                      a                      a 
 Frequencies --  -134.5407                51.3454                76.2751
 Red. masses --    20.1153                15.0497                21.5512
 Frc consts  --     0.0000                 0.0000                 0.0000
 IR Inten    --   136.1032                 2.0608                23.1921
 Raman Activ --     0.0000                 0.0000                 0.0000
 Depolar     --     0.0000                 0.0000                 0.0000
 Atom AN      X      Y      Z        X      Y      Z        X      Y      Z
   1   7     0.04   0.38   0.50    -0.06   0.11   0.06    -0.01  -0.01   0.09
   2   6    -0.05  -0.01   0.17    -0.02  -0.19  -0.04    -0.12  -0.16  -0.14
   3   6     0.00   0.00   0.07    -0.04  -0.19   0.01    -0.07   0.00  -0.16
   4   6     0.05   0.00   0.05    -0.13  -0.34   0.08    -0.15   0.04  -0.15
   5   6     0.05  -0.01   0.03    -0.14  -0.35   0.10    -0.18   0.07  -0.07
   6   6    -0.01   0.02   0.03     0.05  -0.03  -0.05     0.01   0.08  -0.13
   7   6     0.00   0.02  -0.00     0.05  -0.00  -0.04    -0.01   0.11  -0.04
   8   6     0.03  -0.01   0.00    -0.05  -0.17   0.05    -0.14   0.06   0.00
   9   6     0.03  -0.04  -0.01    -0.04  -0.14   0.05    -0.22  -0.01   0.15
  10   6     0.01  -0.03  -0.03     0.07   0.08  -0.03    -0.17  -0.03   0.23
  11   6    -0.00   0.01  -0.04     0.17   0.26  -0.12    -0.02   0.07   0.16
  12   6    -0.00   0.03  -0.02     0.16   0.21  -0.12     0.06   0.14   0.02
  13  17    -0.09  -0.28  -0.55    -0.02   0.44   0.03     0.64  -0.20   0.00
  14   1     0.00   0.08   0.15    -0.01   0.02   0.00    -0.02   0.01   0.07
  15   1     0.04   0.19   0.11    -0.01   0.10  -0.02     0.06   0.02   0.02
  16   1    -0.01   0.12   0.22    -0.04   0.04   0.09    -0.01   0.00   0.04
  17   1     0.02  -0.01  -0.03     0.03  -0.06  -0.08    -0.05  -0.06  -0.11
  18   1    -0.07  -0.07   0.08    -0.02  -0.11   0.01    -0.06  -0.11  -0.01
  19   1     0.02   0.00   0.02    -0.04  -0.12   0.03    -0.05   0.01  -0.05
  20   1     0.02  -0.01   0.01    -0.06  -0.13   0.05    -0.07   0.02  -0.02
  21   1    -0.01   0.01   0.01     0.04   0.03  -0.03     0.02   0.02  -0.04
  22   1     0.01  -0.02  -0.00    -0.03  -0.08   0.03    -0.09  -0.02   0.06
  23   1     0.00  -0.02  -0.01     0.02   0.04  -0.01    -0.07  -0.03   0.10
  24   1    -0.00   0.00  -0.02     0.08   0.13  -0.05     0.01   0.02   0.06
  25   1    -0.00   0.02  -0.01     0.07   0.10  -0.05     0.05   0.06  -0.01
                      4                      5                      6
                        a                      a                      a 
 Frequencies --    93.1821               114.7964               157.3603
 Red. masses --    15.1070                16.8588                 9.8672
 Frc consts  --     0.0000                 0.0000                 0.0000
 IR Inten    --    21.1404                16.9754                 3.0433
 Raman Activ --     0.0000                 0.0000                 0.0000
 Depolar     --     0.0000                 0.0000                 0.0000
 Atom AN      X      Y      Z        X      Y      Z        X      Y      Z
   1   7    -0.12   0.24  -0.25    -0.00   0.47   0.04     0.08  -0.05   0.04
   2   6     0.05   0.19  -0.03     0.03  -0.09  -0.20     0.01   0.05   0.00
   3   6    -0.07  -0.07   0.08     0.02  -0.11  -0.17     0.02   0.04  -0.04
   4   6    -0.09  -0.11   0.10     0.00   0.00  -0.21     0.17   0.38  -0.19
   5   6    -0.10  -0.13   0.11    -0.00   0.07  -0.17     0.04   0.11  -0.06
   6   6    -0.13  -0.20   0.14     0.04  -0.18  -0.09    -0.13  -0.29   0.11
   7   6    -0.12  -0.18   0.13     0.04  -0.11  -0.05    -0.10  -0.22   0.09
   8   6    -0.07  -0.07   0.08     0.02   0.03  -0.09    -0.11  -0.22   0.09
   9   6     0.04   0.18  -0.03     0.02   0.13  -0.03    -0.15  -0.30   0.14
  10   6     0.11   0.33  -0.10     0.05   0.08   0.07     0.00   0.02  -0.01
  11   6     0.02   0.13  -0.01     0.08  -0.07   0.11     0.15   0.33  -0.15
  12   6    -0.11  -0.15   0.12     0.08  -0.17   0.06     0.03   0.06  -0.04
  13  17     0.37  -0.19  -0.16    -0.25  -0.09   0.45    -0.05  -0.00   0.02
  14   1    -0.02   0.15  -0.06    -0.00   0.20   0.04     0.01  -0.02   0.03
  15   1    -0.01  -0.01  -0.03     0.07   0.14   0.01     0.02  -0.02   0.02
  16   1    -0.10   0.04  -0.14    -0.09   0.12   0.04     0.04  -0.01  -0.00
  17   1     0.06   0.07   0.04     0.07  -0.04  -0.17    -0.01   0.02   0.02
  18   1     0.03   0.11  -0.03    -0.04  -0.12  -0.01    -0.00   0.03  -0.00
  19   1    -0.02  -0.03   0.03     0.00   0.01  -0.07     0.09   0.21  -0.11
  20   1    -0.03  -0.04   0.03    -0.01   0.04  -0.06     0.03   0.07  -0.04
  21   1    -0.04  -0.06   0.04     0.02  -0.08  -0.02    -0.06  -0.15   0.06
  22   1     0.03   0.09  -0.02    -0.01   0.07  -0.02    -0.07  -0.14   0.07
  23   1     0.06   0.17  -0.06     0.02   0.04   0.03     0.01   0.03  -0.01
  24   1     0.01   0.06  -0.01     0.03  -0.03   0.05     0.09   0.21  -0.09
  25   1    -0.05  -0.08   0.05     0.03  -0.08   0.03     0.03   0.05  -0.03
                      7                      8                      9
                        a                      a                      a 
 Frequencies --   190.2489               246.1950               301.6843
 Red. masses --    10.0994                 7.7551                 4.4710
 Frc consts  --     0.0000                 0.0000                 0.0000
 IR Inten    --    15.9957                 1.1483                 0.3742
 Raman Activ --     0.0000                 0.0000                 0.0000
 Depolar     --     0.0000                 0.0000                 0.0000
 Atom AN      X      Y      Z        X      Y      Z        X      Y      Z
   1   7    -0.38   0.14  -0.27     0.14   0.03  -0.10    -0.07  -0.08   0.07
   2   6    -0.02  -0.25  -0.01     0.09  -0.28  -0.29    -0.08  -0.16  -0.00
   3   6    -0.09  -0.17   0.23     0.06   0.21   0.02     0.02   0.10  -0.04
   4   6     0.06   0.06   0.11     0.00   0.15   0.06     0.05   0.08  -0.04
   5   6     0.18   0.24  -0.01    -0.06  -0.01   0.15     0.00  -0.03   0.03
   6   6    -0.04  -0.09   0.20     0.07   0.17   0.11     0.13   0.26  -0.07
   7   6     0.06   0.12   0.06    -0.04   0.03   0.18     0.03   0.05   0.04
   8   6     0.14   0.15   0.02    -0.03  -0.04   0.19    -0.01  -0.12   0.10
   9   6     0.10  -0.08   0.01     0.05  -0.07   0.01     0.01  -0.15   0.06
  10   6    -0.04  -0.25   0.01     0.01   0.09  -0.21     0.10   0.12  -0.11
  11   6    -0.01   0.02  -0.09    -0.14  -0.02  -0.14     0.00  -0.01  -0.03
  12   6     0.04   0.22  -0.08    -0.23  -0.08   0.07    -0.07  -0.12   0.08
  13  17     0.05  -0.06  -0.04     0.02  -0.06   0.05    -0.05   0.05  -0.05
  14   1    -0.06   0.16  -0.11     0.04  -0.18  -0.10    -0.04   0.41   0.23
  15   1    -0.08   0.01  -0.06    -0.04   0.19  -0.12     0.27  -0.31   0.17
  16   1    -0.24   0.02  -0.10     0.13   0.06   0.19    -0.30  -0.11  -0.34
  17   1     0.04  -0.08  -0.09    -0.03  -0.11  -0.31    -0.05  -0.06  -0.05
  18   1     0.05  -0.14   0.02     0.08  -0.28   0.00    -0.03  -0.09   0.02
  19   1     0.02   0.02   0.04    -0.00   0.04   0.02     0.03   0.04  -0.01
  20   1     0.08   0.12  -0.02    -0.04  -0.02   0.06    -0.01  -0.00   0.01
  21   1    -0.03  -0.06   0.07     0.04   0.05   0.03     0.07   0.11  -0.04
  22   1     0.04  -0.06   0.01     0.06  -0.04  -0.00     0.01  -0.07   0.03
  23   1    -0.04  -0.15   0.02     0.04   0.06  -0.11     0.06   0.09  -0.07
  24   1    -0.01   0.01  -0.05    -0.06  -0.00  -0.06    -0.01  -0.01  -0.01
  25   1     0.00   0.11  -0.04    -0.13  -0.03   0.04    -0.05  -0.08   0.04
                     10                     11                     12
                        a                      a                      a 
 Frequencies --   322.3232               363.7885               389.2628
 Red. masses --     8.8837                 9.5778                 9.8633
 Frc consts  --     0.0000                 0.0000                 0.0000
 IR Inten    --     9.3073                 1.7534                 0.0824
 Raman Activ --     0.0000                 0.0000                 0.0000
 Depolar     --     0.0000                 0.0000                 0.0000
 Atom AN      X      Y      Z        X      Y      Z        X      Y      Z
   1   7    -0.43   0.02  -0.06     0.24   0.02   0.00    -0.11  -0.00   0.07
   2   6    -0.19   0.01   0.15     0.16   0.02  -0.02    -0.21   0.17  -0.05
   3   6    -0.05   0.05   0.01    -0.00  -0.23   0.08    -0.11  -0.11  -0.31
   4   6     0.08   0.04  -0.02    -0.17  -0.32   0.15    -0.06  -0.16  -0.30
   5   6     0.14   0.06  -0.13     0.11   0.40  -0.12    -0.10   0.08  -0.01
   6   6     0.07   0.29  -0.14     0.09   0.08  -0.08     0.11  -0.06  -0.04
   7   6     0.02  -0.04  -0.10    -0.04  -0.07   0.06     0.04   0.09   0.32
   8   6     0.02  -0.15  -0.06    -0.01   0.18  -0.04     0.17   0.07   0.30
   9   6    -0.04  -0.20   0.09    -0.17  -0.17   0.09     0.29  -0.08   0.08
  10   6     0.19   0.15   0.03    -0.12   0.01  -0.04     0.14  -0.14  -0.11
  11   6     0.15   0.04   0.08     0.01   0.22  -0.14    -0.02  -0.02  -0.11
  12   6     0.05  -0.26   0.12    -0.16  -0.19   0.06    -0.09   0.12   0.16
  13  17     0.05  -0.03   0.02    -0.01   0.01  -0.00     0.00   0.00   0.01
  14   1    -0.07  -0.17  -0.18     0.05   0.01   0.03    -0.04  -0.07   0.02
  15   1    -0.29   0.15  -0.09     0.09  -0.01   0.01    -0.05   0.03   0.01
  16   1    -0.03   0.05   0.17     0.07   0.00  -0.02     0.04   0.01   0.04
  17   1    -0.06   0.01   0.06     0.09   0.02   0.03    -0.03   0.07   0.11
  18   1    -0.04   0.02   0.03     0.03   0.05  -0.02    -0.13   0.15  -0.05
  19   1     0.03   0.00   0.02    -0.09  -0.15   0.06    -0.03  -0.04  -0.11
  20   1     0.07   0.05  -0.06     0.08   0.23  -0.09    -0.13   0.09  -0.00
  21   1     0.04   0.16  -0.07     0.07   0.12  -0.07     0.14  -0.05  -0.03
  22   1    -0.07  -0.09   0.05    -0.08  -0.14   0.06     0.15  -0.05   0.02
  23   1     0.08   0.11  -0.00    -0.04  -0.02  -0.00     0.05  -0.07  -0.07
  24   1     0.05   0.02   0.02     0.04   0.13  -0.06    -0.04  -0.00  -0.08
  25   1     0.02  -0.15   0.06    -0.09  -0.11   0.05    -0.09   0.07   0.05
                     13                     14                     15
                        a                      a                      a 
 Frequencies --   440.5641               457.1669               499.0810
 Red. masses --     8.8112                 9.5130                11.2686
 Frc consts  --     0.0000                 0.0000                 0.0000
 IR Inten    --     6.1118                 0.6569                 3.1090
 Raman Activ --     0.0000                 0.0000                 0.0000
 Depolar     --     0.0000                 0.0000                 0.0000
 Atom AN      X      Y      Z        X      Y      Z        X      Y      Z
   1   7    -0.01  -0.02   0.01    -0.03   0.03  -0.01    -0.03   0.00   0.03
   2   6    -0.12   0.05  -0.11     0.18  -0.07   0.20    -0.01   0.04   0.03
   3   6    -0.03   0.30  -0.08     0.14  -0.28   0.01    -0.02   0.04   0.07
   4   6    -0.04  -0.04   0.05     0.11   0.12  -0.14    -0.36   0.20   0.09
   5   6    -0.03  -0.17  -0.00    -0.10  -0.05   0.16    -0.33   0.16   0.04
   6   6    -0.16  -0.13   0.14     0.11  -0.19  -0.08     0.13   0.03   0.18
   7   6     0.06   0.18  -0.10     0.22   0.39  -0.13     0.20  -0.07   0.04
   8   6     0.25   0.38  -0.22    -0.04   0.17   0.02    -0.19   0.12   0.06
   9   6     0.03  -0.15   0.04    -0.20  -0.14   0.11    -0.09  -0.07  -0.24
  10   6     0.09  -0.09   0.06    -0.09   0.26  -0.16     0.03  -0.08  -0.16
  11   6     0.14   0.20  -0.05    -0.13  -0.10  -0.02     0.38  -0.25  -0.18
  12   6    -0.06  -0.22   0.14    -0.08  -0.03  -0.04     0.30  -0.13   0.02
  13  17    -0.00   0.01  -0.01     0.01  -0.00   0.01     0.01  -0.00  -0.00
  14   1    -0.02   0.00   0.05     0.03   0.01  -0.09    -0.01  -0.00   0.00
  15   1     0.04  -0.02   0.01    -0.08   0.03  -0.01    -0.02  -0.00   0.01
  16   1     0.01  -0.01  -0.02    -0.04   0.01   0.03    -0.00   0.00   0.01
  17   1    -0.09   0.00  -0.08     0.12  -0.00   0.15    -0.00   0.02   0.04
  18   1    -0.02  -0.04  -0.01     0.02   0.07   0.02    -0.01   0.04  -0.00
  19   1    -0.03  -0.11   0.09     0.00   0.06  -0.11    -0.13   0.05   0.00
  20   1    -0.08  -0.21   0.07    -0.07  -0.07   0.07    -0.09   0.04   0.01
  21   1    -0.12  -0.19   0.11     0.00  -0.16   0.02     0.01   0.02   0.05
  22   1    -0.07  -0.18   0.08    -0.08  -0.16   0.08     0.03  -0.05  -0.07
  23   1    -0.02  -0.13   0.07    -0.02   0.09  -0.06    -0.02   0.02   0.04
  24   1     0.03   0.06  -0.03    -0.07  -0.14   0.06     0.12  -0.07  -0.04
  25   1    -0.06  -0.21   0.10    -0.11  -0.12   0.05     0.04  -0.02   0.01
                     16                     17                     18
                        a                      a                      a 
 Frequencies --   518.2523               587.8724               609.7896
 Red. masses --    10.0777                11.1573                10.1933
 Frc consts  --     0.0000                 0.0000                 0.0000
 IR Inten    --     3.4405                 0.6767                 2.8739
 Raman Activ --     0.0000                 0.0000                 0.0000
 Depolar     --     0.0000                 0.0000                 0.0000
 Atom AN      X      Y      Z        X      Y      Z        X      Y      Z
   1   7     0.20   0.02  -0.03     0.06   0.01  -0.03    -0.11  -0.02   0.03
   2   6    -0.09   0.11  -0.22     0.09  -0.07   0.05     0.01  -0.00   0.07
   3   6    -0.30  -0.11   0.15     0.03  -0.12   0.02     0.30   0.42  -0.25
   4   6    -0.11  -0.03   0.08     0.13   0.02  -0.01     0.00  -0.30   0.09
   5   6     0.06   0.07  -0.17     0.00   0.04   0.27     0.14   0.27   0.06
   6   6    -0.23  -0.03   0.16    -0.20   0.00  -0.34    -0.04  -0.23  -0.05
   7   6     0.00   0.24  -0.13    -0.29   0.14  -0.01    -0.07  -0.11   0.07
   8   6     0.03  -0.14  -0.02    -0.18   0.07  -0.03    -0.07   0.06   0.02
   9   6     0.02  -0.28   0.05    -0.05  -0.09  -0.39    -0.16  -0.18   0.01
  10   6     0.32   0.19  -0.06     0.25  -0.17   0.03     0.03   0.18  -0.11
  11   6    -0.05  -0.23   0.18     0.16   0.03   0.05    -0.04  -0.22   0.07
  12   6     0.09   0.20   0.01    -0.02   0.13   0.43     0.10   0.20  -0.03
  13  17    -0.01  -0.00   0.00    -0.00  -0.00   0.00     0.00   0.00  -0.00
  14   1    -0.01  -0.05   0.10     0.03   0.01  -0.03     0.01   0.04  -0.05
  15   1     0.12  -0.00  -0.01    -0.00   0.00  -0.01    -0.07  -0.02   0.01
  16   1     0.14   0.01  -0.02    -0.01   0.00  -0.00    -0.08  -0.01  -0.01
  17   1    -0.00   0.03  -0.07     0.04  -0.02  -0.01    -0.08  -0.02  -0.05
  18   1    -0.01   0.02  -0.06     0.03  -0.03   0.02     0.01  -0.06   0.05
  19   1     0.03   0.04   0.05     0.01   0.03  -0.06    -0.08  -0.22   0.06
  20   1     0.06   0.09  -0.08    -0.00   0.02   0.08     0.01   0.02   0.04
  21   1    -0.08   0.00   0.04    -0.06   0.02  -0.10    -0.04  -0.15   0.02
  22   1    -0.04  -0.11   0.03    -0.04  -0.01  -0.11    -0.02  -0.02  -0.01
  23   1     0.12   0.12  -0.05     0.04  -0.03   0.08     0.03   0.14  -0.04
  24   1    -0.09  -0.18   0.07    -0.03   0.01  -0.09    -0.01  -0.06   0.01
  25   1     0.04   0.01   0.02     0.00   0.02   0.13     0.05   0.14  -0.04
                     19                     20                     21
                        a                      a                      a 
 Frequencies --   700.0033               723.1267               746.4875
 Red. masses --    10.0681                11.2048                 3.4729
 Frc consts  --     0.0000                 0.0000                 0.0000
 IR Inten    --     7.1398                 0.2552                 8.7335
 Raman Activ --     0.0000                 0.0000                 0.0000
 Depolar     --     0.0000                 0.0000                 0.0000
 Atom AN      X      Y      Z        X      Y      Z        X      Y      Z
   1   7    -0.07  -0.00  -0.02    -0.00   0.00   0.01     0.02   0.01  -0.02
   2   6    -0.29   0.15  -0.28     0.04   0.01   0.05    -0.05  -0.01  -0.06
   3   6    -0.14  -0.07  -0.02     0.09   0.16  -0.07    -0.09  -0.13   0.05
   4   6     0.35  -0.15   0.04    -0.11  -0.15   0.06     0.06   0.05  -0.02
   5   6     0.24   0.04   0.40     0.04   0.15  -0.11     0.06   0.06   0.01
   6   6    -0.01  -0.04   0.00    -0.06  -0.15   0.05     0.05   0.13  -0.04
   7   6     0.11   0.06  -0.01     0.21   0.47  -0.22     0.05   0.11  -0.05
   8   6    -0.09   0.01   0.10    -0.20  -0.48   0.21     0.03   0.09  -0.04
   9   6    -0.16   0.12  -0.03     0.08   0.14  -0.06    -0.10  -0.16   0.07
  10   6    -0.28   0.06  -0.07    -0.05  -0.19   0.09    -0.08  -0.10   0.04
  11   6     0.18  -0.08  -0.12     0.06   0.18  -0.07    -0.03  -0.12   0.04
  12   6     0.13  -0.09  -0.03    -0.08  -0.16   0.07    -0.07  -0.20   0.09
  13  17    -0.00  -0.00   0.00     0.00  -0.00   0.00    -0.00   0.00   0.00
  14   1    -0.11  -0.09   0.15     0.02   0.01  -0.03    -0.02  -0.01   0.05
  15   1     0.10  -0.00  -0.00    -0.04  -0.01   0.01     0.06   0.02  -0.02
  16   1     0.11   0.01  -0.01    -0.02  -0.00  -0.01     0.03   0.01   0.01
  17   1    -0.09   0.04  -0.10    -0.01  -0.00  -0.01     0.03   0.01   0.04
  18   1    -0.08   0.02  -0.07     0.01  -0.02   0.02    -0.02   0.06  -0.04
  19   1     0.13   0.03  -0.02    -0.02  -0.01  -0.00    -0.03  -0.11   0.06
  20   1     0.10   0.08   0.08     0.03   0.10  -0.05    -0.07  -0.19   0.09
  21   1     0.05   0.03  -0.03    -0.05  -0.12   0.05    -0.10  -0.23   0.11
  22   1    -0.03  -0.02   0.01     0.06   0.13  -0.06     0.13   0.31  -0.14
  23   1    -0.11   0.01   0.06     0.02   0.02  -0.02     0.14   0.36  -0.15
  24   1     0.08  -0.07   0.05    -0.00   0.02  -0.01     0.17   0.35  -0.16
  25   1    -0.02  -0.07   0.02    -0.04  -0.09   0.04     0.14   0.32  -0.15
                     22                     23                     24
                        a                      a                      a 
 Frequencies --   804.4197               828.8248               842.6380
 Red. masses --    10.2622                 3.9785                 4.4602
 Frc consts  --     0.0000                 0.0000                 0.0000
 IR Inten    --     0.6095                27.6069                44.8544
 Raman Activ --     0.0000                 0.0000                 0.0000
 Depolar     --     0.0000                 0.0000                 0.0000
 Atom AN      X      Y      Z        X      Y      Z        X      Y      Z
   1   7     0.01  -0.01  -0.00     0.00  -0.05  -0.05     0.06   0.09   0.02
   2   6     0.03  -0.05   0.01    -0.04  -0.16  -0.14    -0.00   0.14   0.16
   3   6    -0.03   0.03  -0.02    -0.00  -0.03   0.00    -0.11  -0.13   0.08
   4   6     0.12  -0.10  -0.12     0.02   0.10   0.05     0.03  -0.00  -0.10
   5   6     0.12  -0.20  -0.38     0.08   0.20   0.02     0.03   0.05  -0.12
   6   6     0.18   0.08   0.34     0.09   0.20  -0.09     0.02   0.25  -0.16
   7   6     0.04   0.07   0.22    -0.04  -0.12   0.01    -0.08  -0.07   0.06
   8   6    -0.03  -0.08  -0.14    -0.09  -0.16   0.07    -0.00  -0.09   0.08
   9   6    -0.26   0.02  -0.24     0.05   0.06  -0.06     0.03   0.05   0.11
  10   6    -0.20   0.06  -0.08     0.09   0.04   0.00    -0.10   0.05  -0.06
  11   6     0.05  -0.03  -0.04    -0.01   0.10   0.01     0.13  -0.02  -0.11
  12   6    -0.02   0.19   0.37     0.01   0.04  -0.10     0.08   0.07   0.04
  13  17    -0.00   0.00   0.00    -0.01  -0.00   0.01     0.01   0.01  -0.01
  14   1     0.02   0.03  -0.02    -0.04   0.06   0.11     0.04  -0.08  -0.09
  15   1     0.02   0.04  -0.02     0.22   0.18  -0.12    -0.22  -0.21   0.13
  16   1    -0.05   0.00   0.04    -0.14   0.02   0.20     0.21  -0.01  -0.25
  17   1     0.01  -0.00   0.08     0.01   0.00   0.27     0.06  -0.00  -0.27
  18   1     0.01   0.05  -0.02    -0.01   0.25  -0.17    -0.01  -0.24   0.16
  19   1     0.10  -0.05   0.06    -0.09  -0.20   0.13    -0.05  -0.14   0.04
  20   1     0.07  -0.10  -0.10    -0.08  -0.21   0.13    -0.09  -0.12   0.04
  21   1     0.12  -0.03   0.10    -0.16  -0.34   0.16    -0.19  -0.37   0.16
  22   1    -0.12   0.01  -0.06    -0.04  -0.09   0.03     0.04   0.00   0.03
  23   1    -0.10   0.05   0.08    -0.05  -0.17   0.07    -0.07  -0.08   0.03
  24   1    -0.04  -0.03  -0.04    -0.08  -0.16   0.09    -0.02  -0.15   0.05
  25   1    -0.11   0.08   0.12    -0.02  -0.10   0.02    -0.05  -0.07   0.06
                     25                     26                     27
                        a                      a                      a 
 Frequencies --   859.8121               867.5599               878.7560
 Red. masses --     3.3630                 9.3593                 3.9935
 Frc consts  --     0.0000                 0.0000                 0.0000
 IR Inten    --     1.2386                 5.6568                 5.2954
 Raman Activ --     0.0000                 0.0000                 0.0000
 Depolar     --     0.0000                 0.0000                 0.0000
 Atom AN      X      Y      Z        X      Y      Z        X      Y      Z
   1   7     0.01   0.00   0.00    -0.14   0.03   0.07    -0.02   0.02   0.02
   2   6     0.00  -0.00   0.00    -0.06   0.14  -0.10    -0.02   0.07   0.01
   3   6    -0.03  -0.04   0.02     0.09  -0.09  -0.02    -0.02  -0.08   0.02
   4   6     0.06   0.14  -0.06    -0.00  -0.00   0.03     0.05   0.10  -0.05
   5   6     0.07   0.16  -0.08    -0.02   0.04   0.13     0.08   0.20  -0.06
   6   6    -0.10  -0.17   0.06     0.34   0.01   0.16     0.00  -0.15   0.10
   7   6    -0.02  -0.02   0.01     0.15  -0.09   0.04     0.07   0.06  -0.02
   8   6     0.00  -0.01   0.01    -0.10   0.03  -0.10    -0.07  -0.11   0.04
   9   6    -0.06  -0.14   0.09    -0.14  -0.17  -0.33     0.05   0.15  -0.15
  10   6    -0.07  -0.11   0.04     0.26  -0.09   0.15     0.10   0.11  -0.03
  11   6     0.07   0.09  -0.07    -0.26   0.25   0.19    -0.08  -0.02   0.07
  12   6     0.08   0.17  -0.06    -0.10   0.04  -0.19    -0.11  -0.19   0.05
  13  17    -0.00   0.00  -0.00     0.00   0.00  -0.00     0.00   0.01  -0.01
  14   1     0.00   0.00   0.00    -0.08  -0.11   0.07    -0.02  -0.04   0.01
  15   1    -0.00  -0.00   0.00    -0.08  -0.11   0.08    -0.05  -0.06   0.04
  16   1     0.01  -0.00  -0.01     0.15  -0.00  -0.11     0.09  -0.01  -0.10
  17   1     0.02  -0.00   0.00     0.03   0.02  -0.13     0.03   0.01  -0.08
  18   1    -0.01  -0.01   0.00    -0.07  -0.06   0.02    -0.03  -0.07   0.04
  19   1    -0.09  -0.22   0.11    -0.03   0.02  -0.04    -0.08  -0.19   0.07
  20   1    -0.16  -0.36   0.16     0.05   0.03   0.02    -0.16  -0.36   0.17
  21   1     0.14   0.35  -0.17     0.11  -0.15   0.09     0.15   0.25  -0.11
  22   1     0.15   0.32  -0.14    -0.08   0.12  -0.14    -0.16  -0.31   0.13
  23   1     0.06   0.14  -0.07     0.09   0.02   0.02    -0.07  -0.18   0.09
  24   1    -0.05  -0.15   0.06    -0.13   0.01   0.04     0.01   0.07  -0.02
  25   1    -0.15  -0.33   0.16    -0.04  -0.13   0.00     0.16   0.35  -0.17
                     28                     29                     30
                        a                      a                      a 
 Frequencies --   911.7471               925.4459               932.0323
 Red. masses --     3.9363                 3.3274                 7.8985
 Frc consts  --     0.0000                 0.0000                 0.0000
 IR Inten    --     1.1059                 0.2546                12.2852
 Raman Activ --     0.0000                 0.0000                 0.0000
 Depolar     --     0.0000                 0.0000                 0.0000
 Atom AN      X      Y      Z        X      Y      Z        X      Y      Z
   1   7    -0.00   0.00   0.00     0.02   0.00  -0.01    -0.27  -0.02   0.07
   2   6    -0.00   0.01   0.00    -0.01  -0.01   0.01     0.08   0.10  -0.19
   3   6    -0.00  -0.01   0.00    -0.02   0.00  -0.00     0.23  -0.07   0.05
   4   6     0.02   0.04  -0.02    -0.01  -0.06   0.00    -0.10   0.34   0.23
   5   6     0.01   0.02  -0.01     0.02   0.05  -0.01    -0.03  -0.17  -0.09
   6   6     0.01   0.01  -0.01    -0.01   0.01   0.02     0.08  -0.19  -0.27
   7   6    -0.00  -0.02   0.01     0.03   0.06  -0.03     0.02   0.04   0.00
   8   6    -0.03  -0.06   0.03    -0.03  -0.06   0.03     0.05  -0.07  -0.05
   9   6     0.10   0.24  -0.11    -0.05  -0.11   0.04     0.04   0.01   0.12
  10   6    -0.07  -0.17   0.08     0.12   0.26  -0.11    -0.07   0.05  -0.09
  11   6    -0.10  -0.23   0.11    -0.10  -0.22   0.11    -0.01  -0.04  -0.04
  12   6     0.09   0.21  -0.10     0.03   0.07  -0.05    -0.02   0.09   0.21
  13  17     0.00   0.00  -0.00     0.00  -0.00   0.00    -0.00   0.00  -0.00
  14   1    -0.00  -0.01   0.00     0.01   0.01  -0.01    -0.19  -0.13   0.23
  15   1    -0.00  -0.01   0.01    -0.00   0.00  -0.00     0.06  -0.04   0.03
  16   1     0.02  -0.00  -0.02    -0.01   0.00   0.00     0.12   0.00  -0.02
  17   1     0.01   0.00  -0.01    -0.00  -0.00   0.00     0.08   0.03  -0.06
  18   1    -0.01  -0.01   0.00     0.00  -0.00   0.00    -0.01   0.02  -0.04
  19   1    -0.04  -0.09   0.04     0.04   0.09  -0.05    -0.15  -0.22   0.23
  20   1    -0.01  -0.02   0.01    -0.04  -0.07   0.04     0.24   0.10  -0.13
  21   1    -0.01  -0.03   0.01    -0.00   0.01   0.00     0.04  -0.04  -0.08
  22   1    -0.17  -0.38   0.17     0.11   0.26  -0.12     0.05   0.04   0.01
  23   1     0.13   0.29  -0.13    -0.22  -0.50   0.23    -0.05  -0.09  -0.01
  24   1     0.18   0.41  -0.19     0.20   0.44  -0.20    -0.01   0.04  -0.07
  25   1    -0.15  -0.35   0.16    -0.09  -0.21   0.09    -0.05   0.06   0.06
                     31                     32                     33
                        a                      a                      a 
 Frequencies --   938.7452              1001.0327              1022.6577
 Red. masses --     4.6243                 6.9986                 8.5216
 Frc consts  --     0.0000                 0.0000                 0.0000
 IR Inten    --    15.4702                49.2131                15.3812
 Raman Activ --     0.0000                 0.0000                 0.0000
 Depolar     --     0.0000                 0.0000                 0.0000
 Atom AN      X      Y      Z        X      Y      Z        X      Y      Z
   1   7    -0.17  -0.02   0.02     0.32   0.14  -0.03    -0.13  -0.14   0.42
   2   6     0.06   0.06  -0.08    -0.41  -0.20  -0.04     0.37   0.08  -0.50
   3   6     0.13  -0.03   0.05     0.03  -0.03  -0.11    -0.10  -0.03  -0.03
   4   6    -0.20  -0.17   0.26    -0.11   0.15   0.29     0.03  -0.01   0.01
   5   6     0.09   0.15  -0.17     0.07  -0.01   0.04     0.04   0.02   0.05
   6   6     0.06  -0.03  -0.16     0.07  -0.10  -0.12    -0.07   0.08   0.07
   7   6    -0.02  -0.05   0.03     0.07  -0.02   0.02    -0.05   0.01  -0.03
   8   6     0.04  -0.00  -0.05     0.04  -0.04  -0.06     0.01  -0.01  -0.01
   9   6     0.04   0.04   0.05     0.00   0.01   0.01     0.01   0.01   0.03
  10   6    -0.07  -0.03  -0.02    -0.04   0.00  -0.03    -0.01   0.00  -0.00
  11   6     0.01   0.00  -0.03    -0.03   0.02   0.02     0.03  -0.02  -0.01
  12   6     0.00   0.07   0.10    -0.01   0.04   0.08     0.00  -0.01  -0.00
  13  17    -0.00  -0.01  -0.00     0.01   0.00  -0.00     0.01   0.00  -0.00
  14   1    -0.11  -0.07   0.13     0.22   0.07  -0.29     0.14   0.07  -0.21
  15   1     0.06  -0.01   0.01    -0.22  -0.07   0.05    -0.36  -0.10   0.14
  16   1     0.06   0.01   0.02    -0.01   0.00  -0.14    -0.23  -0.07   0.01
  17   1     0.02   0.01  -0.04    -0.03  -0.02   0.14     0.12   0.04   0.02
  18   1     0.03   0.00  -0.02    -0.38   0.09  -0.06    -0.09   0.10  -0.15
  19   1     0.20   0.57  -0.23     0.01   0.10   0.08     0.00   0.00  -0.01
  20   1    -0.08  -0.40   0.13     0.21  -0.11   0.01     0.00  -0.01   0.03
  21   1    -0.00  -0.05  -0.02     0.08  -0.04  -0.04    -0.07   0.03   0.03
  22   1    -0.00  -0.05   0.04     0.01  -0.00   0.00     0.00  -0.00   0.01
  23   1     0.02   0.07  -0.06    -0.00  -0.01  -0.03    -0.00   0.00   0.00
  24   1    -0.03  -0.04  -0.01    -0.02   0.01  -0.01     0.02   0.00   0.00
  25   1    -0.04   0.01   0.04    -0.02   0.02   0.02     0.02  -0.00  -0.01
                     34                     35                     36
                        a                      a                      a 
 Frequencies --  1046.5735              1082.3670              1146.1824
 Red. masses --     4.7796                 6.4928                 5.5257
 Frc consts  --     0.0000                 0.0000                 0.0000
 IR Inten    --     7.8425                 0.0183                 0.6612
 Raman Activ --     0.0000                 0.0000                 0.0000
 Depolar     --     0.0000                 0.0000                 0.0000
 Atom AN      X      Y      Z        X      Y      Z        X      Y      Z
   1   7    -0.11   0.22  -0.03    -0.01   0.01   0.00     0.02  -0.00  -0.01
   2   6     0.06  -0.40  -0.02     0.02  -0.01   0.00    -0.06   0.03  -0.00
   3   6     0.09   0.18  -0.06    -0.02   0.02   0.00     0.06  -0.03   0.02
   4   6     0.05  -0.09  -0.07    -0.01  -0.01  -0.02     0.02  -0.04  -0.09
   5   6    -0.01  -0.00   0.02    -0.02   0.00  -0.01    -0.01   0.07   0.16
   6   6    -0.11   0.09   0.15    -0.02   0.02   0.02     0.11   0.04   0.20
   7   6    -0.07  -0.00  -0.03     0.03  -0.04  -0.07     0.02  -0.11  -0.22
   8   6     0.01   0.00   0.00     0.07   0.00   0.06    -0.10  -0.06  -0.23
   9   6     0.01   0.01   0.03     0.05  -0.11  -0.20     0.02   0.11   0.25
  10   6     0.01  -0.00   0.01    -0.31  -0.00  -0.30    -0.00  -0.04  -0.08
  11   6     0.05  -0.03  -0.03    -0.15   0.22   0.34    -0.05  -0.01  -0.06
  12   6    -0.00  -0.01  -0.02     0.14   0.02   0.17     0.11   0.07   0.27
  13  17    -0.00   0.00  -0.00    -0.00   0.00   0.00     0.00   0.00   0.00
  14   1    -0.15  -0.20   0.14    -0.01  -0.01   0.01     0.00   0.01   0.01
  15   1    -0.03  -0.15   0.10     0.00  -0.00   0.00     0.00   0.01  -0.01
  16   1     0.35   0.04  -0.21     0.01   0.00  -0.01    -0.01   0.00   0.01
  17   1     0.45  -0.04   0.24     0.02  -0.00   0.01    -0.05   0.00  -0.02
  18   1    -0.20   0.15  -0.10     0.01   0.00  -0.00    -0.01  -0.00   0.00
  19   1     0.02   0.01  -0.04     0.00  -0.00  -0.00    -0.17  -0.05  -0.22
  20   1    -0.08   0.07   0.00    -0.04   0.02  -0.00     0.03   0.01   0.04
  21   1    -0.15   0.13   0.04    -0.03   0.02   0.01    -0.07   0.06   0.06
  22   1    -0.01   0.01   0.01     0.37  -0.21  -0.09    -0.20   0.13   0.09
  23   1    -0.00   0.01   0.02    -0.05  -0.08  -0.22     0.10  -0.21  -0.37
  24   1     0.02  -0.01  -0.00     0.06   0.08   0.23    -0.28  -0.03  -0.33
  25   1    -0.00   0.00  -0.01     0.40  -0.16   0.03     0.21  -0.06   0.06
                     37                     38                     39
                        a                      a                      a 
 Frequencies --  1172.3284              1178.8136              1182.3902
 Red. masses --     3.5581                 1.9521                 2.2344
 Frc consts  --     0.0000                 0.0000                 0.0000
 IR Inten    --     2.4269                 0.1738                 0.4119
 Raman Activ --     0.0000                 0.0000                 0.0000
 Depolar     --     0.0000                 0.0000                 0.0000
 Atom AN      X      Y      Z        X      Y      Z        X      Y      Z
   1   7    -0.02   0.04   0.01     0.01  -0.00   0.00    -0.02   0.05   0.04
   2   6     0.11  -0.08   0.07    -0.06   0.02  -0.04     0.08  -0.07   0.01
   3   6    -0.21   0.06  -0.12     0.10  -0.01   0.09    -0.15   0.07  -0.04
   4   6    -0.10   0.02  -0.06     0.04  -0.02   0.00     0.03   0.04   0.12
   5   6     0.07   0.01   0.09    -0.01  -0.03  -0.08    -0.02  -0.00  -0.03
   6   6    -0.03   0.05   0.08     0.07  -0.04  -0.02    -0.02  -0.04  -0.10
   7   6    -0.20   0.10   0.02     0.03  -0.06  -0.10    -0.09   0.06   0.06
   8   6    -0.13   0.03  -0.05     0.01   0.05   0.12     0.04   0.01   0.05
   9   6     0.07   0.00   0.07    -0.04   0.02   0.02    -0.05   0.03   0.01
  10   6     0.01   0.03   0.08    -0.00   0.03   0.06     0.01  -0.03  -0.05
  11   6     0.01  -0.05  -0.09    -0.06   0.00  -0.06    -0.01  -0.02  -0.05
  12   6     0.02  -0.04  -0.08    -0.02   0.01   0.00     0.05  -0.04  -0.03
  13  17     0.00   0.00   0.00    -0.00  -0.00  -0.00    -0.00  -0.00  -0.00
  14   1    -0.03  -0.03   0.03     0.02   0.01  -0.02     0.00  -0.03  -0.02
  15   1    -0.00  -0.03   0.02    -0.01   0.00  -0.00    -0.02  -0.03   0.03
  16   1     0.05   0.01  -0.02    -0.01  -0.00  -0.00     0.05   0.00  -0.05
  17   1     0.05  -0.01   0.06    -0.04   0.00  -0.01     0.01  -0.01   0.06
  18   1     0.17   0.01  -0.00    -0.07   0.01  -0.01     0.12   0.02  -0.02
  19   1    -0.16  -0.01  -0.17     0.12   0.01   0.12     0.29   0.06   0.34
  20   1     0.50  -0.23  -0.01    -0.18   0.08  -0.01    -0.31   0.14   0.01
  21   1     0.42  -0.18  -0.01    -0.12   0.05   0.01     0.44  -0.22  -0.06
  22   1     0.22  -0.09   0.01     0.26  -0.12  -0.02    -0.32   0.15   0.03
  23   1    -0.03   0.08   0.15    -0.12   0.26   0.44     0.05  -0.09  -0.16
  24   1    -0.05  -0.02  -0.10    -0.39  -0.04  -0.46    -0.05  -0.01  -0.07
  25   1     0.21  -0.11  -0.04     0.28  -0.13  -0.02     0.32  -0.16  -0.03
                     40                     41                     42
                        a                      a                      a 
 Frequencies --  1216.2540              1227.4815              1251.9525
 Red. masses --     3.0243                 5.6679                 7.2143
 Frc consts  --     0.0000                 0.0000                 0.0000
 IR Inten    --    12.0971                 1.9812                 0.3135
 Raman Activ --     0.0000                 0.0000                 0.0000
 Depolar     --     0.0000                 0.0000                 0.0000
 Atom AN      X      Y      Z        X      Y      Z        X      Y      Z
   1   7    -0.00  -0.26  -0.10     0.01  -0.03  -0.02    -0.03   0.01   0.02
   2   6     0.01   0.18   0.14    -0.01   0.02   0.02     0.11  -0.04   0.09
   3   6    -0.07   0.02  -0.16     0.02  -0.02  -0.04    -0.29   0.03  -0.26
   4   6    -0.02   0.01   0.03    -0.07   0.09   0.13    -0.00   0.04   0.08
   5   6    -0.02   0.02   0.03     0.05   0.03   0.12    -0.07   0.11   0.18
   6   6    -0.04   0.03   0.02    -0.12   0.06   0.02    -0.09   0.04   0.00
   7   6     0.01   0.01   0.04     0.02  -0.01  -0.00     0.29  -0.23  -0.22
   8   6    -0.01   0.02   0.02     0.48  -0.24  -0.07     0.11  -0.14  -0.21
   9   6    -0.02   0.01   0.02     0.01  -0.05  -0.09    -0.06   0.05   0.04
  10   6     0.02  -0.01  -0.01    -0.13  -0.00  -0.13    -0.03  -0.00  -0.03
  11   6     0.00  -0.00  -0.01     0.02  -0.00   0.02     0.04   0.06   0.16
  12   6     0.01  -0.01  -0.02    -0.11   0.06   0.03    -0.01   0.05   0.10
  13  17    -0.00  -0.00  -0.00     0.00  -0.00   0.00    -0.00  -0.00  -0.00
  14   1     0.02   0.10   0.01    -0.00   0.02   0.02    -0.00  -0.01  -0.00
  15   1     0.14   0.12  -0.14     0.02   0.01  -0.02     0.02  -0.01   0.01
  16   1    -0.14  -0.04   0.17    -0.02  -0.00   0.04     0.04   0.00  -0.02
  17   1     0.63   0.05  -0.21     0.06   0.01  -0.03     0.08  -0.01   0.03
  18   1    -0.41  -0.14   0.15    -0.03  -0.02   0.02     0.19  -0.03   0.02
  19   1     0.11   0.03   0.12    -0.36  -0.02  -0.35     0.10   0.03   0.14
  20   1     0.12  -0.05  -0.00    -0.20   0.12   0.05    -0.09   0.07   0.06
  21   1     0.00  -0.00   0.01     0.14  -0.06  -0.01     0.15  -0.07  -0.02
  22   1    -0.03   0.02   0.01    -0.26   0.11  -0.01     0.24  -0.11  -0.01
  23   1     0.01  -0.02  -0.03    -0.13   0.19   0.29    -0.02   0.01   0.01
  24   1    -0.03  -0.01  -0.04     0.04   0.00   0.04    -0.15   0.00  -0.14
  25   1     0.08  -0.05  -0.01     0.12  -0.05  -0.00    -0.39   0.20   0.06
                     43                     44                     45
                        a                      a                      a 
 Frequencies --  1254.7471              1314.8306              1335.6503
 Red. masses --     5.9846                 5.0380                 6.1808
 Frc consts  --     0.0000                 0.0000                 0.0000
 IR Inten    --     3.3320                25.5693                 4.2771
 Raman Activ --     0.0000                 0.0000                 0.0000
 Depolar     --     0.0000                 0.0000                 0.0000
 Atom AN      X      Y      Z        X      Y      Z        X      Y      Z
   1   7    -0.03   0.05   0.01     0.03  -0.07   0.16     0.05   0.01  -0.12
   2   6     0.14  -0.05   0.06    -0.41  -0.00  -0.08     0.16  -0.02  -0.02
   3   6    -0.18  -0.03  -0.23     0.05   0.11   0.18    -0.01   0.06   0.13
   4   6    -0.05   0.01  -0.02     0.05  -0.02   0.01     0.15  -0.01   0.13
   5   6    -0.06   0.03   0.01     0.03  -0.07  -0.11     0.02  -0.09  -0.18
   6   6    -0.15   0.01  -0.12    -0.07  -0.03  -0.13    -0.27   0.07  -0.11
   7   6     0.32  -0.04   0.22     0.11  -0.01   0.09     0.13   0.03   0.19
   8   6     0.19   0.03   0.25    -0.02   0.06   0.11     0.02   0.05   0.13
   9   6    -0.12   0.01  -0.09    -0.07   0.00  -0.06    -0.23   0.06  -0.09
  10   6     0.00  -0.05  -0.10    -0.00   0.02   0.04     0.01   0.04   0.10
  11   6    -0.03   0.05   0.07    -0.01   0.03   0.05     0.09   0.02   0.14
  12   6     0.01  -0.02  -0.04     0.08  -0.06  -0.04     0.11  -0.12  -0.15
  13  17     0.00   0.00  -0.00     0.00   0.00   0.00     0.00   0.00   0.00
  14   1    -0.02  -0.03   0.01     0.09   0.05  -0.10    -0.07   0.02   0.15
  15   1     0.00  -0.03   0.03    -0.04   0.11  -0.02    -0.10  -0.07   0.01
  16   1     0.05   0.01  -0.03    -0.04  -0.05  -0.10    -0.03   0.03   0.12
  17   1    -0.10  -0.02   0.04     0.47   0.03  -0.06    -0.13  -0.01   0.04
  18   1     0.17  -0.00  -0.00     0.52   0.07  -0.10    -0.32  -0.02   0.03
  19   1     0.05   0.01   0.07    -0.12  -0.02  -0.16    -0.20  -0.04  -0.25
  20   1     0.38  -0.18  -0.02    -0.03   0.01  -0.03    -0.08   0.01  -0.05
  21   1    -0.36   0.15  -0.01     0.02  -0.02  -0.04     0.18  -0.10  -0.05
  22   1    -0.30   0.13  -0.00     0.00  -0.01  -0.02     0.13  -0.08  -0.04
  23   1    -0.01   0.00  -0.00     0.03  -0.05  -0.09     0.08  -0.14  -0.23
  24   1    -0.13   0.00  -0.12    -0.09  -0.00  -0.09    -0.19  -0.02  -0.22
  25   1     0.15  -0.07  -0.02    -0.06   0.02  -0.00    -0.11   0.04  -0.03
                     46                     47                     48
                        a                      a                      a 
 Frequencies --  1372.8645              1378.1395              1408.7748
 Red. masses --     9.5224                 3.6407                 1.6787
 Frc consts  --     0.0000                 0.0000                 0.0000
 IR Inten    --    31.9116               138.0122                69.3946
 Raman Activ --     0.0000                 0.0000                 0.0000
 Depolar     --     0.0000                 0.0000                 0.0000
 Atom AN      X      Y      Z        X      Y      Z        X      Y      Z
   1   7    -0.08  -0.01   0.10    -0.22   0.00   0.20     0.07  -0.14   0.09
   2   6    -0.06   0.02  -0.02     0.14  -0.01   0.03     0.08  -0.03   0.02
   3   6     0.24  -0.15  -0.07    -0.08   0.03   0.03    -0.00   0.01   0.02
   4   6     0.25  -0.05   0.12    -0.07   0.03  -0.01    -0.03  -0.01  -0.04
   5   6    -0.29   0.08  -0.10     0.12  -0.05   0.01    -0.01   0.01   0.02
   6   6    -0.18   0.13   0.11     0.01  -0.02  -0.04    -0.00   0.01   0.01
   7   6     0.07  -0.04  -0.02    -0.04   0.05   0.07    -0.03  -0.00  -0.04
   8   6     0.04  -0.03  -0.02     0.01  -0.00   0.00     0.04  -0.00   0.03
   9   6    -0.27   0.19   0.14     0.06  -0.06  -0.08     0.02  -0.02  -0.01
  10   6     0.20  -0.14  -0.12    -0.09   0.08   0.09    -0.03   0.00  -0.02
  11   6     0.21  -0.07   0.04    -0.05   0.03   0.01     0.01   0.01   0.03
  12   6    -0.37   0.14  -0.05     0.17  -0.09  -0.03     0.03  -0.01  -0.00
  13  17    -0.00  -0.00   0.00    -0.01  -0.00   0.00     0.00  -0.01   0.01
  14   1     0.06  -0.06  -0.16     0.17  -0.15  -0.44    -0.10   0.17   0.30
  15   1     0.18   0.12  -0.05     0.54   0.20  -0.08    -0.33   0.57  -0.30
  16   1     0.04  -0.03  -0.17     0.14  -0.05  -0.30     0.07  -0.10  -0.50
  17   1    -0.06  -0.00  -0.04    -0.10  -0.01  -0.03    -0.09  -0.01   0.01
  18   1     0.01   0.02  -0.02    -0.18   0.03   0.01    -0.09   0.01   0.01
  19   1     0.03  -0.02  -0.02    -0.08   0.00  -0.06     0.03   0.02   0.02
  20   1     0.07  -0.05  -0.04    -0.04   0.03   0.01     0.03  -0.01   0.00
  21   1     0.09  -0.03   0.02    -0.01  -0.01  -0.01     0.03  -0.02   0.00
  22   1     0.16  -0.06   0.02    -0.02   0.00  -0.02    -0.03   0.02  -0.00
  23   1     0.06  -0.03  -0.02    -0.00  -0.02  -0.05    -0.01   0.01   0.01
  24   1     0.11  -0.02   0.07    -0.08  -0.00  -0.08    -0.02  -0.00  -0.01
  25   1     0.17  -0.10  -0.04    -0.08   0.03   0.01    -0.04   0.01   0.00
                     49                     50                     51
                        a                      a                      a 
 Frequencies --  1412.9419              1427.4500              1448.8560
 Red. masses --    10.0004                 9.7821                 2.7614
 Frc consts  --     0.0000                 0.0000                 0.0000
 IR Inten    --     5.6142                 1.9090                77.6497
 Raman Activ --     0.0000                 0.0000                 0.0000
 Depolar     --     0.0000                 0.0000                 0.0000
 Atom AN      X      Y      Z        X      Y      Z        X      Y      Z
   1   7    -0.01   0.01  -0.00     0.01   0.02   0.00    -0.19  -0.16  -0.01
   2   6     0.01  -0.00  -0.04    -0.00  -0.00  -0.06     0.04  -0.05   0.01
   3   6     0.00   0.13   0.28     0.09   0.06   0.23    -0.10   0.05   0.03
   4   6    -0.10  -0.05  -0.21     0.23  -0.12  -0.05     0.05  -0.00   0.05
   5   6     0.05  -0.03  -0.03    -0.32   0.12  -0.05     0.04  -0.04  -0.05
   6   6     0.07  -0.03   0.00    -0.27   0.09  -0.07     0.01  -0.02  -0.04
   7   6    -0.10  -0.17  -0.46     0.26  -0.07   0.11     0.11  -0.06  -0.03
   8   6     0.10   0.16   0.45    -0.24   0.03  -0.17    -0.11   0.06   0.03
   9   6    -0.07   0.04   0.01     0.33  -0.11   0.09     0.00   0.02   0.04
  10   6     0.03  -0.13  -0.24    -0.03  -0.07  -0.18     0.06  -0.05  -0.04
  11   6     0.12   0.04   0.22    -0.22   0.10  -0.00    -0.07   0.00  -0.05
  12   6    -0.08   0.05   0.02     0.21  -0.05   0.08    -0.03   0.04   0.05
  13  17    -0.00   0.00  -0.00    -0.00   0.00   0.00    -0.00  -0.00   0.00
  14   1     0.02  -0.04  -0.05    -0.00  -0.07  -0.02     0.14   0.62  -0.08
  15   1     0.07  -0.05   0.02     0.03  -0.01   0.00    -0.02  -0.02  -0.01
  16   1    -0.02   0.01   0.03    -0.06  -0.01  -0.02     0.60   0.08   0.20
  17   1     0.01   0.01   0.02    -0.01   0.00   0.02    -0.04  -0.02  -0.06
  18   1    -0.12  -0.00   0.00    -0.11  -0.00  -0.00    -0.02   0.10  -0.05
  19   1     0.03  -0.01   0.01     0.07  -0.04  -0.01    -0.05  -0.01  -0.06
  20   1     0.16  -0.08  -0.02     0.10  -0.06  -0.04    -0.03   0.01  -0.01
  21   1     0.19  -0.09  -0.01     0.17  -0.09  -0.04     0.01  -0.01  -0.01
  22   1    -0.17   0.08   0.02    -0.16   0.09   0.04    -0.01   0.01   0.01
  23   1    -0.03   0.03   0.04    -0.09   0.14   0.22    -0.00   0.02   0.05
  24   1    -0.03   0.01  -0.02    -0.02   0.03   0.06     0.05   0.01   0.06
  25   1    -0.17   0.08   0.01    -0.06   0.04   0.04     0.04  -0.01   0.01
                     52                     53                     54
                        a                      a                      a 
 Frequencies --  1453.4140              1474.5815              1509.2478
 Red. masses --     9.0357                 1.9980                10.7542
 Frc consts  --     0.0000                 0.0000                 0.0000
 IR Inten    --     3.0066                18.0546                 0.7217
 Raman Activ --     0.0000                 0.0000                 0.0000
 Depolar     --     0.0000                 0.0000                 0.0000
 Atom AN      X      Y      Z        X      Y      Z        X      Y      Z
   1   7     0.06   0.04   0.01     0.04   0.02   0.00    -0.00  -0.01   0.00
   2   6     0.11  -0.02   0.02     0.06  -0.13   0.25     0.00  -0.02  -0.04
   3   6    -0.34   0.16   0.01    -0.04   0.01  -0.01     0.03   0.15   0.37
   4   6     0.05   0.03   0.13     0.01   0.01   0.01    -0.17  -0.08  -0.34
   5   6     0.24  -0.14  -0.09     0.01  -0.01  -0.01    -0.10   0.12   0.17
   6   6     0.09  -0.10  -0.13     0.00  -0.00  -0.00    -0.09  -0.02  -0.13
   7   6     0.31  -0.17  -0.08     0.02  -0.02  -0.02     0.23  -0.10   0.01
   8   6    -0.25   0.15   0.07    -0.03   0.02   0.01     0.30  -0.16  -0.07
   9   6    -0.08   0.08   0.09     0.00   0.00   0.01    -0.16   0.01  -0.13
  10   6     0.19  -0.09  -0.02     0.01  -0.01  -0.02     0.00   0.15   0.33
  11   6    -0.17  -0.02  -0.22    -0.01   0.00  -0.00    -0.11  -0.09  -0.30
  12   6    -0.14   0.14   0.16    -0.00   0.01   0.01    -0.11   0.10   0.12
  13  17     0.00  -0.00   0.00     0.00   0.00  -0.00    -0.00   0.00  -0.00
  14   1    -0.05  -0.19   0.03    -0.04  -0.10   0.05     0.01   0.02  -0.01
  15   1     0.02   0.06  -0.03    -0.04  -0.03   0.02    -0.00  -0.01   0.00
  16   1    -0.17  -0.03  -0.11    -0.12  -0.01   0.01     0.01   0.00   0.01
  17   1     0.04   0.01   0.08    -0.04  -0.10  -0.65     0.00  -0.00  -0.01
  18   1    -0.06  -0.07   0.05    -0.05   0.61  -0.26    -0.08   0.03  -0.02
  19   1    -0.16  -0.01  -0.16    -0.00  -0.00   0.00     0.10  -0.01   0.08
  20   1    -0.13   0.06  -0.01    -0.01   0.00   0.00     0.11  -0.03   0.04
  21   1    -0.05   0.00  -0.04     0.02  -0.00  -0.00     0.07  -0.05  -0.04
  22   1     0.04  -0.01   0.03    -0.01   0.00   0.00     0.10  -0.07  -0.05
  23   1     0.03   0.02   0.08    -0.00   0.01   0.01     0.06  -0.07  -0.10
  24   1     0.15   0.01   0.18     0.01   0.00   0.01     0.09  -0.01   0.06
  25   1     0.15  -0.05   0.03     0.00   0.00   0.00     0.12  -0.04   0.02
                     55                     56                     57
                        a                      a                      a 
 Frequencies --  1575.1839              1607.9976              1612.3174
 Red. masses --    11.6960                11.5281                11.4157
 Frc consts  --     0.0000                 0.0000                 0.0000
 IR Inten    --     1.0875                 3.0513                 0.4388
 Raman Activ --     0.0000                 0.0000                 0.0000
 Depolar     --     0.0000                 0.0000                 0.0000
 Atom AN      X      Y      Z        X      Y      Z        X      Y      Z
   1   7    -0.00   0.00  -0.00     0.01   0.00  -0.00    -0.00   0.00   0.00
   2   6    -0.02   0.02   0.01     0.04  -0.03   0.00    -0.02   0.01  -0.00
   3   6     0.10  -0.16  -0.26    -0.34   0.21   0.13     0.08  -0.05  -0.03
   4   6     0.19   0.02   0.24     0.36  -0.08   0.18    -0.08   0.02  -0.04
   5   6    -0.16   0.01  -0.13    -0.45   0.17  -0.07     0.05  -0.01   0.04
   6   6    -0.12   0.12   0.15     0.42  -0.24  -0.11    -0.04   0.04   0.04
   7   6    -0.05  -0.13  -0.35    -0.23   0.10  -0.02    -0.16   0.09   0.05
   8   6     0.10   0.12   0.35     0.21  -0.11  -0.04     0.18  -0.08   0.01
   9   6     0.08  -0.11  -0.17    -0.05   0.02  -0.01    -0.41   0.24   0.14
  10   6    -0.07   0.18   0.32     0.00   0.00   0.00     0.28  -0.22  -0.21
  11   6    -0.23  -0.04  -0.30    -0.00   0.00   0.00    -0.37   0.09  -0.16
  12   6     0.17  -0.00   0.16     0.05  -0.03  -0.02     0.46  -0.17   0.07
  13  17     0.00   0.00   0.00     0.00   0.00   0.00     0.00  -0.00  -0.00
  14   1    -0.00  -0.00   0.00     0.00  -0.00  -0.00    -0.00   0.00   0.00
  15   1     0.00   0.00   0.00     0.01   0.00  -0.00    -0.00  -0.00   0.00
  16   1    -0.00   0.00  -0.00    -0.00  -0.00  -0.00     0.00   0.00   0.00
  17   1    -0.01  -0.00  -0.01     0.04   0.00   0.01    -0.01   0.00  -0.00
  18   1     0.04  -0.01   0.00    -0.04   0.01  -0.00     0.01  -0.00   0.00
  19   1    -0.03  -0.00  -0.04    -0.03  -0.04  -0.11     0.01   0.01   0.03
  20   1     0.03  -0.03  -0.04     0.08  -0.05  -0.04     0.00   0.00   0.01
  21   1     0.06  -0.01   0.03    -0.11   0.04  -0.02     0.00   0.00   0.01
  22   1    -0.04   0.00  -0.04     0.02  -0.01  -0.01     0.10  -0.03   0.03
  23   1     0.02  -0.03  -0.05     0.00  -0.00  -0.01     0.03   0.04   0.11
  24   1     0.04   0.00   0.05    -0.00  -0.00  -0.01     0.03   0.04   0.11
  25   1    -0.02   0.03   0.04    -0.02   0.01  -0.00    -0.08   0.06   0.04
                     58                     59                     60
                        a                      a                      a 
 Frequencies --  2874.2299              2950.8594              2977.8878
 Red. masses --     1.9806                 1.9724                 1.5031
 Frc consts  --     0.0000                 0.0000                 0.0000
 IR Inten    --  1391.8672                 4.0926                 6.0891
 Raman Activ --     0.0000                 0.0000                 0.0000
 Depolar     --     0.0000                 0.0000                 0.0000
 Atom AN      X      Y      Z        X      Y      Z        X      Y      Z
   1   7     0.02   0.14   0.23    -0.00  -0.01  -0.02     0.00  -0.01  -0.02
   2   6    -0.01  -0.02  -0.02    -0.00  -0.26  -0.14    -0.02   0.11  -0.18
   3   6    -0.00  -0.00  -0.00     0.00  -0.01  -0.01    -0.01   0.00  -0.01
   4   6     0.01  -0.01  -0.00    -0.00   0.00   0.00    -0.00   0.00   0.00
   5   6    -0.00   0.00   0.00     0.00  -0.00  -0.00     0.00   0.00   0.00
   6   6    -0.00   0.00   0.00     0.00   0.00   0.00     0.00   0.00   0.00
   7   6     0.00  -0.00   0.00    -0.00   0.00  -0.00    -0.00   0.00  -0.00
   8   6     0.00  -0.00  -0.00    -0.00   0.00   0.00     0.00  -0.00   0.00
   9   6    -0.00   0.00   0.00     0.00   0.00   0.00    -0.00   0.00   0.00
  10   6     0.00  -0.00   0.00    -0.00   0.00   0.00    -0.00   0.00  -0.00
  11   6     0.00  -0.00  -0.00    -0.00  -0.00  -0.00     0.00   0.00  -0.00
  12   6    -0.00   0.00   0.00     0.00   0.00   0.00     0.00  -0.00   0.00
  13  17    -0.00  -0.01  -0.01     0.00   0.00   0.00     0.00   0.00   0.00
  14   1    -0.03   0.02  -0.00     0.00  -0.00   0.00     0.00  -0.00  -0.00
  15   1    -0.01  -0.45  -0.84     0.00   0.04   0.08     0.00   0.03   0.05
  16   1     0.00  -0.02   0.02     0.00  -0.01   0.00    -0.00   0.02  -0.01
  17   1    -0.00   0.01  -0.01    -0.05   0.66  -0.10     0.04  -0.69   0.06
  18   1     0.01   0.05   0.09     0.05   0.27   0.62     0.04   0.31   0.60
  19   1    -0.02   0.02   0.01     0.01  -0.01  -0.00     0.00  -0.00  -0.00
  20   1     0.00  -0.00  -0.00    -0.00   0.00   0.00    -0.00  -0.00  -0.00
  21   1    -0.00  -0.00  -0.00    -0.00  -0.00  -0.01    -0.00  -0.00  -0.01
  22   1    -0.00  -0.00  -0.00     0.00   0.00  -0.00     0.00  -0.00  -0.00
  23   1    -0.00   0.00  -0.00     0.00   0.00   0.00     0.00  -0.00   0.00
  24   1    -0.00   0.00   0.00     0.00  -0.00   0.00     0.00   0.00  -0.00
  25   1    -0.00  -0.00   0.00    -0.00  -0.00  -0.00    -0.00  -0.00  -0.00
                     61                     62                     63
                        a                      a                      a 
 Frequencies --  3088.7749              3091.4196              3098.6954
 Red. masses --     1.8665                 1.7556                 1.8072
 Frc consts  --     0.0000                 0.0000                 0.0000
 IR Inten    --   294.0861                 2.5962                22.3420
 Raman Activ --     0.0000                 0.0000                 0.0000
 Depolar     --     0.0000                 0.0000                 0.0000
 Atom AN      X      Y      Z        X      Y      Z        X      Y      Z
   1   7    -0.00   0.01   0.01     0.00  -0.00   0.00    -0.00   0.00   0.00
   2   6     0.00   0.00   0.00    -0.00  -0.00  -0.00     0.00  -0.00   0.00
   3   6    -0.01   0.00  -0.00     0.00  -0.00  -0.00     0.00  -0.00   0.00
   4   6    -0.19   0.14   0.14     0.00  -0.00  -0.00     0.00  -0.00  -0.00
   5   6    -0.01  -0.01  -0.03     0.00   0.00   0.00    -0.00  -0.00  -0.01
   6   6    -0.00  -0.01  -0.01     0.00   0.00   0.01     0.01   0.01   0.04
   7   6     0.00  -0.00  -0.00    -0.00  -0.00  -0.00    -0.00  -0.00  -0.00
   8   6     0.00  -0.00  -0.00     0.00  -0.00  -0.00     0.00   0.00   0.00
   9   6     0.00   0.00   0.01    -0.01  -0.01  -0.04     0.02   0.03   0.09
  10   6     0.00  -0.00   0.00     0.14  -0.03   0.06    -0.16   0.04  -0.07
  11   6     0.00  -0.00  -0.00    -0.13   0.10   0.10    -0.07   0.06   0.05
  12   6    -0.00  -0.00  -0.01    -0.02  -0.02  -0.07    -0.03  -0.05  -0.13
  13  17     0.00   0.00  -0.00    -0.00  -0.00   0.00    -0.00   0.00   0.00
  14   1     0.00  -0.00  -0.00    -0.00   0.00  -0.00    -0.00   0.00  -0.00
  15   1     0.00  -0.02  -0.03     0.00  -0.00  -0.00    -0.00  -0.00  -0.00
  16   1     0.00  -0.01   0.00     0.00   0.00  -0.00     0.00  -0.00   0.00
  17   1     0.00  -0.01   0.00    -0.00   0.00  -0.00    -0.00   0.00  -0.00
  18   1    -0.00  -0.00  -0.00    -0.00   0.00   0.00    -0.00  -0.00  -0.00
  19   1     0.63  -0.50  -0.49    -0.00   0.00   0.00    -0.01   0.01   0.01
  20   1     0.04   0.05   0.15    -0.00  -0.00  -0.01     0.01   0.01   0.03
  21   1     0.01   0.02   0.04    -0.01  -0.01  -0.03    -0.03  -0.05  -0.13
  22   1    -0.01  -0.01  -0.03     0.04   0.05   0.15    -0.08  -0.11  -0.32
  23   1    -0.01   0.00  -0.01    -0.51   0.12  -0.23     0.56  -0.14   0.24
  24   1    -0.00   0.00   0.00     0.46  -0.37  -0.36     0.25  -0.20  -0.19
  25   1     0.01   0.01   0.03     0.07   0.10   0.28     0.11   0.16   0.47
                     64                     65                     66
                        a                      a                      a 
 Frequencies --  3106.0763              3109.9657              3113.4006
 Red. masses --     1.8377                 1.8464                 1.8858
 Frc consts  --     0.0000                 0.0000                 0.0000
 IR Inten    --    19.3008                84.0561                 6.8364
 Raman Activ --     0.0000                 0.0000                 0.0000
 Depolar     --     0.0000                 0.0000                 0.0000
 Atom AN      X      Y      Z        X      Y      Z        X      Y      Z
   1   7    -0.00   0.00  -0.00    -0.00  -0.00  -0.00    -0.00   0.00   0.00
   2   6     0.00   0.00   0.00    -0.00  -0.00  -0.00     0.00   0.00   0.00
   3   6     0.01  -0.00   0.01    -0.00   0.00  -0.00     0.00  -0.00  -0.00
   4   6    -0.01   0.01   0.00     0.00   0.00   0.00    -0.03   0.03   0.02
   5   6     0.00   0.00   0.00     0.01   0.01   0.04     0.04   0.06   0.16
   6   6     0.05   0.07   0.21    -0.03  -0.04  -0.12     0.01   0.01   0.04
   7   6    -0.01   0.00   0.01    -0.00  -0.00  -0.01     0.00   0.00   0.00
   8   6     0.00  -0.00  -0.00     0.00  -0.00   0.00     0.01  -0.00  -0.00
   9   6    -0.01  -0.02  -0.05    -0.03  -0.04  -0.12    -0.03  -0.05  -0.13
  10   6     0.04  -0.01   0.02    -0.02   0.01  -0.00    -0.09   0.02  -0.04
  11   6     0.07  -0.06  -0.05     0.06  -0.05  -0.05    -0.06   0.04   0.04
  12   6    -0.02  -0.03  -0.09    -0.04  -0.05  -0.16     0.02   0.03   0.07
  13  17    -0.00   0.00   0.00     0.00  -0.00  -0.00    -0.00   0.00  -0.00
  14   1    -0.00   0.00   0.00     0.00  -0.00   0.00     0.00   0.00   0.00
  15   1     0.00   0.00  -0.00    -0.00   0.00   0.00     0.00  -0.00  -0.00
  16   1    -0.00  -0.00   0.00    -0.00   0.00  -0.00     0.00  -0.00   0.00
  17   1    -0.00   0.00   0.00    -0.00  -0.00  -0.00    -0.00   0.00   0.00
  18   1    -0.00  -0.00  -0.01     0.00   0.00   0.01    -0.00  -0.00  -0.00
  19   1     0.02  -0.02  -0.02    -0.00   0.00   0.00     0.10  -0.07  -0.07
  20   1    -0.00  -0.00  -0.01    -0.03  -0.05  -0.14    -0.14  -0.20  -0.57
  21   1    -0.18  -0.26  -0.74     0.11   0.15   0.44    -0.04  -0.05  -0.15
  22   1     0.04   0.06   0.17     0.10   0.15   0.42     0.11   0.15   0.44
  23   1    -0.12   0.03  -0.05     0.05  -0.01   0.02     0.30  -0.07   0.13
  24   1    -0.23   0.18   0.18    -0.20   0.16   0.16     0.18  -0.14  -0.14
  25   1     0.08   0.10   0.30     0.13   0.19   0.56    -0.06  -0.09  -0.25
                     67                     68                     69
                        a                      a                      a 
 Frequencies --  3115.9443              3183.9263              3208.0764
 Red. masses --     1.8632                 1.8345                 1.6943
 Frc consts  --     0.0000                 0.0000                 0.0000
 IR Inten    --    25.3941                33.8143                30.0720
 Raman Activ --     0.0000                 0.0000                 0.0000
 Depolar     --     0.0000                 0.0000                 0.0000
 Atom AN      X      Y      Z        X      Y      Z        X      Y      Z
   1   7    -0.00  -0.00  -0.00     0.22  -0.08   0.11     0.00   0.23  -0.04
   2   6    -0.00  -0.00   0.00     0.00  -0.00   0.00     0.00   0.01  -0.00
   3   6    -0.00  -0.00  -0.00    -0.00   0.00  -0.00     0.00  -0.00   0.00
   4   6    -0.02   0.02   0.02    -0.00   0.00   0.00     0.00  -0.00  -0.00
   5   6     0.05   0.06   0.18     0.00   0.00   0.00     0.00   0.00   0.00
   6   6    -0.00  -0.01  -0.02    -0.00   0.00  -0.00    -0.00  -0.00  -0.00
   7   6    -0.00  -0.00  -0.00     0.00  -0.00  -0.00     0.00   0.00   0.00
   8   6     0.00   0.00   0.01    -0.00  -0.00  -0.00    -0.00   0.00   0.00
   9   6     0.03   0.05   0.15     0.00   0.00   0.00     0.00   0.00   0.00
  10   6     0.07  -0.02   0.03     0.00  -0.00   0.00     0.00  -0.00   0.00
  11   6     0.03  -0.03  -0.03     0.00  -0.00  -0.00     0.00  -0.00  -0.00
  12   6    -0.01  -0.01  -0.04    -0.00  -0.00  -0.00    -0.00  -0.00  -0.00
  13  17     0.00   0.00  -0.00    -0.00  -0.00  -0.00     0.00  -0.00  -0.00
  14   1     0.00  -0.00   0.00    -0.84   0.17  -0.43    -0.11   0.05  -0.06
  15   1     0.00   0.00   0.00     0.02   0.01   0.04    -0.00   0.04   0.04
  16   1    -0.00   0.00  -0.00     0.01   0.11  -0.01     0.09  -0.94   0.17
  17   1     0.00   0.00  -0.00    -0.00   0.00  -0.00     0.00  -0.02   0.00
  18   1     0.00  -0.00  -0.00    -0.00  -0.00  -0.00    -0.00   0.00   0.01
  19   1     0.05  -0.04  -0.04     0.00  -0.00  -0.00    -0.00   0.00   0.00
  20   1    -0.15  -0.23  -0.65    -0.00  -0.00  -0.00    -0.00  -0.00  -0.00
  21   1     0.01   0.02   0.06     0.00   0.00   0.00     0.00   0.00   0.00
  22   1    -0.13  -0.18  -0.51    -0.00  -0.00  -0.00    -0.00  -0.00  -0.00
  23   1    -0.24   0.06  -0.10    -0.00   0.00  -0.00    -0.00   0.00  -0.00
  24   1    -0.11   0.08   0.08    -0.00   0.00   0.00    -0.00   0.00   0.00
  25   1     0.03   0.04   0.13     0.00   0.00   0.00     0.00   0.00   0.00
