      -----------------------------------------------------------      
     |                   =====================                   |     
     |                           x T B                           |     
     |                   =====================                   |     
     |                         S. Grimme                         |     
     |          Mulliken Center for Theoretical Chemistry        |     
     |                    University of Bonn                     |     
      -----------------------------------------------------------      

   * xtb version 6.5.1 (fef0646) compiled by 'conda@b96dff2e9fd6' on 2023-01-04

   xtb is free software: you can redistribute it and/or modify it under
   the terms of the GNU Lesser General Public License as published by
   the Free Software Foundation, either version 3 of the License, or
   (at your option) any later version.
   
   xtb is distributed in the hope that it will be useful,
   but WITHOUT ANY WARRANTY; without even the implied warranty of
   MERCHANTABILITY or FITNESS FOR A PARTICULAR PURPOSE.  See the
   GNU Lesser General Public License for more details.
   
   Cite this work as:
   * C. Bannwarth, E. Caldeweyher, S. Ehlert, A. Hansen, P. Pracht,
     J. Seibert, S. Spicher, S. Grimme, WIREs Comput. Mol. Sci., 2020, 11,
     e01493. DOI: 10.1002/wcms.1493
   
   for GFN2-xTB:
   * C. Bannwarth, S. Ehlert and S. Grimme., J. Chem. Theory Comput., 2019,
     15, 1652-1671. DOI: 10.1021/acs.jctc.8b01176
   for GFN1-xTB:
   * S. Grimme, C. Bannwarth, P. Shushkov, J. Chem. Theory Comput., 2017,
     13, 1989-2009. DOI: 10.1021/acs.jctc.7b00118
   for GFN0-xTB:
   * P. Pracht, E. Caldeweyher, S. Ehlert, S. Grimme, ChemRxiv, 2019, preprint.
     DOI: 10.26434/chemrxiv.8326202.v1
   for GFN-FF:
   * S. Spicher and S. Grimme, Angew. Chem. Int. Ed., 2020, 59, 15665-15673.
     DOI: 10.1002/anie.202004239
   
   for ALPB and GBSA implicit solvation:
   * S. Ehlert, M. Stahn, S. Spicher, S. Grimme, J. Chem. Theory Comput.,
     2021, 17, 4250-4261. DOI: 10.1021/acs.jctc.1c00471
   
   for DFT-D4:
   * E. Caldeweyher, C. Bannwarth and S. Grimme, J. Chem. Phys., 2017,
     147, 034112. DOI: 10.1063/1.4993215
   * E. Caldeweyher, S. Ehlert, A. Hansen, H. Neugebauer, S. Spicher,
     C. Bannwarth and S. Grimme, J. Chem. Phys., 2019, 150, 154122.
     DOI: 10.1063/1.5090222
   * E. Caldeweyher, J.-M. Mewes, S. Ehlert and S. Grimme, Phys. Chem. Chem. Phys.
     2020, 22, 8499-8512. DOI: 10.1039/D0CP00502A
   
   for sTDA-xTB:
   * S. Grimme and C. Bannwarth, J. Chem. Phys., 2016, 145, 054103.
     DOI: 10.1063/1.4959605
   
   in the mass-spec context:
   * V. Asgeirsson, C. Bauer and S. Grimme, Chem. Sci., 2017, 8, 4879.
     DOI: 10.1039/c7sc00601b
   * J. Koopman and S. Grimme, ACS Omega 2019, 4, 12, 15120-15133.
     DOI: 10.1021/acsomega.9b02011
   
   for metadynamics refer to:
   * S. Grimme, J. Chem. Theory Comput., 2019, 155, 2847-2862
     DOI: 10.1021/acs.jctc.9b00143
   
   for SPH calculations refer to:
   * S. Spicher and S. Grimme, J. Chem. Theory Comput., 2021, 17, 1701-1714
     DOI: 10.1021/acs.jctc.0c01306
   
   with help from (in alphabetical order)
   P. Atkinson, C. Bannwarth, F. Bohle, G. Brandenburg, E. Caldeweyher
   M. Checinski, S. Dohm, S. Ehlert, S. Ehrlich, I. Gerasimov, C. Hölzer
   A. Katbashev, J. Koopman, C. Lavigne, S. Lehtola, F. März, M. Müller,
   F. Musil, H. Neugebauer, J. Pisarek, C. Plett, P. Pracht, F. Pultar,
   J. Seibert, P. Shushkov, S. Spicher, M. Stahn, M. Steiner, T. Strunk,
   J. Stückrath, T. Rose, and J. Unsleber
   
 * started run on 2023/01/23 at 19:10:51.210     

           -------------------------------------------------
          |                Calculation Setup                |
           -------------------------------------------------

          program call               : xtb init.xyz --opt -c 1 -u 0 -P 16 --input xtb.inp
          hostname                   : gpg-woodward
          coordinate file            : init.xyz
          omp threads                :                    16

   ID    Z sym.   atoms
    1    7 N      1
    2    6 C      2-12, 14-18
    3    9 F      13
    4    1 H      19-35

           -------------------------------------------------
          |                 G F N 2 - x T B                 |
           -------------------------------------------------

        Reference                      10.1021/acs.jctc.8b01176
      * Hamiltonian:
        H0-scaling (s, p, d)           1.850000    2.230000    2.230000
        zeta-weighting                 0.500000
      * Dispersion:
        s8                             2.700000
        a1                             0.520000
        a2                             5.000000
        s9                             5.000000
      * Repulsion:
        kExp                           1.500000    1.000000
        rExp                           1.000000
      * Coulomb:
        alpha                          2.000000
        third order                    shell-resolved
        anisotropic                    true
        a3                             3.000000
        a5                             4.000000
        cn-shift                       1.200000
        cn-exp                         4.000000
        max-rad                        5.000000


          ...................................................
          :                      SETUP                      :
          :.................................................:
          :  # basis functions                  89          :
          :  # atomic orbitals                  89          :
          :  # shells                           53          :
          :  # electrons                        92          :
          :  max. iterations                   250          :
          :  Hamiltonian                  GFN2-xTB          :
          :  restarted?                      false          :
          :  GBSA solvation                  false          :
          :  PC potential                    false          :
          :  electronic temp.          300.0000000     K    :
          :  accuracy                    1.0000000          :
          :  -> integral cutoff          0.2500000E+02      :
          :  -> integral neglect         0.1000000E-07      :
          :  -> SCF convergence          0.1000000E-05 Eh   :
          :  -> wf. convergence          0.1000000E-03 e    :
          :  Broyden damping             0.4000000          :
          ...................................................

 iter      E             dE          RMSdq      gap      omega  full diag
   1    -50.7751245 -0.507751E+02  0.443E+00    3.02       0.0  T
   2    -50.9049416 -0.129817E+00  0.266E+00    2.92       1.0  T
   3    -50.9040118  0.929851E-03  0.131E+00    2.85       1.0  T
   4    -50.9086910 -0.467924E-02  0.623E-01    2.75       1.0  T
   5    -50.9156835 -0.699248E-02  0.127E-01    2.78       1.0  T
   6    -50.9159128 -0.229276E-03  0.748E-02    2.78       1.0  T
   7    -50.9159631 -0.503167E-04  0.259E-02    2.78       1.0  T
   8    -50.9159810 -0.179213E-04  0.708E-03    2.78       2.4  T
   9    -50.9159816 -0.587387E-06  0.278E-03    2.78       6.1  T
  10    -50.9159816 -0.391976E-07  0.129E-03    2.78      13.1  T
  11    -50.9159817 -0.327672E-07  0.457E-04    2.78      36.9  T
  12    -50.9159817 -0.269964E-08  0.190E-04    2.78      89.0  T

   *** convergence criteria satisfied after 12 iterations ***

         #    Occupation            Energy/Eh            Energy/eV
      -------------------------------------------------------------
         1        2.0000           -0.8924515             -24.2848
       ...           ...                  ...                  ...
        40        2.0000           -0.5216766             -14.1955
        41        2.0000           -0.5152498             -14.0207
        42        2.0000           -0.5110359             -13.9060
        43        2.0000           -0.4992597             -13.5855
        44        2.0000           -0.4953610             -13.4795
        45        2.0000           -0.4734339             -12.8828
        46        2.0000           -0.4623899             -12.5823 (HOMO)
        47                         -0.3601075              -9.7990 (LUMO)
        48                         -0.3393501              -9.2342
        49                         -0.3124181              -8.5013
        50                         -0.3001173              -8.1666
        51                         -0.2625337              -7.1439
       ...                                ...                  ...
        89                          0.5777314              15.7209
      -------------------------------------------------------------
                  HL-Gap            0.1022824 Eh            2.7832 eV
             Fermi-level           -0.4112487 Eh          -11.1906 eV

 SCC (total)                   0 d,  0 h,  0 min,  0.102 sec
 SCC setup                      ...        0 min,  0.000 sec (  0.489%)
 Dispersion                     ...        0 min,  0.001 sec (  0.931%)
 classical contributions        ...        0 min,  0.000 sec (  0.184%)
 integral evaluation            ...        0 min,  0.005 sec (  4.542%)
 iterations                     ...        0 min,  0.086 sec ( 84.684%)
 molecular gradient             ...        0 min,  0.008 sec (  8.279%)
 printout                       ...        0 min,  0.001 sec (  0.718%)

         :::::::::::::::::::::::::::::::::::::::::::::::::::::
         ::                     SUMMARY                     ::
         :::::::::::::::::::::::::::::::::::::::::::::::::::::
         :: total energy             -50.115946619287 Eh    ::
         :: gradient norm              0.045106087558 Eh/a0 ::
         :: HOMO-LUMO gap              2.783244987963 eV    ::
         ::.................................................::
         :: SCC energy               -50.915981655747 Eh    ::
         :: -> isotropic ES            0.117996314531 Eh    ::
         :: -> anisotropic ES         -0.010483613949 Eh    ::
         :: -> anisotropic XC          0.028276892936 Eh    ::
         :: -> dispersion             -0.031203034767 Eh    ::
         :: repulsion energy           0.800273095754 Eh    ::
         :: add. restraining           0.000000000000 Eh    ::
         :: total charge               1.000000000000 e     ::
         :::::::::::::::::::::::::::::::::::::::::::::::::::::

      ----------------------------------------------------------- 
     |                   =====================                   |
     |                        A N C O P T                        |
     |                   =====================                   |
     |               Approximate Normal Coordinate               |
     |                Rational Function Optimizer                |
      ----------------------------------------------------------- 

          ...................................................
          :                      SETUP                      :
          :.................................................:
          :   optimization level            normal          :
          :   max. optcycles                   200          :
          :   ANC micro-cycles                  20          :
          :   degrees of freedom                99          :
          :.................................................:
          :   RF solver                   davidson          :
          :   write xtbopt.log                true          :
          :   linear?                        false          :
          :   energy convergence         0.5000000E-05 Eh   :
          :   grad. convergence          0.1000000E-02 Eh/α :
          :   maximium RF displ.         1.0000000          :
          :   Hlow (freq-cutoff)         0.1000000E-01      :
          :   Hmax (freq-cutoff)         5.0000000          :
          :   S6 in model hess.         20.0000000          :
          ...................................................

generating ANC from model Hessian ...
Using Lindh-Hessian (1995)
 Shifting diagonal of input Hessian by    9.7269118049898521E-003
 Lowest  eigenvalues of input Hessian
    0.000000    0.000000    0.000000    0.000000    0.000000    0.000000
    0.010000    0.010365    0.010543    0.011218    0.011551    0.013126
    0.014037    0.015582    0.017797    0.020316    0.023356    0.023675
 Highest eigenvalues
    1.834112    1.869846    1.924302    1.965499    2.032288    2.074082


........................................................................
.............................. CYCLE    1 ..............................
........................................................................
   1    -50.9159817 -0.509160E+02  0.739E-05    2.78       0.0  T
   2    -50.9159817 -0.276827E-10  0.460E-05    2.78     367.6  T
   3    -50.9159817 -0.738964E-11  0.296E-05    2.78     570.9  T
     SCC iter.                  ...        0 min,  0.012 sec
     gradient                   ...        0 min,  0.007 sec
 * total energy  :   -50.1159466 Eh     change       -0.1548273E-09 Eh
   gradient norm :     0.0451047 Eh/α   predicted     0.0000000E+00 (-100.00%)
   displ. norm   :     0.2301777 α      lambda       -0.5179151E-02
   maximum displ.:     0.0994482 α      in ANC's #7, #25, #11, ...

........................................................................
.............................. CYCLE    2 ..............................
........................................................................
   1    -50.9502980 -0.509503E+02  0.150E-01    2.77       0.0  T
   2    -50.9503137 -0.157787E-04  0.888E-02    2.78       1.0  T
   3    -50.9502867  0.270558E-04  0.362E-02    2.77       1.0  T
   4    -50.9503181 -0.314496E-04  0.708E-03    2.78       2.4  T
   5    -50.9503192 -0.109953E-05  0.298E-03    2.78       5.7  T
   6    -50.9503194 -0.152112E-06  0.126E-03    2.78      13.4  T
   7    -50.9503194 -0.129547E-07  0.386E-04    2.78      43.8  T
   8    -50.9503194 -0.155737E-08  0.157E-04    2.78     107.9  T
     SCC iter.                  ...        0 min,  0.031 sec
     gradient                   ...        0 min,  0.007 sec
 * total energy  :   -50.1193115 Eh     change       -0.3364869E-02 Eh
   gradient norm :     0.0190435 Eh/α   predicted    -0.2727365E-02 ( -18.95%)
   displ. norm   :     0.2349643 α      lambda       -0.1286581E-02
   maximum displ.:     0.1406288 α      in ANC's #7, #4, #3, ...

........................................................................
.............................. CYCLE    3 ..............................
........................................................................
   1    -50.9645330 -0.509645E+02  0.824E-02    2.75       0.0  T
   2    -50.9645422 -0.913697E-05  0.488E-02    2.75       1.0  T
   3    -50.9645299  0.123032E-04  0.274E-02    2.75       1.0  T
   4    -50.9645467 -0.168477E-04  0.455E-03    2.75       3.7  T
   5    -50.9645471 -0.347961E-06  0.221E-03    2.75       7.7  T
   6    -50.9645472 -0.123933E-06  0.810E-04    2.75      20.9  T
   7    -50.9645472 -0.474009E-08  0.270E-04    2.75      62.7  T
     SCC iter.                  ...        0 min,  0.027 sec
     gradient                   ...        0 min,  0.007 sec
 * total energy  :   -50.1201540 Eh     change       -0.8425464E-03 Eh
   gradient norm :     0.0067816 Eh/α   predicted    -0.6794131E-03 ( -19.36%)
   displ. norm   :     0.2654555 α      lambda       -0.5801250E-03
   maximum displ.:     0.1506983 α      in ANC's #7, #3, #4, ...

........................................................................
.............................. CYCLE    4 ..............................
........................................................................
   1    -50.9669248 -0.509669E+02  0.738E-02    2.71       0.0  T
   2    -50.9669319 -0.709045E-05  0.432E-02    2.72       1.0  T
   3    -50.9669211  0.108048E-04  0.258E-02    2.72       1.0  T
   4    -50.9669367 -0.155959E-04  0.365E-03    2.72       4.6  T
   5    -50.9669370 -0.265429E-06  0.173E-03    2.72       9.8  T
   6    -50.9669371 -0.810155E-07  0.631E-04    2.72      26.8  T
   7    -50.9669371 -0.243280E-08  0.247E-04    2.72      68.5  T
     SCC iter.                  ...        0 min,  0.027 sec
     gradient                   ...        0 min,  0.007 sec
 * total energy  :   -50.1206066 Eh     change       -0.4525761E-03 Eh
   gradient norm :     0.0066411 Eh/α   predicted    -0.3105042E-03 ( -31.39%)
   displ. norm   :     0.4224680 α      lambda       -0.6760744E-03
   maximum displ.:     0.2177907 α      in ANC's #7, #3, #4, ...

........................................................................
.............................. CYCLE    5 ..............................
........................................................................
   1    -50.9645018 -0.509645E+02  0.117E-01    2.67       0.0  T
   2    -50.9645136 -0.117433E-04  0.687E-02    2.68       1.0  T
   3    -50.9644835  0.300314E-04  0.376E-02    2.68       1.0  T
   4    -50.9645220 -0.384999E-04  0.497E-03    2.68       3.4  T
   5    -50.9645226 -0.565210E-06  0.217E-03    2.68       7.8  T
   6    -50.9645227 -0.117245E-06  0.855E-04    2.68      19.8  T
   7    -50.9645227 -0.436889E-08  0.352E-04    2.68      48.0  T
     SCC iter.                  ...        0 min,  0.026 sec
     gradient                   ...        0 min,  0.007 sec
 * total energy  :   -50.1211261 Eh     change       -0.5194396E-03 Eh
   gradient norm :     0.0103984 Eh/α   predicted    -0.3983716E-03 ( -23.31%)
   displ. norm   :     0.4327836 α      lambda       -0.5600168E-03
   maximum displ.:     0.2210923 α      in ANC's #3, #5, #4, ...

........................................................................
.............................. CYCLE    6 ..............................
........................................................................
   1    -50.9606595 -0.509607E+02  0.127E-01    2.64       0.0  T
   2    -50.9606688 -0.929548E-05  0.744E-02    2.65       1.0  T
   3    -50.9606366  0.321890E-04  0.353E-02    2.65       1.0  T
   4    -50.9606751 -0.385728E-04  0.478E-03    2.65       3.5  T
   5    -50.9606757 -0.556422E-06  0.195E-03    2.65       8.7  T
   6    -50.9606758 -0.835924E-07  0.810E-04    2.65      20.9  T
   7    -50.9606758 -0.385514E-08  0.345E-04    2.65      49.0  T
     SCC iter.                  ...        0 min,  0.026 sec
     gradient                   ...        0 min,  0.007 sec
 * total energy  :   -50.1215728 Eh     change       -0.4467255E-03 Eh
   gradient norm :     0.0111926 Eh/α   predicted    -0.3324567E-03 ( -25.58%)
   displ. norm   :     0.4392369 α      lambda       -0.5691319E-03
   maximum displ.:     0.2360928 α      in ANC's #3, #5, #4, ...

........................................................................
.............................. CYCLE    7 ..............................
........................................................................
   1    -50.9579675 -0.509580E+02  0.136E-01    2.63       0.0  T
   2    -50.9579757 -0.827871E-05  0.797E-02    2.63       1.0  T
   3    -50.9579464  0.293521E-04  0.315E-02    2.63       1.0  T
   4    -50.9579808 -0.343685E-04  0.474E-03    2.63       3.6  T
   5    -50.9579813 -0.539612E-06  0.189E-03    2.63       9.0  T
   6    -50.9579814 -0.683059E-07  0.774E-04    2.63      21.8  T
   7    -50.9579814 -0.312617E-08  0.331E-04    2.63      51.1  T
     SCC iter.                  ...        0 min,  0.026 sec
     gradient                   ...        0 min,  0.006 sec
 * total energy  :   -50.1220318 Eh     change       -0.4590317E-03 Eh
   gradient norm :     0.0089585 Eh/α   predicted    -0.3394696E-03 ( -26.05%)
   displ. norm   :     0.4687551 α      lambda       -0.6170259E-03
   maximum displ.:     0.2626685 α      in ANC's #3, #5, #4, ...

........................................................................
.............................. CYCLE    8 ..............................
........................................................................
   1    -50.9574677 -0.509575E+02  0.151E-01    2.62       0.0  T
   2    -50.9574782 -0.104086E-04  0.881E-02    2.62       1.0  T
   3    -50.9574445  0.336083E-04  0.329E-02    2.63       1.0  T
   4    -50.9574843 -0.397806E-04  0.498E-03    2.63       3.4  T
   5    -50.9574849 -0.572288E-06  0.208E-03    2.63       8.1  T
   6    -50.9574850 -0.765923E-07  0.823E-04    2.63      20.5  T
   7    -50.9574850 -0.350070E-08  0.346E-04    2.63      48.9  T
     SCC iter.                  ...        0 min,  0.026 sec
     gradient                   ...        0 min,  0.007 sec
 * total energy  :   -50.1225186 Eh     change       -0.4867605E-03 Eh
   gradient norm :     0.0067077 Eh/α   predicted    -0.3763033E-03 ( -22.69%)
   displ. norm   :     0.4713909 α      lambda       -0.5739885E-03
   maximum displ.:     0.2702012 α      in ANC's #3, #5, #4, ...

........................................................................
.............................. CYCLE    9 ..............................
........................................................................
   1    -50.9588140 -0.509588E+02  0.155E-01    2.62       0.0  T
   2    -50.9588270 -0.130778E-04  0.906E-02    2.62       1.0  T
   3    -50.9587872  0.398153E-04  0.362E-02    2.62       1.0  T
   4    -50.9588351 -0.478607E-04  0.523E-03    2.62       3.2  T
   5    -50.9588357 -0.657261E-06  0.208E-03    2.62       8.1  T
   6    -50.9588358 -0.739873E-07  0.865E-04    2.62      19.5  T
   7    -50.9588358 -0.419178E-08  0.351E-04    2.62      48.1  T
     SCC iter.                  ...        0 min,  0.026 sec
     gradient                   ...        0 min,  0.007 sec
 * total energy  :   -50.1229693 Eh     change       -0.4506825E-03 Eh
   gradient norm :     0.0074946 Eh/α   predicted    -0.3507679E-03 ( -22.17%)
   displ. norm   :     0.4780243 α      lambda       -0.5106452E-03
   maximum displ.:     0.2866126 α      in ANC's #5, #3, #14, ...

........................................................................
.............................. CYCLE   10 ..............................
........................................................................
   1    -50.9606733 -0.509607E+02  0.164E-01    2.61       0.0  T
   2    -50.9606906 -0.172605E-04  0.960E-02    2.61       1.0  T
   3    -50.9606419  0.486610E-04  0.407E-02    2.61       1.0  T
   4    -50.9607012 -0.592423E-04  0.586E-03    2.61       2.9  T
   5    -50.9607021 -0.889950E-06  0.207E-03    2.61       8.2  T
   6    -50.9607022 -0.773901E-07  0.920E-04    2.61      18.4  T
   7    -50.9607022 -0.451151E-08  0.385E-04    2.61      43.9  T
     SCC iter.                  ...        0 min,  0.026 sec
     gradient                   ...        0 min,  0.006 sec
 * total energy  :   -50.1233707 Eh     change       -0.4014976E-03 Eh
   gradient norm :     0.0077364 Eh/α   predicted    -0.3136681E-03 ( -21.88%)
   displ. norm   :     0.4999314 α      lambda       -0.4324391E-03
   maximum displ.:     0.3244134 α      in ANC's #5, #3, #14, ...

........................................................................
.............................. CYCLE   11 ..............................
........................................................................
   1    -50.9604420 -0.509604E+02  0.181E-01    2.59       0.0  T
   2    -50.9604686 -0.265650E-04  0.106E-01    2.59       1.0  T
   3    -50.9604076  0.609829E-04  0.476E-02    2.59       1.0  T
   4    -50.9604836 -0.759943E-04  0.712E-03    2.59       2.4  T
   5    -50.9604849 -0.131446E-05  0.259E-03    2.59       6.5  T
   6    -50.9604851 -0.158043E-06  0.103E-03    2.59      16.4  T
   7    -50.9604851 -0.542988E-08  0.478E-04    2.59      35.4  T
   8    -50.9604851 -0.280679E-08  0.889E-05    2.59     190.2  T
     SCC iter.                  ...        0 min,  0.029 sec
     gradient                   ...        0 min,  0.007 sec
 * total energy  :   -50.1237041 Eh     change       -0.3333438E-03 Eh
   gradient norm :     0.0065175 Eh/α   predicted    -0.2702625E-03 ( -18.92%)
   displ. norm   :     0.4062086 α      lambda       -0.3991929E-03
   maximum displ.:     0.2668015 α      in ANC's #5, #3, #14, ...

........................................................................
.............................. CYCLE   12 ..............................
........................................................................
   1    -50.9666286 -0.509666E+02  0.159E-01    2.59       0.0  T
   2    -50.9666454 -0.168023E-04  0.928E-02    2.59       1.0  T
   3    -50.9666034  0.419789E-04  0.390E-02    2.59       1.0  T
   4    -50.9666562 -0.527464E-04  0.409E-03    2.59       4.1  T
   5    -50.9666566 -0.458003E-06  0.157E-03    2.59      10.7  T
   6    -50.9666567 -0.238618E-07  0.837E-04    2.59      20.2  T
   7    -50.9666567 -0.567874E-08  0.281E-04    2.59      60.2  T
     SCC iter.                  ...        0 min,  0.026 sec
     gradient                   ...        0 min,  0.006 sec
 * total energy  :   -50.1238565 Eh     change       -0.1523678E-03 Eh
   gradient norm :     0.0097115 Eh/α   predicted    -0.2325321E-03 (  52.61%)
   displ. norm   :     0.4866138 α      lambda       -0.4499097E-03
   maximum displ.:     0.3400480 α      in ANC's #5, #3, #14, ...

........................................................................
.............................. CYCLE   13 ..............................
........................................................................
   1    -50.9584939 -0.509585E+02  0.186E-01    2.55       0.0  T
   2    -50.9585392 -0.453556E-04  0.109E-01    2.55       1.0  T
   3    -50.9584857  0.535316E-04  0.514E-02    2.56       1.0  T
   4    -50.9585582 -0.724563E-04  0.822E-03    2.56       2.1  T
   5    -50.9585596 -0.139487E-05  0.427E-03    2.55       4.0  T
   6    -50.9585601 -0.488592E-06  0.144E-03    2.55      11.8  T
   7    -50.9585601 -0.918866E-08  0.668E-04    2.55      25.3  T
   8    -50.9585601 -0.738537E-08  0.108E-04    2.55     157.2  T
     SCC iter.                  ...        0 min,  0.032 sec
     gradient                   ...        0 min,  0.006 sec
 * total energy  :   -50.1240371 Eh     change       -0.1806770E-03 Eh
   gradient norm :     0.0094018 Eh/α   predicted    -0.2782530E-03 (  54.01%)
   displ. norm   :     0.1117449 α      lambda       -0.1738948E-03
   maximum displ.:     0.0540678 α      in ANC's #4, #3, #5, ...

........................................................................
.............................. CYCLE   14 ..............................
........................................................................
   1    -50.9617757 -0.509618E+02  0.344E-02    2.57       0.0  T
   2    -50.9617771 -0.145607E-05  0.203E-02    2.57       1.0  T
   3    -50.9617748  0.235873E-05  0.101E-02    2.57       1.7  T
   4    -50.9617777 -0.296392E-05  0.209E-03    2.57       8.1  T
   5    -50.9617778 -0.854979E-07  0.803E-04    2.57      21.0  T
   6    -50.9617778 -0.149013E-07  0.371E-04    2.57      45.5  T
     SCC iter.                  ...        0 min,  0.022 sec
     gradient                   ...        0 min,  0.006 sec
 * total energy  :   -50.1241653 Eh     change       -0.1282042E-03 Eh
   gradient norm :     0.0050234 Eh/α   predicted    -0.8803381E-04 ( -31.33%)
   displ. norm   :     0.2695210 α      lambda       -0.2755664E-03
   maximum displ.:     0.1929535 α      in ANC's #5, #4, #3, ...

........................................................................
.............................. CYCLE   15 ..............................
........................................................................
   1    -50.9623774 -0.509624E+02  0.109E-01    2.57       0.0  T
   2    -50.9623874 -0.997191E-05  0.636E-02    2.57       1.0  T
   3    -50.9623704  0.170442E-04  0.299E-02    2.57       1.0  T
   4    -50.9623936 -0.232282E-04  0.233E-03    2.57       7.3  T
   5    -50.9623937 -0.125701E-06  0.911E-04    2.57      18.6  T
   6    -50.9623937 -0.568044E-08  0.514E-04    2.57      32.9  T
     SCC iter.                  ...        0 min,  0.022 sec
     gradient                   ...        0 min,  0.007 sec
 * total energy  :   -50.1243617 Eh     change       -0.1963801E-03 Eh
   gradient norm :     0.0052542 Eh/α   predicted    -0.1477933E-03 ( -24.74%)
   displ. norm   :     0.3623278 α      lambda       -0.2613619E-03
   maximum displ.:     0.2450451 α      in ANC's #5, #4, #2, ...

........................................................................
.............................. CYCLE   16 ..............................
........................................................................
   1    -50.9637244 -0.509637E+02  0.139E-01    2.58       0.0  T
   2    -50.9637376 -0.132603E-04  0.814E-02    2.58       1.0  T
   3    -50.9637091  0.284819E-04  0.368E-02    2.58       1.0  T
   4    -50.9637462 -0.371125E-04  0.300E-03    2.58       5.6  T
   5    -50.9637464 -0.168519E-06  0.136E-03    2.58      12.5  T
   6    -50.9637464 -0.132879E-07  0.737E-04    2.58      22.9  T
   7    -50.9637464 -0.682260E-08  0.282E-04    2.58      59.9  T
     SCC iter.                  ...        0 min,  0.026 sec
     gradient                   ...        0 min,  0.006 sec
 * total energy  :   -50.1245320 Eh     change       -0.1702780E-03 Eh
   gradient norm :     0.0057978 Eh/α   predicted    -0.1478398E-03 ( -13.18%)
   displ. norm   :     0.3572211 α      lambda       -0.1716035E-03
   maximum displ.:     0.2758619 α      in ANC's #5, #4, #3, ...

........................................................................
.............................. CYCLE   17 ..............................
........................................................................
   1    -50.9606870 -0.509607E+02  0.146E-01    2.57       0.0  T
   2    -50.9606993 -0.123092E-04  0.846E-02    2.56       1.0  T
   3    -50.9606720  0.273505E-04  0.333E-02    2.57       1.0  T
   4    -50.9607064 -0.344139E-04  0.263E-03    2.56       6.4  T
   5    -50.9607065 -0.146047E-06  0.134E-03    2.56      12.6  T
   6    -50.9607066 -0.258190E-07  0.684E-04    2.56      24.7  T
   7    -50.9607066 -0.327648E-08  0.348E-04    2.56      48.6  T
     SCC iter.                  ...        0 min,  0.026 sec
     gradient                   ...        0 min,  0.006 sec
 * total energy  :   -50.1246232 Eh     change       -0.9123670E-04 Eh
   gradient norm :     0.0053330 Eh/α   predicted    -0.9675206E-04 (   6.05%)
   displ. norm   :     0.1434722 α      lambda       -0.1217078E-03
   maximum displ.:     0.0891751 α      in ANC's #4, #6, #1, ...

........................................................................
.............................. CYCLE   18 ..............................
........................................................................
   1    -50.9627129 -0.509627E+02  0.413E-02    2.57       0.0  T
   2    -50.9627144 -0.151640E-05  0.242E-02    2.57       1.0  T
   3    -50.9627131  0.124067E-05  0.750E-03    2.57       2.3  T
   4    -50.9627146 -0.145962E-05  0.213E-03    2.57       7.9  T
   5    -50.9627147 -0.110723E-06  0.758E-04    2.57      22.3  T
   6    -50.9627147 -0.122532E-07  0.327E-04    2.57      51.6  T
     SCC iter.                  ...        0 min,  0.022 sec
     gradient                   ...        0 min,  0.006 sec
 * total energy  :   -50.1247094 Eh     change       -0.8613044E-04 Eh
   gradient norm :     0.0040913 Eh/α   predicted    -0.6210764E-04 ( -27.89%)
   displ. norm   :     0.1741312 α      lambda       -0.1074884E-03
   maximum displ.:     0.0908793 α      in ANC's #4, #5, #14, ...

........................................................................
.............................. CYCLE   19 ..............................
........................................................................
   1    -50.9634799 -0.509635E+02  0.529E-02    2.57       0.0  T
   2    -50.9634810 -0.117876E-05  0.310E-02    2.57       1.0  T
   3    -50.9634801  0.938140E-06  0.569E-03    2.57       3.0  T
   4    -50.9634812 -0.112899E-05  0.153E-03    2.57      11.1  T
   5    -50.9634813 -0.674773E-07  0.532E-04    2.57      31.8  T
   6    -50.9634813 -0.311388E-09  0.324E-04    2.57      52.2  T
     SCC iter.                  ...        0 min,  0.022 sec
     gradient                   ...        0 min,  0.006 sec
 * total energy  :   -50.1247732 Eh     change       -0.6381472E-04 Eh
   gradient norm :     0.0039392 Eh/α   predicted    -0.5537560E-04 ( -13.22%)
   displ. norm   :     0.1427832 α      lambda       -0.7178908E-04
   maximum displ.:     0.0730152 α      in ANC's #5, #14, #4, ...

........................................................................
.............................. CYCLE   20 ..............................
........................................................................
   1    -50.9629301 -0.509629E+02  0.466E-02    2.57       0.0  T
   2    -50.9629306 -0.484947E-06  0.274E-02    2.57       1.0  T
   3    -50.9629302  0.329542E-06  0.360E-03    2.57       4.7  T
   4    -50.9629306 -0.390329E-06  0.146E-03    2.57      11.6  T
   5    -50.9629307 -0.555209E-07  0.509E-04    2.57      33.2  T
   6    -50.9629307 -0.723119E-09  0.232E-04    2.57      72.8  T
     SCC iter.                  ...        0 min,  0.022 sec
     gradient                   ...        0 min,  0.005 sec
 * total energy  :   -50.1248042 Eh     change       -0.3106142E-04 Eh
   gradient norm :     0.0043482 Eh/α   predicted    -0.3663048E-04 (  17.93%)
   displ. norm   :     0.0528689 α      lambda       -0.4179920E-04
   maximum displ.:     0.0271702 α      in ANC's #1, #14, #5, ...
 * RMSD in coord.:     0.8027646 α      energy gain  -0.8857623E-02 Eh

generating ANC from model Hessian ...
Using Lindh-Hessian (1995)
 Shifting diagonal of input Hessian by    9.6658468500866474E-003
 Lowest  eigenvalues of input Hessian
    0.000000    0.000000    0.000000    0.000000    0.000000    0.000000
    0.010000    0.010352    0.010673    0.011435    0.012202    0.013574
    0.014953    0.016687    0.018612    0.021003    0.024080    0.024941
 Highest eigenvalues
    1.895470    1.926316    1.977757    2.040334    2.099757    2.128473


........................................................................
.............................. CYCLE   21 ..............................
........................................................................
   1    -50.9628401 -0.509628E+02  0.177E-02    2.57       0.0  T
   2    -50.9628402 -0.111033E-06  0.104E-02    2.57       1.6  T
   3    -50.9628398  0.426450E-06  0.399E-03    2.57       4.2  T
   4    -50.9628403 -0.482816E-06  0.547E-04    2.57      30.9  T
   5    -50.9628403 -0.761758E-08  0.235E-04    2.57      72.0  T
     SCC iter.                  ...        0 min,  0.033 sec
     gradient                   ...        0 min,  0.005 sec
 * total energy  :   -50.1248350 Eh     change       -0.3075894E-04 Eh
   gradient norm :     0.0028114 Eh/α   predicted     0.0000000E+00 (-100.00%)
   displ. norm   :     0.0345281 α      lambda       -0.2740361E-04
   maximum displ.:     0.0190513 α      in ANC's #6, #7, #10, ...

........................................................................
.............................. CYCLE   22 ..............................
........................................................................
   1    -50.9627656 -0.509628E+02  0.122E-02    2.57       0.0  T
   2    -50.9627657 -0.112720E-06  0.730E-03    2.57       2.3  T
   3    -50.9627654  0.298387E-06  0.296E-03    2.57       5.7  T
   4    -50.9627658 -0.360102E-06  0.409E-04    2.57      41.3  T
   5    -50.9627658 -0.420820E-08  0.191E-04    2.57      88.5  T
     SCC iter.                  ...        0 min,  0.018 sec
     gradient                   ...        0 min,  0.005 sec
 * total energy  :   -50.1248588 Eh     change       -0.2379926E-04 Eh
   gradient norm :     0.0014805 Eh/α   predicted    -0.1458474E-04 ( -38.72%)
   displ. norm   :     0.1401566 α      lambda       -0.4790334E-04
   maximum displ.:     0.0811044 α      in ANC's #6, #7, #1, ...

........................................................................
.............................. CYCLE   23 ..............................
........................................................................
   1    -50.9625373 -0.509625E+02  0.464E-02    2.57       0.0  T
   2    -50.9625382 -0.890167E-06  0.275E-02    2.57       1.0  T
   3    -50.9625352  0.295922E-05  0.896E-03    2.57       1.9  T
   4    -50.9625387 -0.343504E-05  0.139E-03    2.57      12.2  T
   5    -50.9625387 -0.471529E-07  0.591E-04    2.57      28.6  T
   6    -50.9625387 -0.423472E-08  0.290E-04    2.57      58.3  T
     SCC iter.                  ...        0 min,  0.021 sec
     gradient                   ...        0 min,  0.005 sec
 * total energy  :   -50.1248870 Eh     change       -0.2823297E-04 Eh
   gradient norm :     0.0028015 Eh/α   predicted    -0.2416145E-04 ( -14.42%)
   displ. norm   :     0.0136978 α      lambda       -0.1126131E-04
   maximum displ.:     0.0057622 α      in ANC's #1, #5, #4, ...

........................................................................
.............................. CYCLE   24 ..............................
........................................................................
   1    -50.9627589 -0.509628E+02  0.609E-03    2.57       0.0  T
   2    -50.9627589 -0.267895E-07  0.359E-03    2.57       4.7  T
   3    -50.9627589  0.497696E-07  0.128E-03    2.57      13.2  T
   4    -50.9627590 -0.604232E-07  0.190E-04    2.57      89.2  T
   5    -50.9627590 -0.633648E-09  0.865E-05    2.57     195.3  T
     SCC iter.                  ...        0 min,  0.018 sec
     gradient                   ...        0 min,  0.005 sec
 * total energy  :   -50.1248964 Eh     change       -0.9365067E-05 Eh
   gradient norm :     0.0017144 Eh/α   predicted    -0.5634015E-05 ( -39.84%)
   displ. norm   :     0.0829836 α      lambda       -0.1967585E-04
   maximum displ.:     0.0358430 α      in ANC's #1, #6, #5, ...

........................................................................
.............................. CYCLE   25 ..............................
........................................................................
   1    -50.9631467 -0.509631E+02  0.325E-02    2.56       0.0  T
   2    -50.9631470 -0.287768E-06  0.191E-02    2.57       1.0  T
   3    -50.9631463  0.680565E-06  0.456E-03    2.57       3.7  T
   4    -50.9631471 -0.790822E-06  0.737E-04    2.57      22.9  T
   5    -50.9631471 -0.929949E-08  0.351E-04    2.57      48.2  T
     SCC iter.                  ...        0 min,  0.018 sec
     gradient                   ...        0 min,  0.005 sec
 * total energy  :   -50.1249083 Eh     change       -0.1185351E-04 Eh
   gradient norm :     0.0015179 Eh/α   predicted    -0.9868605E-05 ( -16.75%)
   displ. norm   :     0.0255759 α      lambda       -0.3942216E-05
   maximum displ.:     0.0110790 α      in ANC's #1, #2, #4, ...

........................................................................
.............................. CYCLE   26 ..............................
........................................................................
   1    -50.9629619 -0.509630E+02  0.101E-02    2.57       0.0  T
   2    -50.9629619 -0.302439E-07  0.598E-03    2.57       2.8  T
   3    -50.9629618  0.102160E-06  0.170E-03    2.57       9.9  T
   4    -50.9629619 -0.119803E-06  0.169E-04    2.57     100.0  T
   5    -50.9629619 -0.432564E-09  0.952E-05    2.57     177.6  T
     SCC iter.                  ...        0 min,  0.018 sec
     gradient                   ...        0 min,  0.005 sec
 * total energy  :   -50.1249128 Eh     change       -0.4584157E-05 Eh
   gradient norm :     0.0006421 Eh/α   predicted    -0.1975204E-05 ( -56.91%)
   displ. norm   :     0.0558714 α      lambda       -0.4687658E-05
   maximum displ.:     0.0290990 α      in ANC's #4, #2, #1, ...

   *** GEOMETRY OPTIMIZATION CONVERGED AFTER 26 ITERATIONS ***

------------------------------------------------------------------------
 total energy gain   :        -0.0089662 Eh       -5.6264 kcal/mol
 total RMSD          :         0.8144055 a0        0.4310 Å
 total power (kW/mol):        -0.9054154 (step)  -25.1093 (real)
------------------------------------------------------------------------

 ANCopt (total)                0 d,  0 h,  0 min,  0.938 sec
 optimizer setup                ...        0 min,  0.000 sec (  0.013%)
 model hessian                  ...        0 min,  0.027 sec (  2.858%)
 ANC generation                 ...        0 min,  0.028 sec (  3.019%)
 coordinate transformation      ...        0 min,  0.001 sec (  0.148%)
 single point calculation       ...        0 min,  0.867 sec ( 92.504%)
 optimization log               ...        0 min,  0.005 sec (  0.581%)
 hessian update                 ...        0 min,  0.001 sec (  0.090%)
 rational function              ...        0 min,  0.004 sec (  0.449%)

================
 final structure:
================
35
 xtb: 6.5.1 (fef0646)
N            3.09626405999333        2.82235433626321       -0.41710759876771
C            2.40231073867475        1.52596789636253       -0.16103316898065
C            2.84854947426392        0.53550751097736       -1.24043440305250
C            4.35331641872064        0.46043702025267       -1.23110668858023
C            5.02037922795999       -0.43563355567613       -0.40196045105568
C            6.39758076138152       -0.44698912292026       -0.33561737952742
C            7.16780912130068        0.44964129234112       -1.08692877879405
C            8.61550712371077        0.47076991147157       -1.05964421298224
C            9.40254118439117       -0.51017424353209       -0.59190831067318
C           10.85234438407873       -0.50831013052028       -0.58668871194344
C           11.60418852742924        0.65013373269050       -0.79573478643141
C           12.98122657812498        0.57300362034550       -0.78405991989732
F           13.68817873738970        1.70134516865371       -0.98073403568050
C           13.65610425407024       -0.61831022136478       -0.57611515448009
C           12.90993203501145       -1.76522193065535       -0.36362535938740
C           11.52923579358373       -1.71141271707294       -0.36139036453035
C            6.49143355387493        1.35857119653434       -1.90610167018351
C            5.10966780912376        1.36786286641679       -1.97844282904745
H            3.15793934876380        3.41238133209849        0.41719412450712
H            2.62723791230579        3.34731625156370       -1.16302797432606
H            4.05920261196070        2.54760174492700       -0.76372339926031
H            1.32265811112600        1.67248301630994       -0.16510915756581
H            2.70918993285328        1.16080195249996        0.81978517846298
H            2.48443551263509        0.85608070365654       -2.21765505451372
H            2.41537817142684       -0.43926385458865       -1.02368798933794
H            4.45073056638039       -1.14053751053591        0.18542793545603
H            6.88426246060620       -1.15537854751564        0.31487272458932
H            9.06334595551299        1.34831362543225       -1.50482930884136
H            8.95438786301978       -1.41925546813345       -0.21310767265982
H           11.13744108065695        1.60952516537292       -0.94928567626047
H           14.73385351162622       -0.63359316634981       -0.57836912341671
H           13.41240627086103       -2.70511982410534       -0.19597325832124
H           10.96040531882864       -2.61417110926510       -0.19482964514250
H            7.05856415269282        2.05106954266667       -2.50981696622887
H            4.62943143565886        2.01729351539884       -2.70160091314699

 Bond Distances (Angstroems)
 ---------------------------
N1-C2=1.4926         N1-H19=1.0237        N1-H20=1.0257        N1-H21=1.0597        C2-N1=1.4926         C2-C3=1.5314         
C2-H22=1.0896        C2-H23=1.0907        C3-C2=1.5314         C3-C4=1.5067         C3-H24=1.0910        C3-H25=1.0885        
C4-C3=1.5067         C4-C5=1.3912         C4-C18=1.3979        C5-C4=1.3912         C5-C6=1.3788         C5-H26=1.0800        
C6-C5=1.3788         C6-C7=1.4006         C6-H27=1.0779        C7-C6=1.4006         C7-C8=1.4481         C7-C17=1.3981        
C8-C7=1.4481         C8-C9=1.3418         C8-H28=1.0811        C9-C8=1.3418         C9-C10=1.4498        C9-H29=1.0820        
C10-C9=1.4498        C10-C11=1.3968       C10-C16=1.3987       C11-C10=1.3968       C11-C12=1.3792       C11-H30=1.0779       
C12-C11=1.3792       C12-F13=1.3460       C12-C14=1.3849       F13-C12=1.3460       C14-C12=1.3849       C14-C15=1.3847       
C14-H31=1.0779       C15-C14=1.3847       C15-C16=1.3817       C15-H32=1.0789       C16-C10=1.3987       C16-C15=1.3817       
C16-H33=1.0799       C17-C7=1.3981        C17-C18=1.3837       C17-H34=1.0797       C18-C4=1.3979        C18-C17=1.3837       
C18-H35=1.0841       H19-N1=1.0237        H20-N1=1.0257        H21-N1=1.0597        H22-C2=1.0896        H23-C2=1.0907        
H24-C3=1.0910        H25-C3=1.0885        H26-C5=1.0800        H27-C6=1.0779        H28-C8=1.0811        H29-C9=1.0820        
H30-C11=1.0779       H31-C14=1.0779       H32-C15=1.0789       H33-C16=1.0799       H34-C17=1.0797       H35-C18=1.0841       
 C  H  Rav=1.0828 sigma=0.0048  Rmin=1.0779  Rmax=1.0910    14
 C  C  Rav=1.4091 sigma=0.0469  Rmin=1.3418  Rmax=1.5314    17
 N  H  Rav=1.0363 sigma=0.0165  Rmin=1.0237  Rmax=1.0597     3
 N  C  Rav=1.4926 sigma=0.0000  Rmin=1.4926  Rmax=1.4926     1
 F  C  Rav=1.3460 sigma=0.0000  Rmin=1.3460  Rmax=1.3460     1

 selected bond angles (degree)
 --------------------
H19-N1-C2=112.88               H20-N1-C2=110.90               H20-N1-H19=108.98              H21-N1-C2=104.68               
H21-N1-H19=111.18              H21-N1-H20=108.08              C3-C2-N1=107.78                H22-C2-N1=110.08               
H22-C2-C3=111.91               H23-C2-N1=108.32               H23-C2-C3=109.59               H23-C2-H22=109.10              
C4-C3-C2=108.60                H24-C3-C2=110.12               H24-C3-C4=110.70               H25-C3-C2=108.84               
H25-C3-C4=110.59               H25-C3-H24=107.98              C5-C4-C3=120.98                C18-C4-C3=120.31               
C18-C4-C5=118.51               C6-C5-C4=120.86                H26-C5-C4=119.45               H26-C5-C6=119.69               
C7-C6-C5=121.21                H27-C6-C5=119.04               H27-C6-C7=119.75               C8-C7-C6=123.30                
C17-C7-C6=117.67               C17-C7-C8=119.03               C9-C8-C7=125.61                H28-C8-C7=114.72               
H28-C8-C9=119.60               C10-C9-C8=125.93               H29-C9-C8=119.56               H29-C9-C10=114.46              
C11-C10-C9=122.60              C16-C10-C9=118.91              C16-C10-C11=118.49             

 selected dihedral angles (degree)
 ---------------------------------
C3-C2-N1-H19=202.44           C3-C2-N1-H20= 79.82           C3-C2-N1-H21=323.49           H22-C2-N1-H19= 80.14          
H22-C2-N1-H20=317.52          H22-C2-N1-H21=201.20          H23-C2-N1-H19=320.93          H23-C2-N1-H20=198.31          
H23-C2-N1-H21= 81.99          C4-C3-C2-N1= 55.02            C4-C3-C2-H22=176.19           C4-C3-C2-H23=297.35           
H24-C3-C2-N1=293.66           H24-C3-C2-H22= 54.82          H24-C3-C2-H23=175.98          H25-C3-C2-N1=175.47           
H25-C3-C2-H22=296.63          H25-C3-C2-H23= 57.79          C5-C4-C3-C2= 88.03            C5-C4-C3-H24=209.04           
C5-C4-C3-H25=328.67           C18-C4-C3-C2=273.24           C18-C4-C3-H24= 34.25          C18-C4-C3-H25=153.89          
C6-C5-C4-C3=183.94            C6-C5-C4-C18=358.82           H26-C5-C4-C3=  4.86           H26-C5-C4-C18=179.74          
C7-C6-C5-C4=  0.70            C7-C6-C5-H26=179.78           H27-C6-C5-C4=180.15           H27-C6-C5-H26=359.23          
C8-C7-C6-C5=180.48            C8-C7-C6-H27=  1.04           C17-C7-C6-C5=  0.07           C17-C7-C6-H27=180.63          
C9-C8-C7-C6= 16.32            C9-C8-C7-C17=196.74           H28-C8-C7-C6=193.34           H28-C8-C7-C17= 13.76          
C10-C9-C8-C7=178.63           C10-C9-C8-H28=  1.74          H29-C9-C8-C7=  1.36           H29-C9-C8-H28=184.48          
C11-C10-C9-C8= 14.97          C11-C10-C9-H29=192.35         C16-C10-C9-C8=194.85          C16-C10-C9-H29= 12.23         
           -------------------------------------------------
          |                Final Singlepoint                |
           -------------------------------------------------

          ...................................................
          :                      SETUP                      :
          :.................................................:
          :  # basis functions                  89          :
          :  # atomic orbitals                  89          :
          :  # shells                           53          :
          :  # electrons                        92          :
          :  max. iterations                   250          :
          :  Hamiltonian                  GFN2-xTB          :
          :  restarted?                      false          :
          :  GBSA solvation                  false          :
          :  PC potential                    false          :
          :  electronic temp.          300.0000000     K    :
          :  accuracy                    1.0000000          :
          :  -> integral cutoff          0.2500000E+02      :
          :  -> integral neglect         0.1000000E-07      :
          :  -> SCF convergence          0.1000000E-05 Eh   :
          :  -> wf. convergence          0.1000000E-03 e    :
          :  Broyden damping             0.4000000          :
          ...................................................

 iter      E             dE          RMSdq      gap      omega  full diag
   1    -50.9629619 -0.509630E+02  0.488E-05    2.57       0.0  T
   2    -50.9629619 -0.169820E-11  0.365E-05    2.57     462.6  T
   3    -50.9629619 -0.267306E-10  0.186E-05    2.57     910.0  T

   *** convergence criteria satisfied after 3 iterations ***

         #    Occupation            Energy/Eh            Energy/eV
      -------------------------------------------------------------
         1        2.0000           -0.8790940             -23.9214
       ...           ...                  ...                  ...
        40        2.0000           -0.5315676             -14.4647
        41        2.0000           -0.5291918             -14.4000
        42        2.0000           -0.5179475             -14.0941
        43        2.0000           -0.5107953             -13.8994
        44        2.0000           -0.5029763             -13.6867
        45        2.0000           -0.4821447             -13.1198
        46        2.0000           -0.4691363             -12.7658 (HOMO)
        47                         -0.3748597             -10.2005 (LUMO)
        48                         -0.3518635              -9.5747
        49                         -0.3186585              -8.6711
        50                         -0.3035032              -8.2587
        51                         -0.2643811              -7.1942
       ...                                ...                  ...
        89                          0.6022522              16.3881
      -------------------------------------------------------------
                  HL-Gap            0.0942765 Eh            2.5654 eV
             Fermi-level           -0.4219980 Eh          -11.4832 eV

 SCC (total)                   0 d,  0 h,  0 min,  0.017 sec
 SCC setup                      ...        0 min,  0.000 sec (  0.694%)
 Dispersion                     ...        0 min,  0.000 sec (  1.656%)
 classical contributions        ...        0 min,  0.000 sec (  0.228%)
 integral evaluation            ...        0 min,  0.001 sec (  7.958%)
 iterations                     ...        0 min,  0.011 sec ( 62.237%)
 molecular gradient             ...        0 min,  0.004 sec ( 24.984%)
 printout                       ...        0 min,  0.000 sec (  1.513%)

         :::::::::::::::::::::::::::::::::::::::::::::::::::::
         ::                     SUMMARY                     ::
         :::::::::::::::::::::::::::::::::::::::::::::::::::::
         :: total energy             -50.124912836650 Eh    ::
         :: gradient norm              0.000642320323 Eh/a0 ::
         :: HOMO-LUMO gap              2.565395004887 eV    ::
         ::.................................................::
         :: SCC energy               -50.962961900060 Eh    ::
         :: -> isotropic ES            0.111614991270 Eh    ::
         :: -> anisotropic ES         -0.013214121655 Eh    ::
         :: -> anisotropic XC          0.026588988520 Eh    ::
         :: -> dispersion             -0.031877131360 Eh    ::
         :: repulsion energy           0.838327716608 Eh    ::
         :: add. restraining           0.000000000000 Eh    ::
         :: total charge               1.000000000000 e     ::
         :::::::::::::::::::::::::::::::::::::::::::::::::::::

           -------------------------------------------------
          |                Property Printout                |
           -------------------------------------------------

    * Orbital Energies and Occupations

         #    Occupation            Energy/Eh            Energy/eV
      -------------------------------------------------------------
         1        2.0000           -0.8790940             -23.9214
       ...           ...                  ...                  ...
        34        2.0000           -0.5651149             -15.3776
        35        2.0000           -0.5607742             -15.2594
        36        2.0000           -0.5567670             -15.1504
        37        2.0000           -0.5451330             -14.8338
        38        2.0000           -0.5428268             -14.7711
        39        2.0000           -0.5396498             -14.6846
        40        2.0000           -0.5315676             -14.4647
        41        2.0000           -0.5291918             -14.4000
        42        2.0000           -0.5179475             -14.0941
        43        2.0000           -0.5107953             -13.8994
        44        2.0000           -0.5029763             -13.6867
        45        2.0000           -0.4821447             -13.1198
        46        2.0000           -0.4691363             -12.7658 (HOMO)
        47                         -0.3748597             -10.2005 (LUMO)
        48                         -0.3518635              -9.5747
        49                         -0.3186585              -8.6711
        50                         -0.3035032              -8.2587
        51                         -0.2643811              -7.1942
        52                         -0.2403818              -6.5411
        53                         -0.2046100              -5.5677
        54                         -0.1623872              -4.4188
        55                         -0.1391048              -3.7852
        56                         -0.0852624              -2.3201
        57                         -0.0774276              -2.1069
       ...                                ...                  ...
        89                          0.6022522              16.3881
      -------------------------------------------------------------
                  HL-Gap            0.0942765 Eh            2.5654 eV
             Fermi-level           -0.4219980 Eh          -11.4832 eV

     #   Z          covCN         q      C6AA      α(0)
     1   7 N        3.482    -0.145    24.124     7.295
     2   6 C        3.734    -0.029    21.174     6.567
     3   6 C        3.809    -0.090    22.217     6.710
     4   6 C        2.972    -0.013    28.336     8.732
     5   6 C        2.919    -0.039    28.973     8.827
     6   6 C        2.922    -0.030    28.740     8.791
     7   6 C        2.969     0.025    27.449     8.594
     8   6 C        2.902    -0.047    29.159     8.854
     9   6 C        2.902    -0.023    28.589     8.767
    10   6 C        2.974     0.016    27.651     8.625
    11   6 C        2.921    -0.052    29.281     8.874
    12   6 C        2.784     0.175    24.235     8.064
    13   9 F        0.787    -0.218    11.419     3.992
    14   6 C        2.917    -0.042    29.040     8.837
    15   6 C        2.921    -0.024    28.615     8.772
    16   6 C        2.927    -0.036    28.892     8.815
    17   6 C        2.926    -0.037    28.927     8.820
    18   6 C        2.918    -0.068    29.682     8.934
    19   1 H        0.859     0.258     0.852     1.446
    20   1 H        0.859     0.261     0.842     1.438
    21   1 H        0.856     0.279     0.779     1.383
    22   1 H        0.925     0.101     1.779     2.086
    23   1 H        0.924     0.102     1.767     2.079
    24   1 H        0.924     0.069     2.101     2.267
    25   1 H        0.925     0.091     1.866     2.136
    26   1 H        0.926     0.046     2.370     2.407
    27   1 H        0.926     0.056     2.251     2.346
    28   1 H        0.926     0.049     2.334     2.389
    29   1 H        0.925     0.050     2.321     2.382
    30   1 H        0.926     0.059     2.208     2.324
    31   1 H        0.926     0.071     2.074     2.252
    32   1 H        0.926     0.058     2.228     2.334
    33   1 H        0.926     0.049     2.335     2.390
    34   1 H        0.926     0.049     2.337     2.391
    35   1 H        0.925     0.030     2.587     2.515

 Mol. C6AA /au·bohr⁶  :      13308.640387
 Mol. C8AA /au·bohr⁸  :     323346.463658
 Mol. α(0) /au        :        183.432724


Wiberg/Mayer (AO) data.
largest (>0.10) Wiberg bond orders for each atom

 ---------------------------------------------------------------------------
     #   Z sym  total        # sym  WBO       # sym  WBO       # sym  WBO
 ---------------------------------------------------------------------------
     1   7 N    3.663 --     2 C    0.935    19 H    0.919    20 H    0.917
                            21 H    0.827
     2   6 C    3.898 --     3 C    0.992    23 H    0.969    22 H    0.969
                             1 N    0.935
     3   6 C    3.979 --     4 C    1.006     2 C    0.992    24 H    0.969
                            25 H    0.961
     4   6 C    3.972 --     5 C    1.392    18 C    1.369     3 C    1.006
     5   6 C    3.990 --     6 C    1.476     4 C    1.392    26 H    0.967
     6   6 C    3.981 --     5 C    1.476     7 C    1.349    27 H    0.964
     7   6 C    3.986 --    17 C    1.365     6 C    1.349     8 C    1.121
     8   6 C    3.989 --     9 C    1.748     7 C    1.121    28 H    0.958
     9   6 C    3.986 --     8 C    1.748    10 C    1.118    29 H    0.958
    10   6 C    3.989 --    16 C    1.362    11 C    1.361     9 C    1.118
    11   6 C    3.980 --    12 C    1.419    10 C    1.361    30 H    0.962
                            15 C    0.103
    12   6 C    3.890 --    11 C    1.419    14 C    1.381    13 F    0.966
    13   9 F    1.100 --    12 C    0.966
    14   6 C    3.975 --    15 C    1.432    12 C    1.381    31 H    0.966
    15   6 C    3.990 --    16 C    1.457    14 C    1.432    32 H    0.969
                            11 C    0.103
    16   6 C    3.980 --    15 C    1.457    10 C    1.362    33 H    0.968
    17   6 C    3.980 --    18 C    1.444     7 C    1.365    34 H    0.967
    18   6 C    3.989 --    17 C    1.444     4 C    1.369    35 H    0.959
    19   1 H    0.933 --     1 N    0.919
    20   1 H    0.932 --     1 N    0.917
    21   1 H    0.922 --     1 N    0.827
    22   1 H    0.989 --     2 C    0.969
    23   1 H    0.990 --     2 C    0.969
    24   1 H    0.995 --     3 C    0.969
    25   1 H    0.991 --     3 C    0.961
    26   1 H    0.997 --     5 C    0.967
    27   1 H    0.997 --     6 C    0.964
    28   1 H    0.997 --     8 C    0.958
    29   1 H    0.997 --     9 C    0.958
    30   1 H    0.996 --    11 C    0.962
    31   1 H    0.995 --    14 C    0.966
    32   1 H    0.996 --    15 C    0.969
    33   1 H    0.998 --    16 C    0.968
    34   1 H    0.997 --    17 C    0.967
    35   1 H    0.999 --    18 C    0.959
 ---------------------------------------------------------------------------

Topologies differ in total number of bonds
Writing topology from bond orders to xtbtopo.mol

molecular dipole:
                 x           y           z       tot (Debye)
 q only:        7.031       3.359      -0.666
   full:        7.012       3.522      -0.701      20.024
molecular quadrupole (traceless):
                xx          xy          yy          xz          yz          zz
 q only:       52.854       5.102      -8.894      -3.742      -5.185     -43.959
  q+dip:       54.173       3.634      -6.352      -3.688      -9.952     -47.821
   full:       51.414       4.268      -7.037      -4.034      -6.665     -44.377

           -------------------------------------------------
          |                Geometry Summary                 |
           -------------------------------------------------

      molecular mass/u    :      242.3118735
   center of mass at/Å    :        8.2202848       0.4069719      -0.8199816
  moments of inertia/u·Å² :        0.3717477E+03   0.3934307E+04   0.4183157E+04
rotational constants/cm⁻¹ :        0.4534697E-01   0.4284778E-02   0.4029882E-02

 * 32 selected distances

     #   Z          #   Z                                           value/Å
     1   7 N        2   6 C                                       1.4925694
     2   6 C        3   6 C                                       1.5314203 (max)
     4   6 C        5   6 C                                       1.3911862
     5   6 C        6   6 C                                       1.3788454
     6   6 C        7   6 C                                       1.4005952
     8   6 C        9   6 C                                       1.3418089
    10   6 C       11   6 C                                       1.3967686
    11   6 C       12   6 C                                       1.3792460
    12   6 C       14   6 C                                       1.3848935
    14   6 C       15   6 C                                       1.3846775
    10   6 C       16   6 C                                       1.3987128
    15   6 C       16   6 C                                       1.3817463
     7   6 C       17   6 C                                       1.3980994
     4   6 C       18   6 C                                       1.3978558
    17   6 C       18   6 C                                       1.3836895
     1   7 N       19   1 H                                       1.0237164 (min)
     1   7 N       20   1 H                                       1.0256549
     1   7 N       21   1 H                                       1.0596614
     2   6 C       22   1 H                                       1.0895565
     2   6 C       23   1 H                                       1.0906539
     3   6 C       24   1 H                                       1.0910117
     3   6 C       25   1 H                                       1.0884833
     5   6 C       26   1 H                                       1.0800067
     6   6 C       27   1 H                                       1.0778739
     8   6 C       28   1 H                                       1.0811256
     9   6 C       29   1 H                                       1.0820167
    11   6 C       30   1 H                                       1.0778976
    14   6 C       31   1 H                                       1.0778601
    15   6 C       32   1 H                                       1.0788864
    16   6 C       33   1 H                                       1.0799461
    17   6 C       34   1 H                                       1.0796590
    18   6 C       35   1 H                                       1.0841333

 * 4 distinct bonds (by element types)

   Z      Z             #   av. dist./Å        max./Å        min./Å
   1 H    6 C          14     1.0827936     1.0910117     1.0778601
   6 C    6 C          14     1.3963961     1.5314203     1.3418089
   1 H    7 N           3     1.0363442     1.0596614     1.0237164
   6 C    7 N           1     1.4925694     1.4925694     1.4925694


optimized geometry written to: xtbopt.xyz


           -------------------------------------------------
          | TOTAL ENERGY              -50.124912836650 Eh   |
          | GRADIENT NORM               0.000642320323 Eh/α |
          | HOMO-LUMO GAP               2.565395004887 eV   |
           -------------------------------------------------

------------------------------------------------------------------------
 * finished run on 2023/01/23 at 19:10:52.302     
------------------------------------------------------------------------
 total:
 * wall-time:     0 d,  0 h,  0 min,  1.092 sec
 *  cpu-time:     0 d,  0 h,  1 min, 56.877 sec
 * ratio c/w:   107.059 speedup
 SCF:
 * wall-time:     0 d,  0 h,  0 min,  0.102 sec
 *  cpu-time:     0 d,  0 h,  0 min, 12.943 sec
 * ratio c/w:   127.030 speedup
 ANC optimizer:
 * wall-time:     0 d,  0 h,  0 min,  0.957 sec
 *  cpu-time:     0 d,  0 h,  1 min, 39.880 sec
 * ratio c/w:   104.362 speedup

