35
 energy: -50.124912836650 gnorm: 0.000642320323 xtb: 6.5.1 (fef0646)
N            3.09626405999333        2.82235433626321       -0.41710759876771
C            2.40231073867475        1.52596789636253       -0.16103316898065
C            2.84854947426392        0.53550751097736       -1.24043440305250
C            4.35331641872064        0.46043702025267       -1.23110668858023
C            5.02037922795999       -0.43563355567613       -0.40196045105568
C            6.39758076138152       -0.44698912292026       -0.33561737952742
C            7.16780912130068        0.44964129234112       -1.08692877879405
C            8.61550712371077        0.47076991147157       -1.05964421298224
C            9.40254118439117       -0.51017424353209       -0.59190831067318
C           10.85234438407873       -0.50831013052028       -0.58668871194344
C           11.60418852742924        0.65013373269050       -0.79573478643141
C           12.98122657812498        0.57300362034550       -0.78405991989732
F           13.68817873738970        1.70134516865371       -0.98073403568050
C           13.65610425407024       -0.61831022136478       -0.57611515448009
C           12.90993203501145       -1.76522193065535       -0.36362535938740
C           11.52923579358373       -1.71141271707294       -0.36139036453035
C            6.49143355387493        1.35857119653434       -1.90610167018351
C            5.10966780912376        1.36786286641679       -1.97844282904745
H            3.15793934876380        3.41238133209849        0.41719412450712
H            2.62723791230579        3.34731625156370       -1.16302797432606
H            4.05920261196070        2.54760174492700       -0.76372339926031
H            1.32265811112600        1.67248301630994       -0.16510915756581
H            2.70918993285328        1.16080195249996        0.81978517846298
H            2.48443551263509        0.85608070365654       -2.21765505451372
H            2.41537817142684       -0.43926385458865       -1.02368798933794
H            4.45073056638039       -1.14053751053591        0.18542793545603
H            6.88426246060620       -1.15537854751564        0.31487272458932
H            9.06334595551299        1.34831362543225       -1.50482930884136
H            8.95438786301978       -1.41925546813345       -0.21310767265982
H           11.13744108065695        1.60952516537292       -0.94928567626047
H           14.73385351162622       -0.63359316634981       -0.57836912341671
H           13.41240627086103       -2.70511982410534       -0.19597325832124
H           10.96040531882864       -2.61417110926510       -0.19482964514250
H            7.05856415269282        2.05106954266667       -2.50981696622887
H            4.62943143565886        2.01729351539884       -2.70160091314699
