29
 energy: -44.361262657846 gnorm: 0.000700848720 xtb: 6.5.1 (fef0646)
N            2.97658153805689       -0.59251186922887        0.54131291216371
C            2.21683842068423        0.06953531903926       -0.51622075353393
C            2.93244630763255        1.35944695623354       -0.90486370150817
O            4.15353313616030        0.98362793157308       -1.50958809661415
C            5.01764617669169        1.96079319683689       -1.91045746361477
C            4.79486310877890        3.30791149309966       -1.77116618002215
C            5.75068259533454        4.23346036687833       -2.21728753792853
C            6.91459933703226        3.82095261567357       -2.79692432392835
C            7.17794726056869        2.44418367967084       -2.95901944891097
C            8.36801908241086        1.97676822441217       -3.55407169300966
C            8.60228406702566        0.63838629423457       -3.70243146399402
C            7.65451730643875       -0.29684796082316       -3.26306956155803
C            6.49018865763792        0.12318367703454       -2.68195188924196
C            6.22284158296604        1.49604064427990       -2.51398712574949
Cl           2.93495966753513        1.17758721013225        2.87834663299894
H            2.58123908899304       -1.49670113623887        0.77217037132172
H            2.96821897954906        0.32849018311486        1.80043172815585
H            3.93808261029510       -0.71562455240363        0.23984028558803
H            1.22353697327849        0.30757229064264       -0.13135634575996
H            2.11262707353109       -0.55830119293984       -1.41107870155520
H            3.11488065770663        1.95759102752709       -0.00460540717114
H            2.31634250738275        1.93307440766608       -1.60865948483355
H            3.89029421306614        3.67984483040733       -1.31738307205928
H            5.54577600814227        5.28630791347827       -2.09116366760476
H            7.64746295848951        4.53675061026259       -3.13845903568710
H            9.09401855539866        2.70253124430414       -3.89213755584068
H            9.51780297107554        0.29171655796884       -4.15926541913359
H            7.85152717480278       -1.35156603225045       -3.38844459083480
H            5.75309198331153       -0.58944393057195       -2.34530941014677
