 Entering Gaussian System
 *********************************************
 Gaussian 98:
 frequency output generated by the xtb code
 *********************************************
                         Standard orientation:
 --------------------------------------------------------------------
  Center     Atomic     Atomic              Coordinates (Angstroms)
  Number     Number      Type              X           Y           Z
 --------------------------------------------------------------------
    1          7             0       -1.404716    0.369768    0.583694
    2          6             0       -0.781233    1.477614   -0.188720
    3          6             0        0.607681    1.828538    0.338145
    4          6             0        1.558255    0.668542    0.265283
    5          6             0        1.815244   -0.111727    1.385004
    6          6             0        2.654738   -1.205952    1.304113
    7          6             0        3.244743   -1.537037    0.100371
    8          6             0        2.992433   -0.773488   -1.022069
    9          6             0        2.152479    0.320347   -0.939968
   10         17             0       -4.504976   -0.499408   -0.732603
   11          1             0       -1.519141    0.628511    1.576564
   12          1             0       -0.811781   -0.474795    0.555254
   13          1             0       -2.340189    0.110433    0.212828
   14          1             0       -1.436008    2.357807   -0.164519
   15          1             0       -0.711358    1.188502   -1.244480
   16          1             0        0.532106    2.167720    1.377444
   17          1             0        1.029763    2.674764   -0.217498
   18          1             0        1.347779    0.142497    2.322315
   19          1             0        2.847948   -1.803131    2.181743
   20          1             0        3.899988   -2.391771    0.036671
   21          1             0        3.449388   -1.032462   -1.964510
   22          1             0        1.947859    0.913407   -1.816709
 --------------------------------------------------------------------
     1 basis functions        1 primitive gaussians
     1 alpha electrons        1 beta electrons

 Harmonic frequencies (cm**-1), IR intensities (km*mol⁻¹),
 Raman scattering activities (A**4/amu), Raman depolarization ratios,
 reduced masses (AMU), force constants (mDyne/A) and normal coordinates:
                      1                      2                      3
                        a                      a                      a 
 Frequencies --  -126.8516                10.3089                51.6836
 Red. masses --    25.1227                11.1523                17.9351
 Frc consts  --     0.0000                 0.0000                 0.0000
 IR Inten    --   143.5596                 0.4094                 5.6610
 Raman Activ --     0.0000                 0.0000                 0.0000
 Depolar     --     0.0000                 0.0000                 0.0000
 Atom AN      X      Y      Z        X      Y      Z        X      Y      Z
   1   7     0.37   0.08   0.25    -0.05  -0.03  -0.12     0.20   0.12   0.10
   2   6     0.16   0.08   0.10     0.03   0.04   0.06     0.07   0.19   0.12
   3   6     0.19   0.12  -0.02    -0.01  -0.05   0.20     0.09   0.19   0.05
   4   6     0.12   0.06  -0.01     0.00  -0.04   0.11    -0.01   0.12   0.02
   5   6     0.05   0.03  -0.01     0.37   0.15   0.16    -0.04   0.09   0.01
   6   6    -0.01  -0.01  -0.00     0.40   0.18   0.08    -0.23  -0.04  -0.04
   7   6    -0.01  -0.03  -0.00     0.07   0.03  -0.04    -0.39  -0.16  -0.08
   8   6     0.04  -0.02  -0.00    -0.30  -0.16  -0.09    -0.33  -0.12  -0.07
   9   6     0.10   0.03  -0.01    -0.33  -0.19  -0.01    -0.14   0.02  -0.02
  10  17    -0.69  -0.22  -0.24    -0.10   0.04  -0.21     0.46  -0.28  -0.08
  11   1     0.11   0.04   0.06    -0.02  -0.04  -0.02    -0.00   0.04   0.02
  12   1     0.13   0.04   0.07    -0.03  -0.01  -0.05     0.11   0.07   0.06
  13   1     0.12  -0.01   0.09    -0.01   0.02  -0.05     0.09  -0.04  -0.01
  14   1     0.03   0.01   0.04     0.01   0.01   0.03     0.01   0.05   0.06
  15   1     0.02   0.01   0.03     0.03   0.04   0.01     0.01   0.07   0.03
  16   1     0.07   0.05  -0.01    -0.02  -0.05   0.07     0.04   0.06   0.01
  17   1     0.05   0.02  -0.03     0.01   0.01   0.10     0.03   0.05   0.00
  18   1     0.02   0.02  -0.00     0.18   0.08   0.07     0.02   0.05   0.01
  19   1    -0.01  -0.01  -0.00     0.20   0.09   0.03    -0.07  -0.02  -0.01
  20   1    -0.02  -0.02   0.00     0.03   0.01  -0.03    -0.16  -0.08  -0.04
  21   1     0.01  -0.01   0.00    -0.16  -0.08  -0.05    -0.13  -0.06  -0.03
  22   1     0.04   0.01  -0.00    -0.18  -0.10  -0.01    -0.03   0.01  -0.00
                      4                      5                      6
                        a                      a                      a 
 Frequencies --   116.9593               129.0270               164.0978
 Red. masses --    12.0696                14.3713                 7.8485
 Frc consts  --     0.0000                 0.0000                 0.0000
 IR Inten    --    25.5608                26.1059                 6.7657
 Raman Activ --     0.0000                 0.0000                 0.0000
 Depolar     --     0.0000                 0.0000                 0.0000
 Atom AN      X      Y      Z        X      Y      Z        X      Y      Z
   1   7    -0.27   0.38   0.49    -0.22   0.44  -0.37    -0.22   0.11   0.18
   2   6    -0.13   0.09   0.18     0.15   0.34  -0.15     0.13  -0.37  -0.25
   3   6     0.00  -0.07  -0.07     0.12   0.01   0.16    -0.05  -0.05   0.03
   4   6    -0.09  -0.15  -0.11     0.02  -0.07   0.10     0.17   0.13   0.14
   5   6    -0.04  -0.11  -0.09    -0.01  -0.17   0.04     0.21   0.10   0.10
   6   6     0.11   0.00  -0.03     0.01  -0.15  -0.03     0.03  -0.04  -0.05
   7   6     0.21   0.06   0.00     0.05  -0.05  -0.04    -0.19  -0.12  -0.14
   8   6     0.08  -0.05  -0.04     0.05   0.03   0.01    -0.06   0.06  -0.05
   9   6    -0.07  -0.16  -0.10     0.04   0.01   0.08     0.14   0.20   0.10
  10  17     0.14  -0.06  -0.21    -0.13  -0.33   0.17    -0.04   0.00  -0.03
  11   1    -0.17   0.20   0.09    -0.11   0.12  -0.10    -0.17   0.20  -0.01
  12   1    -0.04   0.12   0.27    -0.08   0.10  -0.06    -0.06   0.02   0.26
  13   1    -0.02   0.03   0.06    -0.05   0.12  -0.14    -0.02  -0.02  -0.02
  14   1     0.01   0.06   0.03     0.09   0.14  -0.06     0.03  -0.10  -0.28
  15   1    -0.09  -0.03   0.07     0.09   0.12  -0.05     0.15  -0.28  -0.02
  16   1     0.06   0.00  -0.02    -0.00  -0.05   0.06    -0.09  -0.01   0.00
  17   1     0.00  -0.05  -0.06     0.10   0.02   0.11    -0.04   0.01   0.02
  18   1    -0.02  -0.04  -0.03    -0.01  -0.07   0.01     0.09   0.03   0.04
  19   1     0.05   0.02  -0.00     0.00  -0.06  -0.02     0.00  -0.03  -0.03
  20   1     0.11   0.05   0.02     0.02  -0.01  -0.02    -0.12  -0.08  -0.08
  21   1     0.04  -0.01  -0.01     0.02   0.03  -0.00    -0.05   0.02  -0.03
  22   1    -0.04  -0.07  -0.04     0.02   0.02   0.03     0.05   0.09   0.05
                      7                      8                      9
                        a                      a                      a 
 Frequencies --   225.7896               299.7374               348.6694
 Red. masses --     9.3945                 3.1616                 8.2390
 Frc consts  --     0.0000                 0.0000                 0.0000
 IR Inten    --    21.5350                 2.1845                 3.1931
 Raman Activ --     0.0000                 0.0000                 0.0000
 Depolar     --     0.0000                 0.0000                 0.0000
 Atom AN      X      Y      Z        X      Y      Z        X      Y      Z
   1   7    -0.36  -0.05  -0.03     0.02  -0.18  -0.17    -0.09  -0.02   0.04
   2   6    -0.18   0.11   0.30    -0.04   0.05   0.11     0.28  -0.16   0.09
   3   6     0.01  -0.03  -0.01    -0.01  -0.00   0.10     0.10  -0.00   0.38
   4   6     0.19   0.11  -0.14     0.02   0.03  -0.10     0.16   0.14  -0.23
   5   6     0.25   0.23  -0.06    -0.01   0.05  -0.08    -0.15   0.10  -0.22
   6   6     0.01   0.04   0.02    -0.01   0.04   0.02    -0.22   0.07   0.02
   7   6    -0.18  -0.24   0.01     0.02  -0.01   0.06     0.07   0.16   0.14
   8   6     0.14  -0.11   0.02     0.06  -0.04   0.02    -0.03  -0.10  -0.02
   9   6     0.35   0.07  -0.06     0.07  -0.02  -0.07    -0.06  -0.08  -0.28
  10  17    -0.06  -0.08  -0.05    -0.08   0.08   0.07    -0.00  -0.02  -0.00
  11   1    -0.03  -0.13   0.03    -0.50   0.06  -0.13     0.03  -0.02   0.02
  12   1    -0.18  -0.07  -0.14     0.31   0.15   0.34    -0.15  -0.09  -0.03
  13   1    -0.14   0.09  -0.01     0.22  -0.37  -0.36    -0.07   0.12   0.02
  14   1    -0.01   0.06   0.21    -0.03  -0.00   0.08     0.07  -0.05  -0.09
  15   1    -0.13   0.13   0.05     0.00   0.08   0.01     0.19  -0.10   0.05
  16   1     0.07  -0.02   0.00     0.02  -0.05   0.05    -0.01  -0.19   0.17
  17   1    -0.06   0.01  -0.03    -0.02   0.03   0.06    -0.02   0.13   0.26
  18   1     0.09   0.11  -0.02    -0.01   0.03  -0.03    -0.10   0.05  -0.10
  19   1    -0.02   0.03   0.02    -0.02   0.02   0.02    -0.12   0.02   0.02
  20   1    -0.14  -0.14   0.00    -0.00  -0.01   0.03     0.07   0.08   0.09
  21   1     0.05  -0.06   0.02     0.02  -0.03   0.01    -0.00  -0.09   0.01
  22   1     0.15   0.02  -0.03     0.03  -0.02  -0.03    -0.03  -0.08  -0.11
                     10                     11                     12
                        a                      a                      a 
 Frequencies --   364.5378               386.7595               475.4553
 Red. masses --     8.8427                 7.8205                 9.9523
 Frc consts  --     0.0000                 0.0000                 0.0000
 IR Inten    --     0.0132                24.4557                 0.8383
 Raman Activ --     0.0000                 0.0000                 0.0000
 Depolar     --     0.0000                 0.0000                 0.0000
 Atom AN      X      Y      Z        X      Y      Z        X      Y      Z
   1   7    -0.01  -0.01   0.00     0.26   0.16   0.07    -0.01  -0.02  -0.02
   2   6     0.01  -0.01   0.01    -0.18   0.13  -0.22     0.23  -0.06   0.10
   3   6     0.01   0.00   0.01    -0.32  -0.19   0.22     0.26  -0.24  -0.02
   4   6     0.02   0.01  -0.01    -0.21  -0.12  -0.17    -0.19  -0.42  -0.12
   5   6    -0.34  -0.24  -0.11     0.08   0.06  -0.10    -0.10   0.03   0.14
   6   6     0.31   0.25   0.09     0.10   0.08   0.04     0.04   0.20   0.18
   7   6     0.01   0.01   0.01    -0.13  -0.18   0.01    -0.41   0.13  -0.03
   8   6    -0.33  -0.25  -0.09     0.13  -0.01   0.06     0.09   0.23  -0.09
   9   6     0.33   0.24   0.08     0.12   0.02  -0.06    -0.04   0.08  -0.16
  10  17     0.00  -0.00  -0.00     0.03   0.02   0.00    -0.00  -0.00   0.00
  11   1     0.00  -0.01   0.00     0.18   0.09   0.02    -0.05  -0.01  -0.01
  12   1    -0.01  -0.01  -0.01     0.14   0.09  -0.01    -0.05  -0.03   0.02
  13   1    -0.01   0.01   0.00     0.05  -0.04   0.15     0.00   0.04  -0.06
  14   1     0.00  -0.00   0.00    -0.06   0.03  -0.06     0.10   0.01   0.03
  15   1     0.01  -0.00   0.00    -0.04   0.03  -0.06     0.06  -0.01   0.02
  16   1     0.00  -0.00   0.00    -0.20  -0.29   0.13     0.14  -0.04  -0.01
  17   1     0.00   0.00   0.00    -0.03   0.08   0.30     0.11  -0.12  -0.05
  18   1    -0.22  -0.16  -0.07     0.06   0.05  -0.02     0.01   0.12   0.03
  19   1     0.20   0.15   0.06     0.06   0.08   0.04     0.14   0.10   0.05
  20   1     0.01   0.01   0.01    -0.09  -0.09  -0.00    -0.14   0.02  -0.01
  21   1    -0.21  -0.16  -0.06     0.09   0.02   0.04     0.15   0.09   0.03
  22   1     0.21   0.16   0.05     0.10   0.02  -0.02     0.02   0.12   0.01
                     13                     14                     15
                        a                      a                      a 
 Frequencies --   550.6458               592.1288               665.6591
 Red. masses --     9.3357                11.1166                 9.3328
 Frc consts  --     0.0000                 0.0000                 0.0000
 IR Inten    --     0.2147                 0.0535                 3.4275
 Raman Activ --     0.0000                 0.0000                 0.0000
 Depolar     --     0.0000                 0.0000                 0.0000
 Atom AN      X      Y      Z        X      Y      Z        X      Y      Z
   1   7    -0.05  -0.07  -0.01    -0.01  -0.00  -0.01     0.00  -0.02  -0.00
   2   6     0.14  -0.04   0.10    -0.00  -0.01  -0.01     0.05   0.00   0.04
   3   6     0.00   0.42   0.11     0.02   0.02  -0.06    -0.00   0.05   0.04
   4   6    -0.37   0.05  -0.06     0.02   0.03  -0.15    -0.40  -0.25  -0.11
   5   6    -0.09  -0.04  -0.21     0.24  -0.21  -0.30     0.23   0.19   0.03
   6   6     0.19   0.13  -0.13     0.17  -0.34   0.30    -0.28  -0.19  -0.11
   7   6    -0.01  -0.38  -0.07    -0.03  -0.04   0.18     0.24   0.13   0.06
   8   6     0.17   0.03   0.18    -0.26   0.22   0.35    -0.28  -0.21  -0.05
   9   6    -0.11  -0.13   0.11    -0.17   0.31  -0.26     0.22   0.17   0.08
  10  17    -0.00  -0.00   0.00    -0.00  -0.00  -0.00    -0.00   0.00   0.00
  11   1    -0.04  -0.05   0.00    -0.00  -0.00  -0.00    -0.01  -0.02   0.00
  12   1    -0.08  -0.06  -0.01    -0.00  -0.00  -0.00    -0.01  -0.01  -0.01
  13   1    -0.02   0.06  -0.05    -0.00   0.00  -0.00     0.00   0.02  -0.02
  14   1    -0.05  -0.07  -0.13    -0.00  -0.00  -0.00    -0.02  -0.02  -0.06
  15   1     0.20  -0.10   0.06    -0.01  -0.00  -0.00     0.08  -0.04   0.02
  16   1     0.06   0.18   0.01     0.03   0.04  -0.03     0.05   0.04   0.00
  17   1    -0.01   0.06  -0.06    -0.00  -0.02  -0.06     0.03  -0.03  -0.03
  18   1     0.08  -0.00  -0.01     0.04  -0.01  -0.11     0.22   0.16   0.05
  19   1     0.12   0.16   0.03     0.01  -0.06   0.12     0.01   0.03   0.00
  20   1     0.00  -0.10  -0.01     0.02   0.02  -0.11     0.20   0.14   0.06
  21   1     0.13   0.14   0.05    -0.04   0.02   0.13     0.01   0.02   0.01
  22   1     0.09  -0.02   0.01    -0.01   0.05  -0.10     0.23   0.16   0.06
                     16                     17                     18
                        a                      a                      a 
 Frequencies --   750.5004               781.8326               855.3931
 Red. masses --     4.1320                 8.2970                 5.5917
 Frc consts  --     0.0000                 0.0000                 0.0000
 IR Inten    --    23.5725                12.8659                20.5295
 Raman Activ --     0.0000                 0.0000                 0.0000
 Depolar     --     0.0000                 0.0000                 0.0000
 Atom AN      X      Y      Z        X      Y      Z        X      Y      Z
   1   7    -0.03  -0.02   0.01     0.05   0.01  -0.00     0.01   0.20  -0.10
   2   6    -0.07  -0.02  -0.07     0.20  -0.13  -0.03    -0.08   0.02   0.19
   3   6     0.02   0.04  -0.04     0.13  -0.33  -0.15    -0.10  -0.40   0.16
   4   6     0.29   0.18   0.08    -0.04   0.08   0.02     0.16   0.07   0.04
   5   6    -0.15  -0.15   0.01    -0.07   0.13  -0.15    -0.06   0.06  -0.07
   6   6    -0.07  -0.11   0.04    -0.07   0.19  -0.29    -0.06   0.12  -0.15
   7   6    -0.16  -0.06  -0.04     0.16  -0.22  -0.02     0.03  -0.12  -0.01
   8   6    -0.06  -0.07  -0.08    -0.17   0.10   0.32    -0.07   0.02   0.12
   9   6    -0.13  -0.13  -0.07    -0.12   0.08   0.20    -0.06   0.03  -0.01
  10  17    -0.00   0.00  -0.00     0.00  -0.00   0.00    -0.00   0.01   0.00
  11   1     0.01   0.03  -0.00    -0.02   0.11  -0.03     0.06  -0.17   0.04
  12   1     0.01   0.01   0.03    -0.10  -0.08   0.12     0.24   0.22  -0.24
  13   1    -0.01  -0.02   0.03     0.01   0.08  -0.03     0.04  -0.12   0.01
  14   1     0.00   0.01   0.07     0.17   0.04   0.30     0.06   0.07  -0.26
  15   1    -0.10   0.04  -0.04    -0.19   0.16  -0.08     0.19  -0.20   0.12
  16   1    -0.07  -0.05   0.00    -0.05  -0.18  -0.01     0.17   0.15  -0.03
  17   1    -0.04   0.08   0.06     0.05  -0.04   0.06    -0.10  -0.26  -0.24
  18   1     0.26   0.19   0.09     0.03   0.02  -0.02     0.00   0.03  -0.02
  19   1     0.32   0.19   0.09    -0.06   0.13  -0.02    -0.02   0.09  -0.00
  20   1     0.33   0.26   0.09     0.07  -0.04  -0.01     0.10   0.03   0.04
  21   1     0.31   0.20   0.07    -0.09   0.13   0.04     0.01   0.06   0.03
  22   1     0.23   0.18   0.07    -0.01   0.00   0.04     0.02   0.01  -0.01
                     19                     20                     21
                        a                      a                      a 
 Frequencies --   875.6682               894.9226               900.3911
 Red. masses --     3.3185                 5.1532                 3.4751
 Frc consts  --     0.0000                 0.0000                 0.0000
 IR Inten    --     0.0881                12.4131                 1.8807
 Raman Activ --     0.0000                 0.0000                 0.0000
 Depolar     --     0.0000                 0.0000                 0.0000
 Atom AN      X      Y      Z        X      Y      Z        X      Y      Z
   1   7     0.02   0.02   0.01    -0.20  -0.13   0.21    -0.00   0.02  -0.08
   2   6    -0.00  -0.00   0.02    -0.06   0.19  -0.12    -0.01  -0.07   0.01
   3   6    -0.02  -0.00  -0.01     0.30   0.07  -0.23    -0.04  -0.03   0.11
   4   6     0.00   0.00  -0.00     0.03  -0.04  -0.01     0.04   0.03   0.02
   5   6    -0.23  -0.17  -0.06    -0.08  -0.02   0.04    -0.18  -0.14  -0.07
   6   6    -0.13  -0.10  -0.03     0.03   0.07  -0.05     0.09   0.07   0.03
   7   6     0.03   0.02   0.01     0.11  -0.00   0.00     0.20   0.16   0.06
   8   6     0.14   0.11   0.04    -0.06   0.05   0.11     0.03  -0.00  -0.01
   9   6     0.20   0.14   0.06    -0.09  -0.02   0.03    -0.17  -0.13  -0.07
  10  17     0.00   0.00  -0.00    -0.00   0.00   0.00     0.00  -0.00  -0.00
  11   1    -0.01  -0.04   0.01    -0.09  -0.36   0.13     0.09   0.15  -0.05
  12   1    -0.00   0.00  -0.02     0.15   0.11  -0.21    -0.01  -0.00   0.07
  13   1     0.01   0.04  -0.04     0.00  -0.16  -0.01    -0.03  -0.04   0.09
  14   1    -0.00  -0.00  -0.02     0.04   0.10  -0.22    -0.00  -0.02   0.08
  15   1    -0.00  -0.03   0.01    -0.07  -0.22   0.04     0.03   0.09  -0.02
  16   1    -0.02  -0.01  -0.00    -0.05  -0.26   0.02     0.04   0.10  -0.00
  17   1    -0.00   0.00   0.00     0.20   0.16   0.24    -0.06  -0.06  -0.09
  18   1     0.42   0.33   0.12     0.10   0.07   0.05     0.35   0.27   0.10
  19   1     0.26   0.19   0.07    -0.09  -0.05  -0.04    -0.23  -0.17  -0.06
  20   1    -0.04  -0.03  -0.02    -0.09  -0.09  -0.05    -0.33  -0.24  -0.08
  21   1    -0.31  -0.23  -0.09    -0.06   0.02   0.01    -0.08  -0.08  -0.03
  22   1    -0.36  -0.27  -0.10     0.10   0.10   0.06     0.36   0.26   0.09
                     22                     23                     24
                        a                      a                      a 
 Frequencies --   922.3886               928.8802               937.3504
 Red. masses --     5.3055                 4.1463                 3.1898
 Frc consts  --     0.0000                 0.0000                 0.0000
 IR Inten    --    15.5666                 0.2940                 0.0263
 Raman Activ --     0.0000                 0.0000                 0.0000
 Depolar     --     0.0000                 0.0000                 0.0000
 Atom AN      X      Y      Z        X      Y      Z        X      Y      Z
   1   7     0.29   0.24   0.03    -0.04  -0.03  -0.00     0.01  -0.01   0.01
   2   6     0.09  -0.09   0.20    -0.02   0.01  -0.03     0.00   0.01  -0.00
   3   6    -0.27  -0.06  -0.21     0.04  -0.00   0.02    -0.00   0.01  -0.01
   4   6    -0.01   0.07   0.00     0.02   0.00   0.00    -0.06  -0.04  -0.02
   5   6     0.02  -0.03  -0.00     0.15   0.12   0.04     0.01   0.01   0.00
   6   6     0.01  -0.08   0.08    -0.25  -0.17  -0.08     0.13   0.09   0.04
   7   6     0.01   0.08   0.01     0.06   0.04   0.02    -0.24  -0.18  -0.07
   8   6     0.04  -0.01  -0.06     0.21   0.16   0.07     0.20   0.15   0.05
   9   6    -0.06  -0.09   0.03    -0.19  -0.14  -0.06    -0.04  -0.03  -0.01
  10  17    -0.00  -0.01   0.01     0.00   0.00  -0.00     0.00  -0.00   0.00
  11   1    -0.25  -0.26   0.05     0.03   0.03  -0.01    -0.01   0.00  -0.00
  12   1    -0.11  -0.06  -0.13     0.02   0.01   0.01    -0.01  -0.01   0.01
  13   1     0.16   0.37  -0.39    -0.02  -0.05   0.05     0.00   0.01  -0.01
  14   1     0.05  -0.00   0.00    -0.00   0.00  -0.00    -0.01  -0.01   0.00
  15   1    -0.07  -0.15   0.08     0.01   0.02  -0.01     0.00   0.00  -0.00
  16   1    -0.16  -0.11  -0.03     0.03   0.01   0.00    -0.00  -0.01   0.00
  17   1    -0.15   0.07   0.03     0.01  -0.01  -0.01     0.01   0.00   0.00
  18   1     0.01  -0.00   0.00    -0.23  -0.18  -0.07     0.07   0.06   0.02
  19   1     0.02  -0.04   0.01     0.41   0.31   0.12    -0.29  -0.22  -0.08
  20   1    -0.08  -0.04  -0.03    -0.11  -0.08  -0.03     0.46   0.34   0.13
  21   1    -0.02  -0.02  -0.02    -0.34  -0.25  -0.09    -0.41  -0.30  -0.12
  22   1     0.14   0.10   0.05     0.28   0.21   0.08     0.15   0.12   0.04
                     25                     26                     27
                        a                      a                      a 
 Frequencies --   987.7810              1026.9077              1044.3698
 Red. masses --    10.2827                 7.5819                 5.5766
 Frc consts  --     0.0000                 0.0000                 0.0000
 IR Inten    --     0.5805                12.1381                 6.9885
 Raman Activ --     0.0000                 0.0000                 0.0000
 Depolar     --     0.0000                 0.0000                 0.0000
 Atom AN      X      Y      Z        X      Y      Z        X      Y      Z
   1   7    -0.09   0.00   0.00    -0.08   0.28  -0.27     0.17   0.03  -0.14
   2   6     0.09  -0.03  -0.01    -0.01  -0.44   0.30    -0.40   0.04   0.16
   3   6     0.04  -0.08  -0.01     0.11   0.19  -0.18     0.21  -0.06  -0.12
   4   6    -0.13   0.14   0.01    -0.11  -0.02  -0.08     0.13  -0.04  -0.05
   5   6     0.18  -0.04  -0.51    -0.02   0.01   0.15     0.03  -0.03  -0.08
   6   6     0.00  -0.07   0.16     0.03  -0.05   0.05    -0.02   0.04  -0.03
   7   6    -0.22   0.29   0.02     0.03  -0.03  -0.03    -0.05   0.08  -0.03
   8   6     0.05  -0.01  -0.17     0.00   0.01   0.02    -0.07   0.05   0.10
   9   6     0.04  -0.23   0.49     0.01   0.02  -0.00     0.00  -0.09   0.20
  10  17    -0.00   0.00  -0.00    -0.00   0.00  -0.00     0.00  -0.00   0.00
  11   1     0.04  -0.04   0.02     0.18   0.10  -0.05     0.01   0.20  -0.09
  12   1     0.09   0.08  -0.05     0.21   0.23  -0.11    -0.14  -0.12   0.13
  13   1    -0.02  -0.12   0.07    -0.04  -0.18   0.13     0.00   0.16  -0.03
  14   1     0.14   0.07   0.03     0.11  -0.04   0.12    -0.40  -0.20  -0.19
  15   1    -0.03   0.00  -0.01    -0.08  -0.06   0.06     0.20  -0.06   0.08
  16   1     0.01  -0.03  -0.00     0.05  -0.20   0.04     0.30  -0.24   0.06
  17   1     0.01  -0.03  -0.01    -0.23   0.26   0.09     0.05   0.06   0.08
  18   1     0.03   0.03  -0.16    -0.01  -0.04   0.06     0.01   0.02  -0.03
  19   1    -0.05   0.04   0.09     0.04  -0.06  -0.02    -0.01   0.01  -0.01
  20   1    -0.06   0.08   0.01     0.02   0.00  -0.05    -0.02   0.03  -0.05
  21   1    -0.03   0.07  -0.08    -0.03   0.00  -0.01    -0.05   0.08  -0.00
  22   1    -0.02  -0.04   0.16    -0.03  -0.01  -0.01    -0.01  -0.00   0.08
                     28                     29                     30
                        a                      a                      a 
 Frequencies --  1080.3007              1091.5887              1127.9403
 Red. masses --     7.0953                 6.5190                 3.9016
 Frc consts  --     0.0000                 0.0000                 0.0000
 IR Inten    --    10.3244                 0.0527                 2.6313
 Raman Activ --     0.0000                 0.0000                 0.0000
 Depolar     --     0.0000                 0.0000                 0.0000
 Atom AN      X      Y      Z        X      Y      Z        X      Y      Z
   1   7     0.09   0.21  -0.06    -0.01   0.02   0.01     0.01   0.04   0.03
   2   6    -0.33  -0.35  -0.10     0.02  -0.03  -0.02    -0.06  -0.08  -0.10
   3   6     0.29   0.12   0.29    -0.02   0.04   0.02     0.06   0.01   0.16
   4   6    -0.01  -0.07   0.10    -0.01  -0.01   0.00     0.01   0.02  -0.11
   5   6     0.06  -0.01  -0.13     0.10  -0.12  -0.02    -0.14   0.15   0.12
   6   6    -0.03   0.06  -0.06     0.02   0.11  -0.34     0.04  -0.10   0.13
   7   6    -0.01  -0.01   0.07    -0.27   0.35   0.03     0.03   0.03  -0.17
   8   6     0.03  -0.01  -0.06    -0.08  -0.02   0.34    -0.08   0.06   0.13
   9   6    -0.01   0.04  -0.06     0.10  -0.12  -0.01     0.11  -0.19   0.09
  10  17    -0.00  -0.00   0.00    -0.00   0.00   0.00     0.00  -0.00   0.00
  11   1    -0.06  -0.08   0.01    -0.00  -0.02   0.01    -0.03  -0.05   0.02
  12   1     0.02   0.05  -0.10     0.01   0.01  -0.02     0.00   0.01  -0.04
  13   1     0.06   0.09  -0.12     0.01  -0.01  -0.01     0.02   0.02  -0.04
  14   1    -0.07  -0.08   0.09     0.03   0.01   0.03     0.00  -0.01   0.04
  15   1    -0.37  -0.12  -0.04    -0.03   0.01  -0.01    -0.09   0.01  -0.04
  16   1    -0.11   0.20   0.01    -0.03   0.02  -0.00    -0.01   0.10   0.01
  17   1     0.34  -0.13   0.03    -0.00  -0.00  -0.01     0.07  -0.07  -0.02
  18   1     0.01  -0.02  -0.04     0.16  -0.26   0.12    -0.23   0.34  -0.14
  19   1    -0.08   0.09   0.04     0.19  -0.15  -0.27     0.16  -0.18  -0.09
  20   1    -0.02  -0.03   0.12    -0.08   0.10   0.01     0.06   0.08  -0.41
  21   1     0.04  -0.06   0.01     0.12  -0.25   0.24    -0.14   0.22  -0.08
  22   1    -0.06   0.07   0.03     0.20  -0.22  -0.16     0.27  -0.29  -0.19
                     31                     32                     33
                        a                      a                      a 
 Frequencies --  1183.1419              1193.8189              1198.3865
 Red. masses --     1.3460                 4.1837                 1.7498
 Frc consts  --     0.0000                 0.0000                 0.0000
 IR Inten    --     0.0119                 4.2193                 0.3619
 Raman Activ --     0.0000                 0.0000                 0.0000
 Depolar     --     0.0000                 0.0000                 0.0000
 Atom AN      X      Y      Z        X      Y      Z        X      Y      Z
   1   7     0.00   0.00   0.01    -0.03  -0.03  -0.18    -0.00  -0.00  -0.00
   2   6    -0.01  -0.01  -0.02     0.08   0.06   0.38    -0.01  -0.01   0.02
   3   6     0.01   0.00   0.01    -0.14  -0.03  -0.21     0.01  -0.03  -0.02
   4   6     0.01   0.01  -0.07     0.01   0.03   0.12    -0.05   0.07   0.03
   5   6     0.06  -0.07  -0.00    -0.01   0.04  -0.05     0.03  -0.07   0.08
   6   6     0.02  -0.01  -0.02     0.02  -0.03  -0.03    -0.05   0.03   0.10
   7   6    -0.01  -0.02   0.08    -0.00  -0.00   0.01    -0.02   0.02   0.00
   8   6    -0.01   0.02  -0.02    -0.01   0.01  -0.02    -0.02   0.07  -0.11
   9   6    -0.05   0.07   0.00     0.00  -0.01  -0.05     0.06  -0.04  -0.10
  10  17     0.00   0.00   0.00    -0.00   0.00  -0.00     0.00  -0.00   0.00
  11   1    -0.01  -0.01   0.00     0.11   0.16  -0.07     0.01   0.00  -0.00
  12   1    -0.00   0.00  -0.01     0.02   0.00   0.10     0.00   0.00   0.00
  13   1     0.00   0.00  -0.01    -0.07  -0.05   0.11    -0.00   0.01  -0.01
  14   1     0.00   0.00   0.00    -0.04  -0.03  -0.06    -0.01  -0.01   0.00
  15   1    -0.01   0.01  -0.01     0.09  -0.14   0.15     0.02  -0.00   0.01
  16   1     0.03  -0.01   0.01    -0.47   0.06  -0.10    -0.00  -0.03   0.00
  17   1    -0.03   0.01  -0.01     0.52  -0.14   0.16     0.08  -0.04   0.00
  18   1    -0.05   0.09  -0.06    -0.07   0.12  -0.08     0.23  -0.39   0.23
  19   1     0.26  -0.26  -0.24     0.04  -0.03  -0.03    -0.27   0.26   0.26
  20   1    -0.10  -0.13   0.70    -0.00  -0.00   0.03    -0.00   0.01  -0.00
  21   1    -0.21   0.36  -0.20     0.02  -0.03   0.01    -0.18   0.32  -0.20
  22   1     0.08  -0.08  -0.09     0.08  -0.05  -0.07     0.31  -0.30  -0.29
                     34                     35                     36
                        a                      a                      a 
 Frequencies --  1232.6746              1241.9332              1288.5537
 Red. masses --     5.2515                 5.4205                 3.5206
 Frc consts  --     0.0000                 0.0000                 0.0000
 IR Inten    --    19.8667                 5.3897                 0.5335
 Raman Activ --     0.0000                 0.0000                 0.0000
 Depolar     --     0.0000                 0.0000                 0.0000
 Atom AN      X      Y      Z        X      Y      Z        X      Y      Z
   1   7    -0.12   0.16   0.11    -0.07   0.13   0.12    -0.02   0.01  -0.02
   2   6     0.17  -0.09  -0.04     0.03  -0.13  -0.08     0.07   0.01   0.02
   3   6    -0.13   0.12  -0.06     0.01  -0.16  -0.09    -0.10   0.02   0.05
   4   6     0.25  -0.33  -0.00    -0.23   0.38   0.04     0.06   0.03  -0.20
   5   6     0.08  -0.09  -0.04    -0.09   0.11   0.02    -0.10   0.17  -0.07
   6   6    -0.04   0.10  -0.12     0.04  -0.11   0.12    -0.05   0.03   0.07
   7   6    -0.04   0.05   0.01     0.05  -0.06   0.00    -0.04  -0.03   0.21
   8   6    -0.07   0.05   0.11     0.08  -0.05  -0.14     0.02  -0.06   0.09
   9   6     0.07  -0.09   0.01    -0.09   0.12  -0.00     0.14  -0.15  -0.11
  10  17    -0.00   0.00   0.00    -0.00  -0.00   0.00    -0.00  -0.00  -0.00
  11   1    -0.01  -0.16   0.08    -0.02  -0.13   0.07     0.02  -0.00  -0.00
  12   1     0.08   0.12  -0.13     0.05   0.08  -0.12    -0.00   0.00   0.02
  13   1     0.03  -0.09  -0.04     0.04  -0.05  -0.06    -0.00  -0.01  -0.00
  14   1    -0.34  -0.31   0.17    -0.22  -0.21   0.13    -0.03  -0.03   0.01
  15   1     0.25   0.31  -0.09     0.26   0.27  -0.09    -0.07  -0.05   0.01
  16   1    -0.19   0.07  -0.04     0.20  -0.15   0.02    -0.01   0.05  -0.01
  17   1    -0.02   0.04   0.02     0.30  -0.15   0.03     0.16  -0.09   0.01
  18   1    -0.04   0.09  -0.08     0.04  -0.08   0.08     0.20  -0.34   0.20
  19   1    -0.12   0.14   0.06     0.13  -0.15  -0.07     0.21  -0.21  -0.18
  20   1    -0.01   0.02   0.01     0.02  -0.02   0.01     0.04   0.05  -0.26
  21   1    -0.09   0.14  -0.03     0.12  -0.18   0.05    -0.18   0.30  -0.15
  22   1    -0.05   0.04   0.07     0.04  -0.03  -0.07    -0.26   0.27   0.25
                     37                     38                     39
                        a                      a                      a 
 Frequencies --  1320.6694              1332.3974              1344.1726
 Red. masses --     3.9877                 8.2102                 8.3046
 Frc consts  --     0.0000                 0.0000                 0.0000
 IR Inten    --     8.9540                 1.6110                 0.6939
 Raman Activ --     0.0000                 0.0000                 0.0000
 Depolar     --     0.0000                 0.0000                 0.0000
 Atom AN      X      Y      Z        X      Y      Z        X      Y      Z
   1   7    -0.04   0.09  -0.11     0.02  -0.01   0.03     0.02  -0.01   0.03
   2   6     0.35   0.25  -0.01    -0.13   0.04   0.01    -0.14   0.00   0.04
   3   6     0.10  -0.15   0.07     0.38  -0.15   0.01     0.30  -0.13   0.04
   4   6    -0.06   0.08  -0.03    -0.15  -0.00   0.27    -0.04   0.10  -0.30
   5   6    -0.01   0.00   0.01    -0.14   0.26  -0.15     0.12  -0.18   0.08
   6   6    -0.01  -0.00   0.05     0.15  -0.16  -0.10    -0.20   0.20   0.20
   7   6     0.02  -0.01  -0.05    -0.03  -0.07   0.27     0.04   0.03  -0.23
   8   6     0.03  -0.02  -0.03    -0.10   0.19  -0.15     0.17  -0.26   0.10
   9   6    -0.05   0.05   0.05     0.14  -0.14  -0.13    -0.18   0.19   0.14
  10  17    -0.00   0.00  -0.00     0.00   0.00   0.00     0.00   0.00   0.00
  11   1    -0.01  -0.08   0.00    -0.03  -0.00   0.00    -0.02   0.01  -0.00
  12   1    -0.05  -0.01   0.06    -0.01  -0.01  -0.01    -0.01  -0.01  -0.01
  13   1    -0.03  -0.15   0.13     0.00   0.03   0.00     0.00   0.02  -0.01
  14   1    -0.46  -0.35   0.05    -0.06  -0.01  -0.04    -0.00   0.02  -0.03
  15   1    -0.43  -0.31   0.06     0.18   0.10  -0.01     0.20   0.11  -0.00
  16   1    -0.05   0.01  -0.01    -0.37   0.05  -0.06    -0.45   0.14  -0.09
  17   1    -0.19   0.01  -0.08    -0.34   0.12  -0.07    -0.13   0.03  -0.06
  18   1     0.01  -0.02   0.02     0.02  -0.05   0.02     0.05  -0.09   0.04
  19   1     0.02  -0.02  -0.00     0.05  -0.06  -0.04     0.06  -0.06  -0.05
  20   1     0.00  -0.01   0.01     0.00  -0.00  -0.02     0.01   0.01  -0.08
  21   1     0.03  -0.05   0.02     0.01  -0.01  -0.01    -0.01   0.02  -0.02
  22   1     0.04  -0.04  -0.04     0.01  -0.02  -0.02    -0.02   0.02   0.01
                     40                     41                     42
                        a                      a                      a 
 Frequencies --  1372.3561              1397.1871              1445.0979
 Red. masses --     2.5704                 1.5326                 8.7563
 Frc consts  --     0.0000                 0.0000                 0.0000
 IR Inten    --   167.7399                77.7963                 1.3199
 Raman Activ --     0.0000                 0.0000                 0.0000
 Depolar     --     0.0000                 0.0000                 0.0000
 Atom AN      X      Y      Z        X      Y      Z        X      Y      Z
   1   7     0.21   0.25  -0.05    -0.14   0.06   0.12    -0.00   0.02  -0.02
   2   6    -0.07  -0.04   0.01    -0.01   0.04   0.03    -0.02  -0.01   0.00
   3   6    -0.03   0.03  -0.02     0.02  -0.02  -0.00     0.01  -0.02   0.08
   4   6     0.01  -0.02   0.02    -0.00  -0.01   0.02     0.06   0.08  -0.41
   5   6     0.00  -0.01  -0.00     0.00   0.00  -0.01    -0.17   0.18   0.14
   6   6    -0.01   0.01  -0.01    -0.01   0.01   0.00     0.18  -0.27   0.07
   7   6    -0.00  -0.00   0.02     0.00  -0.01   0.01     0.05   0.06  -0.36
   8   6     0.00  -0.00   0.00     0.00  -0.00  -0.01    -0.21   0.24   0.10
   9   6     0.01  -0.00  -0.02    -0.01   0.01   0.00     0.14  -0.23   0.12
  10  17    -0.00   0.01  -0.00    -0.01   0.01   0.01    -0.00   0.00   0.00
  11   1    -0.32  -0.14  -0.00     0.53   0.15   0.04     0.03  -0.06   0.02
  12   1    -0.47  -0.31  -0.12    -0.24  -0.15  -0.06    -0.02  -0.02   0.06
  13   1     0.07  -0.55   0.31     0.31  -0.37  -0.57     0.01  -0.02  -0.01
  14   1     0.10   0.07   0.02     0.01   0.02  -0.04     0.01   0.01   0.00
  15   1     0.10   0.02   0.01    -0.04  -0.04   0.02     0.03   0.01  -0.00
  16   1     0.00  -0.01   0.00    -0.01   0.02  -0.01    -0.12   0.07  -0.02
  17   1     0.03  -0.01  -0.00    -0.02   0.02   0.02     0.06  -0.05  -0.02
  18   1     0.01   0.01  -0.00    -0.01   0.00  -0.01     0.04  -0.11   0.13
  19   1     0.00   0.01   0.00     0.00  -0.00  -0.00    -0.10   0.07   0.16
  20   1     0.01   0.01  -0.01     0.01   0.00  -0.00    -0.05  -0.06   0.34
  21   1    -0.01   0.01  -0.01     0.01  -0.00   0.00     0.06  -0.13   0.14
  22   1    -0.01   0.00  -0.00     0.01  -0.01  -0.01    -0.08   0.05   0.14
                     43                     44                     45
                        a                      a                      a 
 Frequencies --  1460.7393              1481.0040              1486.5256
 Red. masses --     2.0894                 2.9417                 8.0365
 Frc consts  --     0.0000                 0.0000                 0.0000
 IR Inten    --    74.5036                 4.9793                 4.8812
 Raman Activ --     0.0000                 0.0000                 0.0000
 Depolar     --     0.0000                 0.0000                 0.0000
 Atom AN      X      Y      Z        X      Y      Z        X      Y      Z
   1   7     0.04  -0.15   0.20    -0.00  -0.03   0.03     0.00  -0.01   0.01
   2   6     0.10  -0.00   0.08    -0.09   0.12  -0.19    -0.05   0.04  -0.08
   3   6    -0.01   0.00   0.01     0.03  -0.06  -0.01    -0.09   0.07  -0.01
   4   6     0.01   0.00  -0.04    -0.10   0.13   0.00     0.24  -0.32  -0.03
   5   6    -0.02   0.02   0.00     0.02  -0.07   0.10    -0.06   0.16  -0.22
   6   6     0.01  -0.03   0.02     0.08  -0.07  -0.10    -0.18   0.15   0.25
   7   6     0.01   0.00  -0.04    -0.06   0.08  -0.00     0.15  -0.20  -0.01
   8   6    -0.02   0.03   0.00     0.04  -0.09   0.10    -0.12   0.24  -0.22
   9   6     0.01  -0.02   0.02     0.06  -0.04  -0.10    -0.12   0.07   0.24
  10  17    -0.00  -0.00   0.00    -0.00  -0.00   0.00     0.00  -0.00  -0.00
  11   1    -0.27   0.56  -0.17    -0.04   0.14  -0.04    -0.02   0.04  -0.02
  12   1     0.02   0.03  -0.66     0.02   0.02  -0.15     0.02   0.01  -0.05
  13   1     0.03  -0.02  -0.01     0.00   0.01  -0.02    -0.00   0.01   0.00
  14   1    -0.07  -0.05  -0.14     0.01   0.00   0.60     0.03   0.02   0.25
  15   1    -0.15   0.07  -0.02     0.33  -0.49   0.15     0.13  -0.20   0.06
  16   1    -0.03  -0.02   0.00     0.02   0.05  -0.02     0.03   0.09  -0.02
  17   1     0.01  -0.03  -0.03    -0.00   0.03   0.04    -0.01   0.06   0.07
  18   1     0.02  -0.02   0.02    -0.05   0.07  -0.02     0.12  -0.18   0.06
  19   1    -0.00  -0.00   0.01    -0.06   0.06   0.04     0.14  -0.15  -0.10
  20   1    -0.00  -0.01   0.03    -0.02   0.02   0.01     0.05  -0.06  -0.00
  21   1     0.01  -0.02   0.02    -0.05   0.07  -0.03     0.11  -0.18   0.07
  22   1    -0.00   0.00   0.01    -0.07   0.07   0.04     0.14  -0.15  -0.08
                     46                     47                     48
                        a                      a                      a 
 Frequencies --  1495.2316              1602.5492              1613.6760
 Red. masses --     2.1125                11.5092                11.5283
 Frc consts  --     0.0000                 0.0000                 0.0000
 IR Inten    --     7.4572                 0.5605                 1.8140
 Raman Activ --     0.0000                 0.0000                 0.0000
 Depolar     --     0.0000                 0.0000                 0.0000
 Atom AN      X      Y      Z        X      Y      Z        X      Y      Z
   1   7     0.01   0.01  -0.00    -0.00  -0.00  -0.00     0.00   0.00  -0.00
   2   6     0.02  -0.03   0.02     0.00   0.00  -0.00    -0.01  -0.00  -0.00
   3   6    -0.03  -0.29  -0.09     0.00   0.01  -0.04    -0.02   0.04   0.00
   4   6    -0.05   0.04  -0.01    -0.07  -0.09   0.47     0.18  -0.24  -0.01
   5   6    -0.00   0.00   0.01    -0.05   0.16  -0.26    -0.25   0.38  -0.11
   6   6     0.02  -0.02  -0.01    -0.12   0.05   0.30     0.28  -0.31  -0.14
   7   6    -0.01   0.02  -0.01     0.08   0.10  -0.54    -0.12   0.16   0.01
   8   6     0.01  -0.02   0.02     0.03  -0.15   0.29     0.24  -0.36   0.10
   9   6     0.01  -0.00  -0.01     0.13  -0.07  -0.28    -0.29   0.32   0.16
  10  17     0.00  -0.00   0.00    -0.00  -0.00   0.00     0.00   0.00   0.00
  11   1    -0.03  -0.01  -0.00     0.00  -0.00   0.00    -0.00  -0.00   0.00
  12   1    -0.00  -0.00  -0.01     0.00   0.00   0.00     0.00   0.00   0.00
  13   1    -0.01   0.00   0.02    -0.00   0.00  -0.00     0.00   0.00   0.00
  14   1    -0.02  -0.02  -0.09    -0.00  -0.00   0.00     0.01   0.01   0.01
  15   1    -0.05   0.07  -0.03     0.00   0.00  -0.00     0.00  -0.00   0.00
  16   1     0.23   0.60  -0.19     0.05  -0.05   0.01    -0.01  -0.00   0.00
  17   1    -0.01   0.35   0.55    -0.04   0.03   0.01    -0.01   0.00  -0.00
  18   1     0.01  -0.01   0.01     0.05  -0.06  -0.01     0.04  -0.07   0.07
  19   1    -0.01   0.01   0.01     0.04  -0.06   0.01    -0.05   0.04   0.07
  20   1    -0.00   0.01   0.00    -0.02  -0.02   0.12    -0.03   0.04   0.00
  21   1    -0.01   0.01  -0.01    -0.05   0.05   0.02    -0.03   0.06  -0.06
  22   1     0.00  -0.00  -0.00    -0.05   0.06   0.00     0.06  -0.05  -0.08
                     49                     50                     51
                        a                      a                      a 
 Frequencies --  2803.1537              2940.4339              2952.3037
 Red. masses --     2.0247                 1.9432                 1.9178
 Frc consts  --     0.0000                 0.0000                 0.0000
 IR Inten    --  2256.3108                 8.2409                 0.3959
 Raman Activ --     0.0000                 0.0000                 0.0000
 Depolar     --     0.0000                 0.0000                 0.0000
 Atom AN      X      Y      Z        X      Y      Z        X      Y      Z
   1   7    -0.25  -0.06  -0.11    -0.00   0.00  -0.00    -0.00  -0.00  -0.00
   2   6    -0.00  -0.00   0.00     0.01  -0.03  -0.04    -0.13   0.20   0.14
   3   6     0.00   0.01  -0.00    -0.08  -0.09   0.26    -0.03  -0.07   0.02
   4   6    -0.00   0.00   0.00    -0.00  -0.00   0.01     0.00  -0.00   0.00
   5   6     0.00   0.00  -0.00     0.00  -0.00  -0.00    -0.00   0.00  -0.00
   6   6     0.00  -0.00   0.00    -0.00   0.00   0.00    -0.00   0.00  -0.00
   7   6     0.00  -0.00   0.00     0.00   0.00  -0.00    -0.00   0.00  -0.00
   8   6     0.00  -0.00  -0.00     0.00  -0.00   0.00     0.00  -0.00   0.00
   9   6     0.00   0.00  -0.00    -0.00   0.00  -0.00    -0.00   0.00  -0.00
  10  17     0.01   0.00   0.01     0.00   0.00  -0.00     0.00   0.00  -0.00
  11   1    -0.02   0.01   0.01     0.00   0.00  -0.00    -0.00   0.00   0.01
  12   1     0.00  -0.03  -0.01     0.00  -0.00   0.00    -0.01   0.01  -0.00
  13   1     0.86   0.22   0.36     0.00   0.00   0.00     0.01   0.00   0.00
  14   1     0.00   0.00   0.00    -0.04   0.05  -0.00     0.44  -0.60  -0.01
  15   1     0.00  -0.00  -0.00    -0.01   0.05   0.18     0.02  -0.12  -0.49
  16   1     0.00  -0.00  -0.01     0.04  -0.21  -0.60    -0.01   0.02   0.11
  17   1    -0.00  -0.01   0.01     0.26   0.53  -0.34     0.12   0.23  -0.17
  18   1    -0.00  -0.00  -0.00    -0.01   0.00   0.01    -0.00  -0.00  -0.00
  19   1    -0.00   0.00  -0.00    -0.00  -0.00  -0.00     0.00  -0.00   0.00
  20   1    -0.00   0.00   0.00    -0.00  -0.00  -0.00     0.00  -0.00  -0.00
  21   1    -0.00   0.00   0.00     0.00   0.00  -0.00     0.00   0.00  -0.00
  22   1     0.00  -0.00   0.00     0.00  -0.01   0.01     0.00  -0.00   0.00
                     52                     53                     54
                        a                      a                      a 
 Frequencies --  2966.8318              2979.0105              3091.8219
 Red. masses --     1.5560                 1.5549                 1.7527
 Frc consts  --     0.0000                 0.0000                 0.0000
 IR Inten    --    23.5623                 4.1947                 1.5742
 Raman Activ --     0.0000                 0.0000                 0.0000
 Depolar     --     0.0000                 0.0000                 0.0000
 Atom AN      X      Y      Z        X      Y      Z        X      Y      Z
   1   7    -0.00   0.00  -0.00     0.00   0.00   0.00    -0.00   0.00  -0.00
   2   6     0.05  -0.07  -0.02    -0.07   0.05  -0.20     0.00  -0.00   0.00
   3   6    -0.05  -0.18  -0.09     0.00  -0.01  -0.05    -0.00   0.00   0.00
   4   6     0.00  -0.01  -0.00     0.00  -0.00  -0.00    -0.00   0.00   0.00
   5   6    -0.00   0.00   0.00    -0.00   0.00   0.00    -0.04   0.02   0.07
   6   6     0.00  -0.00  -0.00     0.00  -0.00   0.00    -0.03   0.10  -0.14
   7   6    -0.00   0.00   0.00     0.00  -0.00   0.00     0.09  -0.11  -0.01
   8   6    -0.00   0.00   0.00     0.00  -0.00  -0.00    -0.04   0.02   0.09
   9   6    -0.00   0.00   0.00     0.00  -0.00   0.00    -0.00   0.01  -0.02
  10  17     0.00   0.00   0.00    -0.00  -0.00   0.00    -0.00  -0.00  -0.00
  11   1    -0.00   0.00   0.00     0.00  -0.01  -0.02     0.00   0.00   0.00
  12   1     0.01  -0.01  -0.00    -0.01   0.01   0.00     0.00  -0.00   0.00
  13   1     0.01   0.00   0.01     0.00   0.00  -0.00     0.00   0.00   0.00
  14   1    -0.18   0.24   0.01     0.31  -0.43  -0.05    -0.00   0.00   0.00
  15   1     0.00   0.01   0.06    -0.07   0.23   0.76     0.00  -0.00   0.00
  16   1    -0.06   0.19   0.67    -0.01   0.05   0.16     0.00  -0.00  -0.01
  17   1     0.23   0.45  -0.34    -0.01  -0.01   0.00    -0.00  -0.00   0.00
  18   1     0.00  -0.00  -0.01     0.00  -0.00  -0.01     0.14  -0.08  -0.28
  19   1    -0.00  -0.00   0.00     0.00   0.00  -0.00     0.11  -0.35   0.51
  20   1    -0.00  -0.00   0.00    -0.00   0.00   0.00    -0.33   0.43   0.03
  21   1     0.00  -0.00  -0.00    -0.00   0.00   0.00     0.15  -0.09  -0.32
  22   1     0.00  -0.00   0.00    -0.00   0.00  -0.00     0.02  -0.05   0.08
                     55                     56                     57
                        a                      a                      a 
 Frequencies --  3095.2052              3103.0147              3107.9133
 Red. masses --     1.7887                 1.8358                 1.8767
 Frc consts  --     0.0000                 0.0000                 0.0000
 IR Inten    --     1.4740                46.5498                74.0993
 Raman Activ --     0.0000                 0.0000                 0.0000
 Depolar     --     0.0000                 0.0000                 0.0000
 Atom AN      X      Y      Z        X      Y      Z        X      Y      Z
   1   7     0.00  -0.00   0.00     0.00  -0.00   0.00     0.00   0.00  -0.00
   2   6    -0.00   0.00  -0.00    -0.00   0.00  -0.00    -0.00   0.00   0.00
   3   6     0.00  -0.00  -0.00    -0.00  -0.00  -0.00    -0.00  -0.00   0.00
   4   6     0.00   0.00  -0.01     0.01  -0.01  -0.00     0.00  -0.00   0.00
   5   6     0.05  -0.03  -0.10     0.07  -0.04  -0.15    -0.06   0.03   0.12
   6   6     0.02  -0.06   0.09    -0.00   0.01  -0.01     0.03  -0.08   0.12
   7   6     0.04  -0.05  -0.00     0.10  -0.13  -0.01     0.04  -0.06  -0.01
   8   6    -0.08   0.04   0.16     0.04  -0.02  -0.07    -0.03   0.02   0.06
   9   6    -0.02   0.05  -0.07     0.02  -0.06   0.10     0.03  -0.09   0.14
  10  17     0.00   0.00  -0.00     0.00   0.00   0.00     0.00   0.00  -0.00
  11   1    -0.00  -0.00  -0.00    -0.00  -0.00  -0.00     0.00   0.00   0.00
  12   1    -0.00   0.00  -0.00    -0.01   0.01  -0.00     0.00  -0.00   0.00
  13   1     0.00  -0.00   0.00     0.00  -0.00  -0.00    -0.00  -0.00   0.00
  14   1     0.00  -0.00  -0.00     0.00  -0.00  -0.00     0.00  -0.00  -0.00
  15   1     0.00   0.00   0.00    -0.00   0.00  -0.00    -0.00  -0.00  -0.01
  16   1    -0.00   0.00   0.01    -0.00   0.00   0.01     0.00  -0.00  -0.01
  17   1    -0.00  -0.00   0.00     0.00   0.00  -0.00     0.00   0.01  -0.00
  18   1    -0.17   0.10   0.36    -0.25   0.14   0.52     0.20  -0.11  -0.41
  19   1    -0.07   0.23  -0.33     0.01  -0.03   0.05    -0.09   0.27  -0.39
  20   1    -0.13   0.17   0.01    -0.34   0.44   0.03    -0.15   0.19   0.02
  21   1     0.28  -0.16  -0.57    -0.12   0.07   0.26     0.09  -0.05  -0.20
  22   1     0.07  -0.19   0.28    -0.08   0.23  -0.34    -0.11   0.32  -0.48
                     58                     59                     60
                        a                      a                      a 
 Frequencies --  3112.2538              3192.5064              3204.9515
 Red. masses --     1.9207                 2.0184                 1.5149
 Frc consts  --     0.0000                 0.0000                 0.0000
 IR Inten    --     7.8368                57.5563                20.5887
 Raman Activ --     0.0000                 0.0000                 0.0000
 Depolar     --     0.0000                 0.0000                 0.0000
 Atom AN      X      Y      Z        X      Y      Z        X      Y      Z
   1   7    -0.00  -0.00  -0.00     0.13  -0.21  -0.14     0.04  -0.05   0.19
   2   6    -0.00   0.00   0.00     0.00  -0.01  -0.00     0.00  -0.01   0.01
   3   6    -0.00  -0.00   0.00     0.00   0.00   0.00     0.00  -0.00  -0.00
   4   6     0.01  -0.01  -0.00    -0.00   0.00  -0.00    -0.00   0.00   0.00
   5   6     0.03  -0.02  -0.07    -0.00   0.00   0.00    -0.00   0.00   0.00
   6   6    -0.02   0.06  -0.09     0.00  -0.00   0.00     0.00   0.00  -0.00
   7   6    -0.09   0.11   0.01     0.00  -0.00   0.00    -0.00   0.00   0.00
   8   6    -0.06   0.03   0.13     0.00   0.00  -0.00    -0.00   0.00   0.00
   9   6     0.03  -0.08   0.12    -0.00   0.00  -0.00     0.00  -0.00  -0.00
  10  17     0.00  -0.00  -0.00    -0.00  -0.00  -0.00    -0.00  -0.00  -0.00
  11   1    -0.00   0.00   0.00    -0.04   0.12   0.49     0.10  -0.23  -0.79
  12   1    -0.00   0.01  -0.00    -0.47   0.67   0.03    -0.30   0.43   0.05
  13   1     0.00   0.00   0.00     0.03  -0.01  -0.00     0.05   0.01   0.03
  14   1     0.00  -0.00  -0.00    -0.01   0.02   0.00    -0.01   0.01   0.00
  15   1    -0.00  -0.00  -0.00    -0.00   0.00   0.01     0.00  -0.01  -0.02
  16   1    -0.00   0.00   0.00     0.00  -0.00  -0.00    -0.00  -0.00   0.00
  17   1     0.00   0.00  -0.00     0.00  -0.00   0.00     0.00   0.00  -0.00
  18   1    -0.12   0.06   0.24     0.00  -0.00  -0.01     0.00  -0.00  -0.01
  19   1     0.06  -0.19   0.28     0.00   0.00  -0.00     0.00  -0.00   0.00
  20   1     0.29  -0.38  -0.03    -0.00   0.00  -0.00     0.00  -0.00  -0.00
  21   1     0.20  -0.11  -0.41    -0.00   0.00   0.00     0.00  -0.00  -0.00
  22   1    -0.10   0.29  -0.43     0.00  -0.00   0.01     0.00  -0.00   0.00
