      -----------------------------------------------------------      
     |                   =====================                   |     
     |                           x T B                           |     
     |                   =====================                   |     
     |                         S. Grimme                         |     
     |          Mulliken Center for Theoretical Chemistry        |     
     |                    University of Bonn                     |     
      -----------------------------------------------------------      

   * xtb version 6.5.1 (fef0646) compiled by 'conda@b96dff2e9fd6' on 2023-01-04

   xtb is free software: you can redistribute it and/or modify it under
   the terms of the GNU Lesser General Public License as published by
   the Free Software Foundation, either version 3 of the License, or
   (at your option) any later version.
   
   xtb is distributed in the hope that it will be useful,
   but WITHOUT ANY WARRANTY; without even the implied warranty of
   MERCHANTABILITY or FITNESS FOR A PARTICULAR PURPOSE.  See the
   GNU Lesser General Public License for more details.
   
   Cite this work as:
   * C. Bannwarth, E. Caldeweyher, S. Ehlert, A. Hansen, P. Pracht,
     J. Seibert, S. Spicher, S. Grimme, WIREs Comput. Mol. Sci., 2020, 11,
     e01493. DOI: 10.1002/wcms.1493
   
   for GFN2-xTB:
   * C. Bannwarth, S. Ehlert and S. Grimme., J. Chem. Theory Comput., 2019,
     15, 1652-1671. DOI: 10.1021/acs.jctc.8b01176
   for GFN1-xTB:
   * S. Grimme, C. Bannwarth, P. Shushkov, J. Chem. Theory Comput., 2017,
     13, 1989-2009. DOI: 10.1021/acs.jctc.7b00118
   for GFN0-xTB:
   * P. Pracht, E. Caldeweyher, S. Ehlert, S. Grimme, ChemRxiv, 2019, preprint.
     DOI: 10.26434/chemrxiv.8326202.v1
   for GFN-FF:
   * S. Spicher and S. Grimme, Angew. Chem. Int. Ed., 2020, 59, 15665-15673.
     DOI: 10.1002/anie.202004239
   
   for ALPB and GBSA implicit solvation:
   * S. Ehlert, M. Stahn, S. Spicher, S. Grimme, J. Chem. Theory Comput.,
     2021, 17, 4250-4261. DOI: 10.1021/acs.jctc.1c00471
   
   for DFT-D4:
   * E. Caldeweyher, C. Bannwarth and S. Grimme, J. Chem. Phys., 2017,
     147, 034112. DOI: 10.1063/1.4993215
   * E. Caldeweyher, S. Ehlert, A. Hansen, H. Neugebauer, S. Spicher,
     C. Bannwarth and S. Grimme, J. Chem. Phys., 2019, 150, 154122.
     DOI: 10.1063/1.5090222
   * E. Caldeweyher, J.-M. Mewes, S. Ehlert and S. Grimme, Phys. Chem. Chem. Phys.
     2020, 22, 8499-8512. DOI: 10.1039/D0CP00502A
   
   for sTDA-xTB:
   * S. Grimme and C. Bannwarth, J. Chem. Phys., 2016, 145, 054103.
     DOI: 10.1063/1.4959605
   
   in the mass-spec context:
   * V. Asgeirsson, C. Bauer and S. Grimme, Chem. Sci., 2017, 8, 4879.
     DOI: 10.1039/c7sc00601b
   * J. Koopman and S. Grimme, ACS Omega 2019, 4, 12, 15120-15133.
     DOI: 10.1021/acsomega.9b02011
   
   for metadynamics refer to:
   * S. Grimme, J. Chem. Theory Comput., 2019, 155, 2847-2862
     DOI: 10.1021/acs.jctc.9b00143
   
   for SPH calculations refer to:
   * S. Spicher and S. Grimme, J. Chem. Theory Comput., 2021, 17, 1701-1714
     DOI: 10.1021/acs.jctc.0c01306
   
   with help from (in alphabetical order)
   P. Atkinson, C. Bannwarth, F. Bohle, G. Brandenburg, E. Caldeweyher
   M. Checinski, S. Dohm, S. Ehlert, S. Ehrlich, I. Gerasimov, C. Hölzer
   A. Katbashev, J. Koopman, C. Lavigne, S. Lehtola, F. März, M. Müller,
   F. Musil, H. Neugebauer, J. Pisarek, C. Plett, P. Pracht, F. Pultar,
   J. Seibert, P. Shushkov, S. Spicher, M. Stahn, M. Steiner, T. Strunk,
   J. Stückrath, T. Rose, and J. Unsleber
   
 * started run on 2023/01/24 at 14:55:58.797     

           -------------------------------------------------
          |                Calculation Setup                |
           -------------------------------------------------

          program call               : xtb init.xyz --opt -c 1 -u 0 -P 16 --alpb water
          hostname                   : gpg-woodward
          coordinate file            : init.xyz
          omp threads                :                    16

   ID    Z sym.   atoms
    1    7 N      1
    2    6 C      2-6
    3   16 S      7
    4    1 H      8-15

           -------------------------------------------------
          |                 G F N 2 - x T B                 |
           -------------------------------------------------

        Reference                      10.1021/acs.jctc.8b01176
      * Hamiltonian:
        H0-scaling (s, p, d)           1.850000    2.230000    2.230000
        zeta-weighting                 0.500000
      * Dispersion:
        s8                             2.700000
        a1                             0.520000
        a2                             5.000000
        s9                             5.000000
      * Repulsion:
        kExp                           1.500000    1.000000
        rExp                           1.000000
      * Coulomb:
        alpha                          2.000000
        third order                    shell-resolved
        anisotropic                    true
        a3                             3.000000
        a5                             4.000000
        cn-shift                       1.200000
        cn-exp                         4.000000
        max-rad                        5.000000

      * Solvation model:               ALPB
        Solvent                        water
        Parameter file                 internal GFN2-xTB/ALPB
        Dielectric constant                8.0200E+01
        Reference state                gsolv [1 M gas/solution]
        Free energy shift                  1.0808E-03 Eh       6.7819E-01 kcal/mol
        Temperature                        2.9815E+02 K
        Density                            1.0000E+00 kg/L
        Solvent mass                       1.8000E+01 g/mol
        Interaction kernel             P16
        Born radius scaling (c1)           1.4744E+00
        Born radii integrator          GBOBC
        Born offset                        0.0000E+00 a0       0.0000E+00 AA
        H-bond correction              true
        Ion screening                  false
        Surface tension                    1.0000E-05 Eh       1.5569E+01 dyn/cm
        Grid points                               230 per atom

          ...................................................
          :                      SETUP                      :
          :.................................................:
          :  # basis functions                  42          :
          :  # atomic orbitals                  41          :
          :  # shells                           23          :
          :  # electrons                        38          :
          :  max. iterations                   250          :
          :  Hamiltonian                  GFN2-xTB          :
          :  restarted?                      false          :
          :  GBSA solvation                   true          :
          :  PC potential                    false          :
          :  electronic temp.          300.0000000     K    :
          :  accuracy                    1.0000000          :
          :  -> integral cutoff          0.2500000E+02      :
          :  -> integral neglect         0.1000000E-07      :
          :  -> SCF convergence          0.1000000E-05 Eh   :
          :  -> wf. convergence          0.1000000E-03 e    :
          :  Broyden damping             0.4000000          :
          ...................................................

 iter      E             dE          RMSdq      gap      omega  full diag
   1    -20.8057430 -0.208057E+02  0.409E+00    3.94       0.0  T
   2    -20.8818375 -0.760945E-01  0.251E+00    3.87       1.0  T
   3    -20.8843973 -0.255982E-02  0.135E+00    3.87       1.0  T
   4    -20.8837516  0.645706E-03  0.876E-01    3.88       1.0  T
   5    -20.8880765 -0.432487E-02  0.312E-01    3.86       1.0  T
   6    -20.8881755 -0.990143E-04  0.186E-01    3.85       1.0  T
   7    -20.8882882 -0.112636E-03  0.914E-02    3.85       1.0  T
   8    -20.8883094 -0.212176E-04  0.262E-02    3.85       1.0  T
   9    -20.8883104 -0.106557E-05  0.115E-02    3.85       2.3  T
  10    -20.8883108 -0.328715E-06  0.519E-03    3.85       5.0  T
  11    -20.8883108 -0.450950E-07  0.183E-03    3.85      14.1  T
  12    -20.8883108 -0.945935E-08  0.667E-04    3.85      38.7  T
  13    -20.8883108 -0.589484E-09  0.144E-04    3.85     179.2  T

   *** convergence criteria satisfied after 13 iterations ***

         #    Occupation            Energy/Eh            Energy/eV
      -------------------------------------------------------------
         1        2.0000           -0.7416114             -20.1803
       ...           ...                  ...                  ...
        13        2.0000           -0.4823885             -13.1265
        14        2.0000           -0.4797135             -13.0537
        15        2.0000           -0.4694049             -12.7732
        16        2.0000           -0.4594274             -12.5017
        17        2.0000           -0.4549333             -12.3794
        18        2.0000           -0.4028954             -10.9633
        19        2.0000           -0.3962900             -10.7836 (HOMO)
        20                         -0.2546775              -6.9301 (LUMO)
        21                         -0.2070955              -5.6354
        22                         -0.1821115              -4.9555
        23                         -0.1231675              -3.3516
        24                         -0.0424744              -1.1558
       ...                                ...                  ...
        41                          0.6720404              18.2871
      -------------------------------------------------------------
                  HL-Gap            0.1416125 Eh            3.8535 eV
             Fermi-level           -0.3254838 Eh           -8.8569 eV

 SCC (total)                   0 d,  0 h,  0 min,  0.026 sec
 SCC setup                      ...        0 min,  0.000 sec (  1.255%)
 Dispersion                     ...        0 min,  0.000 sec (  0.963%)
 classical contributions        ...        0 min,  0.000 sec (  0.328%)
 integral evaluation            ...        0 min,  0.001 sec (  4.833%)
 iterations                     ...        0 min,  0.021 sec ( 81.105%)
 molecular gradient             ...        0 min,  0.003 sec (  9.749%)
 printout                       ...        0 min,  0.000 sec (  0.539%)

         :::::::::::::::::::::::::::::::::::::::::::::::::::::
         ::                     SUMMARY                     ::
         :::::::::::::::::::::::::::::::::::::::::::::::::::::
         :: total energy             -20.597736305710 Eh    ::
         :: total w/o Gsasa/hb       -20.587739302539 Eh    ::
         :: gradient norm              0.041124070709 Eh/a0 ::
         :: HOMO-LUMO gap              3.853473555303 eV    ::
         ::.................................................::
         :: SCC energy               -20.888310826397 Eh    ::
         :: -> isotropic ES            0.128654012059 Eh    ::
         :: -> anisotropic ES         -0.023319483581 Eh    ::
         :: -> anisotropic XC          0.014129980108 Eh    ::
         :: -> dispersion             -0.010458083542 Eh    ::
         :: -> Gsolv                  -0.119550430509 Eh    ::
         ::    -> Gelec               -0.109553427339 Eh    ::
         ::    -> Gsasa                0.000353718451 Eh    ::
         ::    -> Ghb                 -0.011431481320 Eh    ::
         ::    -> Gshift               0.001080759698 Eh    ::
         :: repulsion energy           0.290556222181 Eh    ::
         :: add. restraining           0.000000000000 Eh    ::
         :: total charge               1.000000000000 e     ::
         :::::::::::::::::::::::::::::::::::::::::::::::::::::

      ----------------------------------------------------------- 
     |                   =====================                   |
     |                        A N C O P T                        |
     |                   =====================                   |
     |               Approximate Normal Coordinate               |
     |                Rational Function Optimizer                |
      ----------------------------------------------------------- 

          ...................................................
          :                      SETUP                      :
          :.................................................:
          :   optimization level            normal          :
          :   max. optcycles                   200          :
          :   ANC micro-cycles                  20          :
          :   degrees of freedom                39          :
          :.................................................:
          :   RF solver                   davidson          :
          :   write xtbopt.log                true          :
          :   linear?                        false          :
          :   energy convergence         0.5000000E-05 Eh   :
          :   grad. convergence          0.1000000E-02 Eh/α :
          :   maximium RF displ.         1.0000000          :
          :   Hlow (freq-cutoff)         0.1000000E-01      :
          :   Hmax (freq-cutoff)         5.0000000          :
          :   S6 in model hess.         20.0000000          :
          ...................................................

generating ANC from model Hessian ...
Using Lindh-Hessian (1995)
 Shifting diagonal of input Hessian by    6.2743608809793829E-003
 Lowest  eigenvalues of input Hessian
    0.000000    0.000000    0.000000    0.000000    0.000000    0.000000
    0.010000    0.010743    0.016053    0.021656    0.025297    0.034545
    0.047935    0.054322    0.065162    0.072829    0.077615    0.088048
 Highest eigenvalues
    1.415617    1.433587    1.556447    1.621575    1.801695    1.814271


........................................................................
.............................. CYCLE    1 ..............................
........................................................................
   1    -20.8883108 -0.208883E+02  0.598E-05    3.85       0.0  T
   2    -20.8883108 -0.297007E-11  0.385E-05    3.85     670.4  T
   3    -20.8883108  0.824230E-12  0.286E-05    3.85     902.2  T
     SCC iter.                  ...        0 min,  0.004 sec
     gradient                   ...        0 min,  0.002 sec
 * total energy  :   -20.5977363 Eh     change       -0.4029843E-10 Eh
   gradient norm :     0.0411235 Eh/α   predicted     0.0000000E+00 (-100.00%)
   displ. norm   :     0.1455999 α      lambda       -0.3056226E-02
   maximum displ.:     0.0843269 α      in ANC's #8, #6, #11, ...

........................................................................
.............................. CYCLE    2 ..............................
........................................................................
   1    -20.9017429 -0.209017E+02  0.186E-01    3.92       0.0  T
   2    -20.9017605 -0.176187E-04  0.104E-01    3.92       1.0  T
   3    -20.9017541  0.640355E-05  0.385E-02    3.92       1.0  T
   4    -20.9017611 -0.695795E-05  0.198E-02    3.92       1.3  T
   5    -20.9017638 -0.275996E-05  0.518E-03    3.92       5.0  T
   6    -20.9017638 -0.590284E-08  0.219E-03    3.92      11.8  T
   7    -20.9017639 -0.369038E-07  0.957E-04    3.92      27.0  T
   8    -20.9017639 -0.122697E-08  0.333E-04    3.92      77.5  T
     SCC iter.                  ...        0 min,  0.009 sec
     gradient                   ...        0 min,  0.002 sec
 * total energy  :   -20.5996192 Eh     change       -0.1882935E-02 Eh
   gradient norm :     0.0159459 Eh/α   predicted    -0.1560506E-02 ( -17.12%)
   displ. norm   :     0.0570190 α      lambda       -0.3685663E-03
   maximum displ.:     0.0310687 α      in ANC's #2, #6, #1, ...

........................................................................
.............................. CYCLE    3 ..............................
........................................................................
   1    -20.9055671 -0.209056E+02  0.726E-02    3.94       0.0  T
   2    -20.9055734 -0.624308E-05  0.394E-02    3.94       1.0  T
   3    -20.9055726  0.784411E-06  0.200E-02    3.94       1.3  T
   4    -20.9055747 -0.209532E-05  0.101E-02    3.94       2.5  T
   5    -20.9055752 -0.459474E-06  0.289E-03    3.94       8.9  T
   6    -20.9055752 -0.115752E-07  0.132E-03    3.94      19.5  T
   7    -20.9055752 -0.102509E-07  0.621E-04    3.94      41.6  T
   8    -20.9055752 -0.522643E-09  0.294E-04    3.94      87.9  T
     SCC iter.                  ...        0 min,  0.009 sec
     gradient                   ...        0 min,  0.002 sec
 * total energy  :   -20.5998418 Eh     change       -0.2225094E-03 Eh
   gradient norm :     0.0058508 Eh/α   predicted    -0.1848839E-03 ( -16.91%)
   displ. norm   :     0.0481817 α      lambda       -0.7434684E-04
   maximum displ.:     0.0382721 α      in ANC's #2, #1, #6, ...

........................................................................
.............................. CYCLE    4 ..............................
........................................................................
   1    -20.9054450 -0.209054E+02  0.439E-02    3.94       0.0  T
   2    -20.9054464 -0.140438E-05  0.238E-02    3.94       1.1  T
   3    -20.9054457  0.632809E-06  0.122E-02    3.94       2.1  T
   4    -20.9054468 -0.104391E-05  0.453E-03    3.94       5.7  T
   5    -20.9054469 -0.840806E-07  0.136E-03    3.94      18.9  T
   6    -20.9054469 -0.336619E-08  0.760E-04    3.94      34.0  T
   7    -20.9054469 -0.262636E-08  0.390E-04    3.94      66.2  T
     SCC iter.                  ...        0 min,  0.007 sec
     gradient                   ...        0 min,  0.002 sec
 * total energy  :   -20.5998937 Eh     change       -0.5196336E-04 Eh
   gradient norm :     0.0024247 Eh/α   predicted    -0.3725911E-04 ( -28.30%)
   displ. norm   :     0.0649773 α      lambda       -0.4043157E-04
   maximum displ.:     0.0518550 α      in ANC's #2, #1, #3, ...

........................................................................
.............................. CYCLE    5 ..............................
........................................................................
   1    -20.9046278 -0.209046E+02  0.464E-02    3.94       0.0  T
   2    -20.9046285 -0.688577E-06  0.255E-02    3.94       1.0  T
   3    -20.9046280  0.532446E-06  0.926E-03    3.94       2.8  T
   4    -20.9046287 -0.661196E-06  0.348E-03    3.94       7.4  T
   5    -20.9046287 -0.654820E-07  0.108E-03    3.94      23.9  T
   6    -20.9046287 -0.523031E-09  0.650E-04    3.94      39.7  T
   7    -20.9046287 -0.200709E-08  0.331E-04    3.94      77.9  T
     SCC iter.                  ...        0 min,  0.007 sec
     gradient                   ...        0 min,  0.002 sec
 * total energy  :   -20.5999210 Eh     change       -0.2730198E-04 Eh
   gradient norm :     0.0015726 Eh/α   predicted    -0.2030170E-04 ( -25.64%)
   displ. norm   :     0.0844051 α      lambda       -0.1848931E-04
   maximum displ.:     0.0651738 α      in ANC's #2, #1, #3, ...

........................................................................
.............................. CYCLE    6 ..............................
........................................................................
   1    -20.9039129 -0.209039E+02  0.526E-02    3.93       0.0  T
   2    -20.9039133 -0.359169E-06  0.294E-02    3.93       1.0  T
   3    -20.9039133 -0.698046E-07  0.372E-03    3.93       6.9  T
   4    -20.9039133 -0.269353E-08  0.139E-03    3.93      18.6  T
   5    -20.9039133  0.481943E-09  0.732E-04    3.93      35.3  T
   6    -20.9039133 -0.247234E-08  0.394E-04    3.93      65.6  T
     SCC iter.                  ...        0 min,  0.006 sec
     gradient                   ...        0 min,  0.002 sec
 * total energy  :   -20.5999423 Eh     change       -0.2126548E-04 Eh
   gradient norm :     0.0023609 Eh/α   predicted    -0.9275675E-05 ( -56.38%)
   displ. norm   :     0.0565731 α      lambda       -0.1919502E-04
   maximum displ.:     0.0415531 α      in ANC's #2, #1, #3, ...

........................................................................
.............................. CYCLE    7 ..............................
........................................................................
   1    -20.9039296 -0.209039E+02  0.329E-02    3.93       0.0  T
   2    -20.9039297 -0.121470E-06  0.188E-02    3.93       1.4  T
   3    -20.9039294  0.311971E-06  0.631E-03    3.93       4.1  T
   4    -20.9039297 -0.384477E-06  0.146E-03    3.93      17.7  T
   5    -20.9039297 -0.198870E-09  0.660E-04    3.93      39.1  T
   6    -20.9039298 -0.191052E-08  0.298E-04    3.93      86.5  T
     SCC iter.                  ...        0 min,  0.006 sec
     gradient                   ...        0 min,  0.002 sec
 * total energy  :   -20.5999597 Eh     change       -0.1742901E-04 Eh
   gradient norm :     0.0021735 Eh/α   predicted    -0.9626680E-05 ( -44.77%)
   displ. norm   :     0.1112822 α      lambda       -0.3541814E-04
   maximum displ.:     0.0817024 α      in ANC's #2, #1, #3, ...

........................................................................
.............................. CYCLE    8 ..............................
........................................................................
   1    -20.9041247 -0.209041E+02  0.637E-02    3.93       0.0  T
   2    -20.9041252 -0.500078E-06  0.364E-02    3.93       1.0  T
   3    -20.9041239  0.122195E-05  0.126E-02    3.93       2.1  T
   4    -20.9041254 -0.150802E-05  0.291E-03    3.93       8.9  T
   5    -20.9041255 -0.344591E-08  0.135E-03    3.93      19.2  T
   6    -20.9041255 -0.670373E-08  0.605E-04    3.93      42.7  T
   7    -20.9041255 -0.963983E-09  0.385E-04    3.93      67.0  T
     SCC iter.                  ...        0 min,  0.007 sec
     gradient                   ...        0 min,  0.002 sec
 * total energy  :   -20.5999893 Eh     change       -0.2955530E-04 Eh
   gradient norm :     0.0017717 Eh/α   predicted    -0.1792785E-04 ( -39.34%)
   displ. norm   :     0.2177820 α      lambda       -0.3427843E-04
   maximum displ.:     0.1614462 α      in ANC's #2, #1, #3, ...

........................................................................
.............................. CYCLE    9 ..............................
........................................................................
   1    -20.9041005 -0.209041E+02  0.123E-01    3.93       0.0  T
   2    -20.9041021 -0.158070E-05  0.697E-02    3.93       1.0  T
   3    -20.9040997  0.238035E-05  0.190E-02    3.93       1.4  T
   4    -20.9041029 -0.310488E-05  0.547E-03    3.93       4.7  T
   5    -20.9041029 -0.346423E-07  0.239E-03    3.93      10.8  T
   6    -20.9041029 -0.174449E-07  0.114E-03    3.93      22.6  T
   7    -20.9041029 -0.244762E-08  0.743E-04    3.93      34.8  T
   8    -20.9041029 -0.127507E-08  0.204E-04    3.93     126.8  T
     SCC iter.                  ...        0 min,  0.008 sec
     gradient                   ...        0 min,  0.001 sec
 * total energy  :   -20.6000244 Eh     change       -0.3508562E-04 Eh
   gradient norm :     0.0020111 Eh/α   predicted    -0.1749936E-04 ( -50.12%)
   displ. norm   :     0.0769386 α      lambda       -0.1487531E-04
   maximum displ.:     0.0606279 α      in ANC's #2, #1, #6, ...

........................................................................
.............................. CYCLE   10 ..............................
........................................................................
   1    -20.9044379 -0.209044E+02  0.440E-02    3.93       0.0  T
   2    -20.9044381 -0.171853E-06  0.249E-02    3.93       1.0  T
   3    -20.9044381  0.483528E-07  0.454E-03    3.93       5.7  T
   4    -20.9044382 -0.106175E-06  0.212E-03    3.93      12.2  T
   5    -20.9044382 -0.140864E-07  0.817E-04    3.93      31.6  T
   6    -20.9044382 -0.219005E-08  0.462E-04    3.93      55.9  T
     SCC iter.                  ...        0 min,  0.006 sec
     gradient                   ...        0 min,  0.002 sec
 * total energy  :   -20.6000373 Eh     change       -0.1292456E-04 Eh
   gradient norm :     0.0013240 Eh/α   predicted    -0.7480596E-05 ( -42.12%)
   displ. norm   :     0.1698114 α      lambda       -0.1862748E-04
   maximum displ.:     0.1354972 α      in ANC's #2, #1, #6, ...

........................................................................
.............................. CYCLE   11 ..............................
........................................................................
   1    -20.9046822 -0.209047E+02  0.965E-02    3.93       0.0  T
   2    -20.9046830 -0.836546E-06  0.547E-02    3.93       1.0  T
   3    -20.9046831 -0.573924E-07  0.818E-03    3.93       3.2  T
   4    -20.9046832 -0.167966E-06  0.447E-03    3.93       5.8  T
   5    -20.9046833 -0.933216E-07  0.176E-03    3.93      14.7  T
   6    -20.9046833 -0.103051E-07  0.972E-04    3.93      26.6  T
   7    -20.9046833 -0.706322E-09  0.452E-04    3.93      57.1  T
     SCC iter.                  ...        0 min,  0.007 sec
     gradient                   ...        0 min,  0.001 sec
 * total energy  :   -20.6000591 Eh     change       -0.2184294E-04 Eh
   gradient norm :     0.0004515 Eh/α   predicted    -0.9432929E-05 ( -56.81%)
   displ. norm   :     0.1395437 α      lambda       -0.9840881E-05
   maximum displ.:     0.1128806 α      in ANC's #2, #1, #6, ...

........................................................................
.............................. CYCLE   12 ..............................
........................................................................
   1    -20.9043691 -0.209044E+02  0.795E-02    3.93       0.0  T
   2    -20.9043697 -0.609521E-06  0.450E-02    3.93       1.0  T
   3    -20.9043692  0.494939E-06  0.998E-03    3.93       2.6  T
   4    -20.9043699 -0.737890E-06  0.363E-03    3.93       7.1  T
   5    -20.9043699 -0.259844E-07  0.130E-03    3.93      19.8  T
   6    -20.9043699 -0.487832E-08  0.710E-04    3.93      36.4  T
   7    -20.9043699 -0.395371E-09  0.424E-04    3.93      60.9  T
     SCC iter.                  ...        0 min,  0.007 sec
     gradient                   ...        0 min,  0.002 sec
 * total energy  :   -20.6000704 Eh     change       -0.1129277E-04 Eh
   gradient norm :     0.0009276 Eh/α   predicted    -0.4963703E-05 ( -56.05%)
   displ. norm   :     0.1883034 α      lambda       -0.1056870E-04
   maximum displ.:     0.1543963 α      in ANC's #2, #1, #6, ...

........................................................................
.............................. CYCLE   13 ..............................
........................................................................
   1    -20.9042256 -0.209042E+02  0.106E-01    3.93       0.0  T
   2    -20.9042267 -0.110291E-05  0.600E-02    3.93       1.0  T
   3    -20.9042253  0.136234E-05  0.150E-02    3.93       1.7  T
   4    -20.9042272 -0.186343E-05  0.474E-03    3.93       5.4  T
   5    -20.9042272 -0.299270E-07  0.181E-03    3.93      14.3  T
   6    -20.9042272 -0.134817E-07  0.912E-04    3.93      28.3  T
   7    -20.9042272 -0.723045E-09  0.560E-04    3.93      46.1  T
     SCC iter.                  ...        0 min,  0.007 sec
     gradient                   ...        0 min,  0.002 sec
 * total energy  :   -20.6000783 Eh     change       -0.7848126E-05 Eh
   gradient norm :     0.0010460 Eh/α   predicted    -0.5368004E-05 ( -31.60%)
   displ. norm   :     0.0174439 α      lambda       -0.4045604E-05
   maximum displ.:     0.0114497 α      in ANC's #3, #2, #4, ...

........................................................................
.............................. CYCLE   14 ..............................
........................................................................
   1    -20.9049703 -0.209050E+02  0.102E-02    3.93       0.0  T
   2    -20.9049703 -0.335311E-07  0.607E-03    3.93       4.3  T
   3    -20.9049703  0.776544E-07  0.328E-03    3.93       7.9  T
   4    -20.9049704 -0.106051E-06  0.593E-04    3.93      43.5  T
   5    -20.9049704 -0.159371E-09  0.326E-04    3.93      79.2  T
     SCC iter.                  ...        0 min,  0.005 sec
     gradient                   ...        0 min,  0.002 sec
 * total energy  :   -20.6000818 Eh     change       -0.3531843E-05 Eh
   gradient norm :     0.0004688 Eh/α   predicted    -0.2023597E-05 ( -42.70%)
   displ. norm   :     0.0428035 α      lambda       -0.2738775E-05
   maximum displ.:     0.0270403 α      in ANC's #2, #1, #3, ...

   *** GEOMETRY OPTIMIZATION CONVERGED AFTER 14 ITERATIONS ***

------------------------------------------------------------------------
 total energy gain   :        -0.0023455 Eh       -1.4718 kcal/mol
 total RMSD          :         0.3168029 a0        0.1676 Å
 total power (kW/mol):        -0.4398622 (step)  -39.9691 (real)
------------------------------------------------------------------------

 ANCopt (total)                0 d,  0 h,  0 min,  0.154 sec
 optimizer setup                ...        0 min,  0.000 sec (  0.071%)
 model hessian                  ...        0 min,  0.003 sec (  1.664%)
 ANC generation                 ...        0 min,  0.001 sec (  0.478%)
 coordinate transformation      ...        0 min,  0.000 sec (  0.241%)
 single point calculation       ...        0 min,  0.145 sec ( 93.873%)
 optimization log               ...        0 min,  0.001 sec (  0.941%)
 hessian update                 ...        0 min,  0.000 sec (  0.250%)
 rational function              ...        0 min,  0.002 sec (  1.313%)

================
 final structure:
================
15
 xtb: 6.5.1 (fef0646)
N            3.33375703001497       -0.93191214315633       -0.88578911113518
C            2.51748995300784       -0.03744335358184       -0.03028159012716
C            3.00396596726197       -0.06050697402708        1.38048429034289
C            3.20020125580409        0.97674892649584        2.23611028118574
C            3.63429719806656        0.55734022787486        3.51610811989727
C            3.76890586698338       -0.78855699969604        3.61461127102742
S            3.35233380585520       -1.58269308731781        2.15969894789757
H            2.96112139373448       -0.95924320727279       -1.84176453165293
H            3.32113585790958       -1.88107533693204       -0.49150082932107
H            4.30949498083256       -0.61341296983886       -0.91278949797464
H            1.47920707374214       -0.37537443559858       -0.06238137826604
H            2.56163483670632        0.98494013540047       -0.40600135613158
H            3.04305750544086        2.00818859441640        1.98076159689393
H            3.84467703830767        1.22994693008198        4.32819608019164
H            4.08945023633232       -1.37200630684810        4.45547770717210

 Bond Distances (Angstroems)
 ---------------------------
N1-C2=1.4827         N1-H8=1.0264         N1-H9=1.0279         N1-H10=1.0268        C2-N1=1.4827         C2-C3=1.4925         
C2-H11=1.0924        C2-H12=1.0901        C3-C2=1.4925         C3-C4=1.3589         C3-S7=1.7452         C4-C3=1.3589         
C4-C5=1.4152         C4-H13=1.0741        C5-C4=1.4152         C5-C6=1.3562         C5-H14=1.0752        C6-C5=1.3562         
C6-S7=1.7091         C6-H15=1.0725        S7-C3=1.7452         S7-C6=1.7091         H8-N1=1.0264         H9-N1=1.0279         
H10-N1=1.0268        H11-C2=1.0924        H12-C2=1.0901        H13-C4=1.0741        H14-C5=1.0752        H15-C6=1.0725        
 C  H  Rav=1.0809 sigma=0.0085  Rmin=1.0725  Rmax=1.0924     5
 C  C  Rav=1.4057 sigma=0.0554  Rmin=1.3562  Rmax=1.4925     4
 N  H  Rav=1.0270 sigma=0.0006  Rmin=1.0264  Rmax=1.0279     3
 N  C  Rav=1.4827 sigma=0.0000  Rmin=1.4827  Rmax=1.4827     1
 S  C  Rav=1.7271 sigma=0.0180  Rmin=1.7091  Rmax=1.7452     2

 selected bond angles (degree)
 --------------------
H8-N1-C2=110.71                H9-N1-C2=109.21                H9-N1-H8=109.16                H10-N1-C2=110.56               
H10-N1-H8=109.19               H10-N1-H9=107.95               C3-C2-N1=110.89                H11-C2-N1=108.64               
H11-C2-C3=109.44               H12-C2-N1=110.16               H12-C2-C3=109.09               H12-C2-H11=108.57              
C4-C3-C2=129.08                S7-C3-C2=120.04                S7-C3-C4=110.84                C5-C4-C3=112.80                
H13-C4-C3=124.21               H13-C4-C5=122.99               C6-C5-C4=112.97                H14-C5-C4=123.90               
H14-C5-C6=123.13               S7-C6-C5=112.03                H15-C6-C5=128.79               H15-C6-S7=119.18               
C6-S7-C3= 91.34                

 selected dihedral angles (degree)
 ---------------------------------
C3-C2-N1-H8=176.46            C3-C2-N1-H9= 56.25            C3-C2-N1-H10=297.61           H11-C2-N1-H8= 56.15           
H11-C2-N1-H9=295.93           H11-C2-N1-H10=177.29          H12-C2-N1-H8=297.33           H12-C2-N1-H9=177.12           
H12-C2-N1-H10= 58.48          C4-C3-C2-N1=135.75            C4-C3-C2-H11=255.60           C4-C3-C2-H12= 14.25           
S7-C3-C2-N1=313.53            S7-C3-C2-H11= 73.37           S7-C3-C2-H12=192.03           C5-C4-C3-C2=178.15            
C5-C4-C3-S7=  0.21            H13-C4-C3-C2=358.33           H13-C4-C3-S7=180.39           C6-C5-C4-C3=  0.33            
C6-C5-C4-H13=180.15           H14-C5-C4-C3=179.88           H14-C5-C4-H13=359.70          S7-C6-C5-C4=359.28            
S7-C6-C5-H14=179.72           H15-C6-C5-C4=179.24           H15-C6-C5-H14=359.68          C6-S7-C3-C2=181.33            
C6-S7-C3-C4=359.48            C3-S7-C6-C5=  0.71            C3-S7-C6-H15=180.74           
           -------------------------------------------------
          |                Final Singlepoint                |
           -------------------------------------------------

          ...................................................
          :                      SETUP                      :
          :.................................................:
          :  # basis functions                  42          :
          :  # atomic orbitals                  41          :
          :  # shells                           23          :
          :  # electrons                        38          :
          :  max. iterations                   250          :
          :  Hamiltonian                  GFN2-xTB          :
          :  restarted?                      false          :
          :  GBSA solvation                   true          :
          :  PC potential                    false          :
          :  electronic temp.          300.0000000     K    :
          :  accuracy                    1.0000000          :
          :  -> integral cutoff          0.2500000E+02      :
          :  -> integral neglect         0.1000000E-07      :
          :  -> SCF convergence          0.1000000E-05 Eh   :
          :  -> wf. convergence          0.1000000E-03 e    :
          :  Broyden damping             0.4000000          :
          ...................................................

 iter      E             dE          RMSdq      gap      omega  full diag
   1    -20.9049704 -0.209050E+02  0.750E-05    3.93       0.0  T
   2    -20.9049704 -0.142109E-10  0.493E-05    3.93     523.4  T
   3    -20.9049704 -0.850875E-11  0.311E-05    3.93     829.6  T

   *** convergence criteria satisfied after 3 iterations ***

         #    Occupation            Energy/Eh            Energy/eV
      -------------------------------------------------------------
         1        2.0000           -0.7409854             -20.1632
       ...           ...                  ...                  ...
        13        2.0000           -0.4826454             -13.1334
        14        2.0000           -0.4803167             -13.0701
        15        2.0000           -0.4708774             -12.8132
        16        2.0000           -0.4618741             -12.5682
        17        2.0000           -0.4544316             -12.3657
        18        2.0000           -0.4032820             -10.9739
        19        2.0000           -0.3968136             -10.7978 (HOMO)
        20                         -0.2522633              -6.8644 (LUMO)
        21                         -0.2118120              -5.7637
        22                         -0.1750991              -4.7647
        23                         -0.1268852              -3.4527
        24                         -0.0424334              -1.1547
       ...                                ...                  ...
        41                          0.6947751              18.9058
      -------------------------------------------------------------
                  HL-Gap            0.1445502 Eh            3.9334 eV
             Fermi-level           -0.3245385 Eh           -8.8311 eV

 SCC (total)                   0 d,  0 h,  0 min,  0.006 sec
 SCC setup                      ...        0 min,  0.000 sec (  2.800%)
 Dispersion                     ...        0 min,  0.000 sec (  1.913%)
 classical contributions        ...        0 min,  0.000 sec (  0.511%)
 integral evaluation            ...        0 min,  0.001 sec ( 12.227%)
 iterations                     ...        0 min,  0.003 sec ( 54.601%)
 molecular gradient             ...        0 min,  0.001 sec ( 24.183%)
 printout                       ...        0 min,  0.000 sec (  1.856%)

         :::::::::::::::::::::::::::::::::::::::::::::::::::::
         ::                     SUMMARY                     ::
         :::::::::::::::::::::::::::::::::::::::::::::::::::::
         :: total energy             -20.600081791833 Eh    ::
         :: total w/o Gsasa/hb       -20.589891449005 Eh    ::
         :: gradient norm              0.000468605977 Eh/a0 ::
         :: HOMO-LUMO gap              3.933412393927 eV    ::
         ::.................................................::
         :: SCC energy               -20.904970377333 Eh    ::
         :: -> isotropic ES            0.129907069704 Eh    ::
         :: -> anisotropic ES         -0.026265957193 Eh    ::
         :: -> anisotropic XC          0.013753928398 Eh    ::
         :: -> dispersion             -0.010475810719 Eh    ::
         :: -> Gsolv                  -0.120592895282 Eh    ::
         ::    -> Gelec               -0.110402552453 Eh    ::
         ::    -> Gsasa                0.000326389478 Eh    ::
         ::    -> Ghb                 -0.011597492005 Eh    ::
         ::    -> Gshift               0.001080759698 Eh    ::
         :: repulsion energy           0.304871803334 Eh    ::
         :: add. restraining           0.000000000000 Eh    ::
         :: total charge               1.000000000000 e     ::
         :::::::::::::::::::::::::::::::::::::::::::::::::::::

           -------------------------------------------------
          |                Property Printout                |
           -------------------------------------------------

    * Orbital Energies and Occupations

         #    Occupation            Energy/Eh            Energy/eV
      -------------------------------------------------------------
         1        2.0000           -0.7409854             -20.1632
       ...           ...                  ...                  ...
         7        2.0000           -0.5890271             -16.0282
         8        2.0000           -0.5777404             -15.7211
         9        2.0000           -0.5577857             -15.1781
        10        2.0000           -0.5514582             -15.0059
        11        2.0000           -0.5258524             -14.3092
        12        2.0000           -0.5025376             -13.6747
        13        2.0000           -0.4826454             -13.1334
        14        2.0000           -0.4803167             -13.0701
        15        2.0000           -0.4708774             -12.8132
        16        2.0000           -0.4618741             -12.5682
        17        2.0000           -0.4544316             -12.3657
        18        2.0000           -0.4032820             -10.9739
        19        2.0000           -0.3968136             -10.7978 (HOMO)
        20                         -0.2522633              -6.8644 (LUMO)
        21                         -0.2118120              -5.7637
        22                         -0.1750991              -4.7647
        23                         -0.1268852              -3.4527
        24                         -0.0424334              -1.1547
        25                         -0.0105426              -0.2869
        26                          0.0197769               0.5382
        27                          0.0299914               0.8161
        28                          0.0698558               1.9009
        29                          0.1003979               2.7320
        30                          0.1272954               3.4639
       ...                                ...                  ...
        41                          0.6947751              18.9058
      -------------------------------------------------------------
                  HL-Gap            0.1445502 Eh            3.9334 eV
             Fermi-level           -0.3245385 Eh           -8.8311 eV

     #   Z          covCN         q      C6AA      α(0)
     1   7 N        3.486    -0.164    24.540     7.357
     2   6 C        3.754    -0.045    21.444     6.603
     3   6 C        2.989     0.016    27.636     8.623
     4   6 C        3.111    -0.060    29.323     8.871
     5   6 C        3.128    -0.049    29.019     8.820
     6   6 C        2.936    -0.028    28.701     8.786
     7  16 S        2.337    -0.017   141.774    20.040
     8   1 H        0.859     0.329     0.634     1.248
     9   1 H        0.859     0.314     0.672     1.284
    10   1 H        0.859     0.317     0.664     1.276
    11   1 H        0.924     0.139     1.469     1.896
    12   1 H        0.925     0.134     1.506     1.919
    13   1 H        0.926     0.060     2.198     2.318
    14   1 H        0.926     0.028     2.615     2.529
    15   1 H        0.926     0.026     2.639     2.540

 Mol. C6AA /au·bohr⁶  :       2748.228704
 Mol. C8AA /au·bohr⁸  :      78183.859983
 Mol. α(0) /au        :         84.110968


Wiberg/Mayer (AO) data.
largest (>0.10) Wiberg bond orders for each atom

 ---------------------------------------------------------------------------
     #   Z sym  total        # sym  WBO       # sym  WBO       # sym  WBO
 ---------------------------------------------------------------------------
     1   7 N    3.647 --     2 C    0.970    10 H    0.885     9 H    0.884
                             8 H    0.879
     2   6 C    3.931 --     3 C    1.027     1 N    0.970    12 H    0.954
                            11 H    0.944
     3   6 C    3.944 --     4 C    1.605     7 S    1.152     2 C    1.027
                             6 C    0.115
     4   6 C    3.987 --     3 C    1.605     5 C    1.266    13 H    0.962
     5   6 C    3.989 --     6 C    1.642     4 C    1.266    14 H    0.965
     6   6 C    3.957 --     5 C    1.642     7 S    1.190    15 H    0.973
                             3 C    0.115
     7  16 S    2.613 --     6 C    1.190     3 C    1.152
     8   1 H    0.892 --     1 N    0.879
     9   1 H    0.901 --     1 N    0.884
    10   1 H    0.899 --     1 N    0.885
    11   1 H    0.981 --     2 C    0.944
    12   1 H    0.982 --     2 C    0.954
    13   1 H    0.996 --     4 C    0.962
    14   1 H    0.999 --     5 C    0.965
    15   1 H    0.999 --     6 C    0.973
 ---------------------------------------------------------------------------

Topologies differ in total number of bonds
Writing topology from bond orders to xtbtopo.mol

molecular dipole:
                 x           y           z       tot (Debye)
 q only:        6.019      -1.483      -1.949
   full:        6.182      -1.335      -1.272      16.397
molecular quadrupole (traceless):
                xx          xy          yy          xz          yz          zz
 q only:       33.898     -14.589     -15.782     -18.254       5.362     -18.117
  q+dip:       31.702     -13.013     -19.504     -10.044       4.084     -12.198
   full:       32.481     -13.244     -20.319     -10.565       4.219     -12.162

           -------------------------------------------------
          |                Geometry Summary                 |
           -------------------------------------------------

      molecular mass/u    :      114.1886961
   center of mass at/Å    :        3.2724030      -0.4992579       1.6872839
  moments of inertia/u·Å² :        0.1105740E+03   0.2900319E+03   0.3796472E+03
rotational constants/cm⁻¹ :        0.1524556E+00   0.5812338E-01   0.4440341E-01

 * 14 selected distances

     #   Z          #   Z                                           value/Å
     1   7 N        2   6 C                                       1.4826530
     3   6 C        4   6 C                                       1.3588614
     4   6 C        5   6 C                                       1.4151812
     5   6 C        6   6 C                                       1.3561940
     3   6 C        7  16 S                                       1.7451610 (max)
     6   6 C        7  16 S                                       1.7090801
     1   7 N        8   1 H                                       1.0263983 (min)
     1   7 N        9   1 H                                       1.0278782
     1   7 N       10   1 H                                       1.0267597
     2   6 C       11   1 H                                       1.0923641
     2   6 C       12   1 H                                       1.0901295
     4   6 C       13   1 H                                       1.0741346
     5   6 C       14   1 H                                       1.0752425
     6   6 C       15   1 H                                       1.0724823

 * 5 distinct bonds (by element types)

   Z      Z             #   av. dist./Å        max./Å        min./Å
   1 H    6 C           5     1.0808706     1.0923641     1.0724823
   6 C    6 C           3     1.3767455     1.4151812     1.3561940
   1 H    7 N           3     1.0270121     1.0278782     1.0263983
   6 C    7 N           1     1.4826530     1.4826530     1.4826530
   6 C   16 S           2     1.7271205     1.7451610     1.7090801


optimized geometry written to: xtbopt.xyz


           -------------------------------------------------
          | TOTAL ENERGY              -20.600081791833 Eh   |
          | GRADIENT NORM               0.000468605977 Eh/α |
          | HOMO-LUMO GAP               3.933412393927 eV   |
           -------------------------------------------------

------------------------------------------------------------------------
 * finished run on 2023/01/24 at 14:55:58.999     
------------------------------------------------------------------------
 total:
 * wall-time:     0 d,  0 h,  0 min,  0.201 sec
 *  cpu-time:     0 d,  0 h,  0 min, 22.206 sec
 * ratio c/w:   110.310 speedup
 SCF:
 * wall-time:     0 d,  0 h,  0 min,  0.026 sec
 *  cpu-time:     0 d,  0 h,  0 min,  3.724 sec
 * ratio c/w:   140.678 speedup
 ANC optimizer:
 * wall-time:     0 d,  0 h,  0 min,  0.161 sec
 *  cpu-time:     0 d,  0 h,  0 min, 16.726 sec
 * ratio c/w:   104.129 speedup

