28
 energy: -33.846314557097 gnorm: 0.000173002346 xtb: 6.5.1 (fef0646)
N            2.57110424304003        2.30728743987767       -0.94773663332496
C            2.34581475718764        2.42054580939205        0.50852938422364
C            2.95002022282166        1.22397549644760        1.23230103523268
C            4.48322274916591        1.19622563137904        1.25987884208051
C            4.96033571099374       -0.16348523268760        1.77724119797389
C            6.48443199000199       -0.24124359360483        1.80463522317195
C            7.06156371031392        0.87419502107777        2.67111184301891
C            6.59348770151179        2.23306495024316        2.16065700388521
C            5.06837788699337        2.30384645087395        2.13919194540356
Cl           1.48293467980966       -0.36101423376703       -1.98977798257454
H            2.11625912906931        3.06572251848313       -1.45925816364035
H            2.17849827226044        1.39769126217865       -1.30083821180188
H            3.57158049727494        2.29957360890557       -1.15837989133466
H            1.27123858709731        2.43127530163354        0.68603383344881
H            2.77710491653545        3.35393880050332        0.86946461695942
H            2.58713319136321        0.31990120336047        0.73836761059583
H            2.58182757657312        1.20781683821648        2.25833251192774
H            4.87490432538788        1.30778278772821        0.24386033340107
H            4.56247062922486       -0.95638573200925        1.13905747494373
H            4.57244612994101       -0.32472834135235        2.78587463489810
H            6.87128026791417       -0.14828076455755        0.78687270408929
H            6.79805001630390       -1.21412327910436        2.18945055671883
H            8.15251631045122        0.82539697516799        2.66308967482750
H            6.72876930106270        0.73839047479411        3.70277167606911
H            6.98163325403659        2.38849309384207        1.15135732707836
H            6.99241401648095        3.02482224425764        2.79786792427134
H            4.76589441491604        3.28650459815626        1.77708894930605
H            4.68958551227160        2.18951067056041        3.15697457914839
