14
 energy: -14.003569148302 gnorm: 0.000287531192 xtb: 6.5.1 (fef0646)
N            0.99750642041965        0.03595858443876        0.07940866888876
C            2.49547562429699        0.05426996169323        0.08209875911722
C            3.01688971945884        1.46347235644000        0.32935219170452
C            4.54276981133509        1.46893350436787        0.32905018435565
H            0.63258209368617       -0.91033707528960       -0.08635637515685
H            0.64365493046992        0.66219913411745       -0.65624679048165
H            0.64423673964472        0.37457239195858        0.98446170410959
H            2.84711144334330       -0.31472622009205       -0.88240240945963
H            2.84773148011829       -0.62120288023320        0.86294956865713
H            2.65824616989740        1.82974577725737        1.29293840095069
H            2.65681982516384        2.13625091905664       -0.45103515440665
H            4.93168395033161        0.82308784169914        1.11109041163748
H            4.90970679641115        2.47484853687233        0.50573862194739
H            4.93024499542304        1.12892716771348       -0.62709778186364
