29
 energy: -44.403483853805 gnorm: 0.000392977834 xtb: 6.5.1 (fef0646)
N            1.85925164736111        0.57996395100113        0.31020356508572
C            2.30560702981423        0.40309378226754        1.70366312812512
C            3.76085414526077       -0.06941412878449        1.73120026464725
O            4.64123584920659        0.88419911987470        1.15726811933191
C            5.17138904331545        1.87852412228739        1.92793862162495
C            4.79385234488288        2.16762198975505        3.21574880217355
C            5.40612775181720        3.21960971311928        3.91436593935969
C            6.37878249088185        3.98033283978100        3.33400061574261
C            6.79457227624050        3.71225928830455        2.01225667193127
C            7.80233110784273        4.46929866056430        1.37930765436837
C            8.19971035720122        4.18327627176748        0.10290551831410
C            7.60858969066532        3.12308200389654       -0.59968313510970
C            6.62528559673458        2.37241642281886       -0.01671538734074
C            6.19223968042622        2.64808337340749        1.29569049455573
Cl          -0.96035358591594        1.70318882304741        0.37403187946088
H            0.88642694700209        0.98563543288451        0.28977898689270
H            1.83662881431085       -0.31209953334060       -0.19035599353487
H            2.48802688136747        1.22434132338755       -0.17790063590177
H            1.66823852206042       -0.32865660735027        2.19668568797806
H            2.19883544990241        1.35779458943833        2.21787363864626
H            3.87802421913824       -0.95739634954505        1.10530362111985
H            4.06427851926828       -0.31982311384553        2.75058420809262
H            4.02468512736895        1.60532544393237        3.71963309389606
H            5.08672600739872        3.42117673991741        4.92592915458905
H            6.84374330708912        4.79223227890650        3.87299958750870
H            8.25662083995169        5.28212518894284        1.92762600282070
H            8.97339463892670        4.76941180857074       -0.37073391354374
H            7.93776489088808        2.90442925776574       -1.60434903336255
H            6.17129040959181        1.55161730722716       -0.54851715747220
