29
 energy: -44.361331693946 gnorm: 0.000506572848 xtb: 6.5.1 (fef0646)
N            2.25108444000162        0.35928193585811        0.33407996883720
C            2.82061367938238       -0.43669209753920       -0.74380197736875
C            3.33082699732636       -1.80485354832651       -0.28037872995487
O            4.35788334038788       -1.57009826480042        0.65811843412282
C            4.98912937705180       -2.63937527075470        1.22671197016851
C            4.67352128892797       -3.95272030769496        0.98369320030524
C            5.37426523465432       -4.98168771296733        1.63224485656200
C            6.37842789845059       -4.70325147447301        2.51204042685949
C            6.73578993655169       -3.36482163718164        2.78188014831118
C            7.77335675445878       -3.03640801946862        3.67862667462969
C            8.10734340822769       -1.73331446915405        3.92083851352500
C            7.41854891351235       -0.69617074244724        3.27567413597998
C            6.40564884487148       -0.98002154222979        2.40193656297222
C            6.03892497598430       -2.31381339230736        2.13473392624516
Cl           1.20851239200722        2.90712939839370       -0.72923509844315
H            1.70487056559375        1.74702573900545       -0.23246390814080
H            2.95556631821237        0.52356189182221        1.04609715515225
H            1.47106008797263       -0.12614477268585        0.76643668659381
H            3.65163317411514        0.12789286766115       -1.17028935633311
H            2.05899721828453       -0.57821250477693       -1.51282550252085
H            3.71214122830336       -2.37250179792126       -1.13916124858532
H            2.51147261688797       -2.37323338708076        0.18464700266569
H            3.88771446851510       -4.22192128336945        0.29551502332775
H            5.09954956626715       -6.00439799813146        1.42016237840121
H            6.91352335615396       -5.49766761782913        3.01061877367133
H            8.30216388684800       -3.84019111517827        4.17078713838365
H            8.90508415272044       -1.49339092926325        4.60862005774995
H            7.69540601874894        0.32887163884041        3.47334531498451
H            5.87423985961118       -0.18827358597413        1.89680747184269
