      -----------------------------------------------------------      
     |                   =====================                   |     
     |                           x T B                           |     
     |                   =====================                   |     
     |                         S. Grimme                         |     
     |          Mulliken Center for Theoretical Chemistry        |     
     |                    University of Bonn                     |     
      -----------------------------------------------------------      

   * xtb version 6.5.1 (fef0646) compiled by 'conda@b96dff2e9fd6' on 2023-01-04

   xtb is free software: you can redistribute it and/or modify it under
   the terms of the GNU Lesser General Public License as published by
   the Free Software Foundation, either version 3 of the License, or
   (at your option) any later version.
   
   xtb is distributed in the hope that it will be useful,
   but WITHOUT ANY WARRANTY; without even the implied warranty of
   MERCHANTABILITY or FITNESS FOR A PARTICULAR PURPOSE.  See the
   GNU Lesser General Public License for more details.
   
   Cite this work as:
   * C. Bannwarth, E. Caldeweyher, S. Ehlert, A. Hansen, P. Pracht,
     J. Seibert, S. Spicher, S. Grimme, WIREs Comput. Mol. Sci., 2020, 11,
     e01493. DOI: 10.1002/wcms.1493
   
   for GFN2-xTB:
   * C. Bannwarth, S. Ehlert and S. Grimme., J. Chem. Theory Comput., 2019,
     15, 1652-1671. DOI: 10.1021/acs.jctc.8b01176
   for GFN1-xTB:
   * S. Grimme, C. Bannwarth, P. Shushkov, J. Chem. Theory Comput., 2017,
     13, 1989-2009. DOI: 10.1021/acs.jctc.7b00118
   for GFN0-xTB:
   * P. Pracht, E. Caldeweyher, S. Ehlert, S. Grimme, ChemRxiv, 2019, preprint.
     DOI: 10.26434/chemrxiv.8326202.v1
   for GFN-FF:
   * S. Spicher and S. Grimme, Angew. Chem. Int. Ed., 2020, 59, 15665-15673.
     DOI: 10.1002/anie.202004239
   
   for ALPB and GBSA implicit solvation:
   * S. Ehlert, M. Stahn, S. Spicher, S. Grimme, J. Chem. Theory Comput.,
     2021, 17, 4250-4261. DOI: 10.1021/acs.jctc.1c00471
   
   for DFT-D4:
   * E. Caldeweyher, C. Bannwarth and S. Grimme, J. Chem. Phys., 2017,
     147, 034112. DOI: 10.1063/1.4993215
   * E. Caldeweyher, S. Ehlert, A. Hansen, H. Neugebauer, S. Spicher,
     C. Bannwarth and S. Grimme, J. Chem. Phys., 2019, 150, 154122.
     DOI: 10.1063/1.5090222
   * E. Caldeweyher, J.-M. Mewes, S. Ehlert and S. Grimme, Phys. Chem. Chem. Phys.
     2020, 22, 8499-8512. DOI: 10.1039/D0CP00502A
   
   for sTDA-xTB:
   * S. Grimme and C. Bannwarth, J. Chem. Phys., 2016, 145, 054103.
     DOI: 10.1063/1.4959605
   
   in the mass-spec context:
   * V. Asgeirsson, C. Bauer and S. Grimme, Chem. Sci., 2017, 8, 4879.
     DOI: 10.1039/c7sc00601b
   * J. Koopman and S. Grimme, ACS Omega 2019, 4, 12, 15120-15133.
     DOI: 10.1021/acsomega.9b02011
   
   for metadynamics refer to:
   * S. Grimme, J. Chem. Theory Comput., 2019, 155, 2847-2862
     DOI: 10.1021/acs.jctc.9b00143
   
   for SPH calculations refer to:
   * S. Spicher and S. Grimme, J. Chem. Theory Comput., 2021, 17, 1701-1714
     DOI: 10.1021/acs.jctc.0c01306
   
   with help from (in alphabetical order)
   P. Atkinson, C. Bannwarth, F. Bohle, G. Brandenburg, E. Caldeweyher
   M. Checinski, S. Dohm, S. Ehlert, S. Ehrlich, I. Gerasimov, C. Hölzer
   A. Katbashev, J. Koopman, C. Lavigne, S. Lehtola, F. März, M. Müller,
   F. Musil, H. Neugebauer, J. Pisarek, C. Plett, P. Pracht, F. Pultar,
   J. Seibert, P. Shushkov, S. Spicher, M. Stahn, M. Steiner, T. Strunk,
   J. Stückrath, T. Rose, and J. Unsleber
   
 * started run on 2023/01/23 at 18:45:16.999     

           -------------------------------------------------
          |                Calculation Setup                |
           -------------------------------------------------

          program call               : xtb init.xyz --opt -c 1 -u 0 -P 16 --input xtb.inp
          hostname                   : gpg-woodward
          coordinate file            : init.xyz
          omp threads                :                    16

   ID    Z sym.   atoms
    1    7 N      1
    2    6 C      2-7
    3    1 H      8-21

           -------------------------------------------------
          |                 G F N 2 - x T B                 |
           -------------------------------------------------

        Reference                      10.1021/acs.jctc.8b01176
      * Hamiltonian:
        H0-scaling (s, p, d)           1.850000    2.230000    2.230000
        zeta-weighting                 0.500000
      * Dispersion:
        s8                             2.700000
        a1                             0.520000
        a2                             5.000000
        s9                             5.000000
      * Repulsion:
        kExp                           1.500000    1.000000
        rExp                           1.000000
      * Coulomb:
        alpha                          2.000000
        third order                    shell-resolved
        anisotropic                    true
        a3                             3.000000
        a5                             4.000000
        cn-shift                       1.200000
        cn-exp                         4.000000
        max-rad                        5.000000


          ...................................................
          :                      SETUP                      :
          :.................................................:
          :  # basis functions                  42          :
          :  # atomic orbitals                  42          :
          :  # shells                           28          :
          :  # electrons                        42          :
          :  max. iterations                   250          :
          :  Hamiltonian                  GFN2-xTB          :
          :  restarted?                      false          :
          :  GBSA solvation                  false          :
          :  PC potential                    false          :
          :  electronic temp.          300.0000000     K    :
          :  accuracy                    1.0000000          :
          :  -> integral cutoff          0.2500000E+02      :
          :  -> integral neglect         0.1000000E-07      :
          :  -> SCF convergence          0.1000000E-05 Eh   :
          :  -> wf. convergence          0.1000000E-03 e    :
          :  Broyden damping             0.4000000          :
          ...................................................

 iter      E             dE          RMSdq      gap      omega  full diag
   1    -22.7019279 -0.227019E+02  0.310E+00   11.66       0.0  T
   2    -22.8123064 -0.110379E+00  0.163E+00    9.43       1.0  T
   3    -22.8146142 -0.230776E-02  0.101E+00    8.87       1.0  T
   4    -22.8151442 -0.529977E-03  0.152E-01    8.31       1.0  T
   5    -22.8151939 -0.497230E-04  0.754E-02    8.34       1.0  T
   6    -22.8152006 -0.667940E-05  0.835E-03    8.38       2.6  T
   7    -22.8152008 -0.241832E-06  0.324E-03    8.38       6.7  T
   8    -22.8152009 -0.320107E-07  0.690E-04    8.38      31.6  T
   9    -22.8152009 -0.141813E-08  0.329E-04    8.38      66.3  T

   *** convergence criteria satisfied after 9 iterations ***

         #    Occupation            Energy/Eh            Energy/eV
      -------------------------------------------------------------
         1        2.0000           -0.8869670             -24.1356
       ...           ...                  ...                  ...
        15        2.0000           -0.6221243             -16.9289
        16        2.0000           -0.6215509             -16.9133
        17        2.0000           -0.6151384             -16.7388
        18        2.0000           -0.5897315             -16.0474
        19        2.0000           -0.5668288             -15.4242
        20        2.0000           -0.5662039             -15.4072
        21        2.0000           -0.5610843             -15.2679 (HOMO)
        22                         -0.2531313              -6.8881 (LUMO)
        23                         -0.1443509              -3.9280
        24                         -0.1136264              -3.0919
        25                         -0.1101397              -2.9971
        26                         -0.0870574              -2.3690
       ...                                ...                  ...
        42                          0.1594017               4.3375
      -------------------------------------------------------------
                  HL-Gap            0.3079531 Eh            8.3798 eV
             Fermi-level           -0.4071078 Eh          -11.0780 eV

 SCC (total)                   0 d,  0 h,  0 min,  0.054 sec
 SCC setup                      ...        0 min,  0.000 sec (  0.834%)
 Dispersion                     ...        0 min,  0.001 sec (  1.145%)
 classical contributions        ...        0 min,  0.000 sec (  0.325%)
 integral evaluation            ...        0 min,  0.002 sec (  4.539%)
 iterations                     ...        0 min,  0.045 sec ( 83.717%)
 molecular gradient             ...        0 min,  0.005 sec (  8.869%)
 printout                       ...        0 min,  0.000 sec (  0.305%)

         :::::::::::::::::::::::::::::::::::::::::::::::::::::
         ::                     SUMMARY                     ::
         :::::::::::::::::::::::::::::::::::::::::::::::::::::
         :: total energy             -22.500113284403 Eh    ::
         :: gradient norm              0.026121467978 Eh/a0 ::
         :: HOMO-LUMO gap              8.379829635466 eV    ::
         ::.................................................::
         :: SCC energy               -22.815200858408 Eh    ::
         :: -> isotropic ES            0.104925726121 Eh    ::
         :: -> anisotropic ES         -0.009585518854 Eh    ::
         :: -> anisotropic XC          0.014936571932 Eh    ::
         :: -> dispersion             -0.012996053309 Eh    ::
         :: repulsion energy           0.315018340657 Eh    ::
         :: add. restraining           0.000000000000 Eh    ::
         :: total charge               1.000000000000 e     ::
         :::::::::::::::::::::::::::::::::::::::::::::::::::::

      ----------------------------------------------------------- 
     |                   =====================                   |
     |                        A N C O P T                        |
     |                   =====================                   |
     |               Approximate Normal Coordinate               |
     |                Rational Function Optimizer                |
      ----------------------------------------------------------- 

          ...................................................
          :                      SETUP                      :
          :.................................................:
          :   optimization level            normal          :
          :   max. optcycles                   200          :
          :   ANC micro-cycles                  20          :
          :   degrees of freedom                57          :
          :.................................................:
          :   RF solver                   davidson          :
          :   write xtbopt.log                true          :
          :   linear?                        false          :
          :   energy convergence         0.5000000E-05 Eh   :
          :   grad. convergence          0.1000000E-02 Eh/α :
          :   maximium RF displ.         1.0000000          :
          :   Hlow (freq-cutoff)         0.1000000E-01      :
          :   Hmax (freq-cutoff)         5.0000000          :
          :   S6 in model hess.         20.0000000          :
          ...................................................

generating ANC from model Hessian ...
Using Lindh-Hessian (1995)
 Shifting diagonal of input Hessian by    5.2179084781170740E-003
 Lowest  eigenvalues of input Hessian
    0.000000    0.000000    0.000000    0.000000    0.000000    0.000000
    0.010000    0.012018    0.016993    0.017037    0.020233    0.022747
    0.026560    0.031809    0.049436    0.055813    0.055906    0.056610
 Highest eigenvalues
    1.224426    1.271015    1.273123    1.390857    1.397568    1.431173


........................................................................
.............................. CYCLE    1 ..............................
........................................................................
   1    -22.8152009 -0.228152E+02  0.629E-05    8.38       0.0  T
   2    -22.8152009 -0.151488E-10  0.338E-05    8.38     645.8  T
   3    -22.8152009 -0.653699E-12  0.159E-05    8.38    1376.8  T
     SCC iter.                  ...        0 min,  0.002 sec
     gradient                   ...        0 min,  0.002 sec
 * total energy  :   -22.5001133 Eh     change       -0.1112390E-09 Eh
   gradient norm :     0.0261222 Eh/α   predicted     0.0000000E+00 (-100.00%)
   displ. norm   :     0.1744014 α      lambda       -0.1808215E-02
   maximum displ.:     0.0790605 α      in ANC's #1, #4, #6, ...

........................................................................
.............................. CYCLE    2 ..............................
........................................................................
   1    -22.8214700 -0.228215E+02  0.103E-01    8.38       0.0  T
   2    -22.8214798 -0.979677E-05  0.591E-02    8.40       1.0  T
   3    -22.8214803 -0.553453E-06  0.113E-02    8.41       1.9  T
   4    -22.8214806 -0.306525E-06  0.310E-03    8.41       7.0  T
   5    -22.8214807 -0.268198E-07  0.123E-03    8.41      17.8  T
   6    -22.8214807 -0.221778E-08  0.244E-04    8.41      89.3  T
   7    -22.8214807 -0.779110E-10  0.936E-05    8.41     233.2  T
     SCC iter.                  ...        0 min,  0.005 sec
     gradient                   ...        0 min,  0.002 sec
 * total energy  :   -22.5013163 Eh     change       -0.1202982E-02 Eh
   gradient norm :     0.0120970 Eh/α   predicted    -0.9316188E-03 ( -22.56%)
   displ. norm   :     0.1851766 α      lambda       -0.7295212E-03
   maximum displ.:     0.1160545 α      in ANC's #1, #4, #6, ...

........................................................................
.............................. CYCLE    3 ..............................
........................................................................
   1    -22.8247180 -0.228247E+02  0.705E-02    8.40       0.0  T
   2    -22.8247261 -0.816404E-05  0.386E-02    8.41       1.0  T
   3    -22.8247269 -0.731502E-06  0.891E-03    8.42       2.4  T
   4    -22.8247269 -0.402826E-07  0.246E-03    8.42       8.9  T
   5    -22.8247269 -0.471310E-08  0.817E-04    8.42      26.7  T
   6    -22.8247269 -0.146567E-08  0.193E-04    8.42     112.9  T
     SCC iter.                  ...        0 min,  0.004 sec
     gradient                   ...        0 min,  0.002 sec
 * total energy  :   -22.5017647 Eh     change       -0.4484065E-03 Eh
   gradient norm :     0.0055910 Eh/α   predicted    -0.3772692E-03 ( -15.86%)
   displ. norm   :     0.1096008 α      lambda       -0.1559260E-03
   maximum displ.:     0.0828476 α      in ANC's #1, #4, #6, ...

........................................................................
.............................. CYCLE    4 ..............................
........................................................................
   1    -22.8245254 -0.228245E+02  0.438E-02    8.44       0.0  T
   2    -22.8245269 -0.149260E-05  0.243E-02    8.44       1.0  T
   3    -22.8245271 -0.124597E-06  0.373E-03    8.45       5.9  T
   4    -22.8245271 -0.197250E-07  0.102E-03    8.45      21.4  T
   5    -22.8245271 -0.267065E-08  0.464E-04    8.45      47.0  T
   6    -22.8245271 -0.205603E-09  0.648E-05    8.45     336.7  T
     SCC iter.                  ...        0 min,  0.004 sec
     gradient                   ...        0 min,  0.002 sec
 * total energy  :   -22.5018705 Eh     change       -0.1058379E-03 Eh
   gradient norm :     0.0040068 Eh/α   predicted    -0.7892077E-04 ( -25.43%)
   displ. norm   :     0.0700408 α      lambda       -0.5810753E-04
   maximum displ.:     0.0608177 α      in ANC's #1, #4, #6, ...

........................................................................
.............................. CYCLE    5 ..............................
........................................................................
   1    -22.8241454 -0.228241E+02  0.290E-02    8.47       0.0  T
   2    -22.8241456 -0.264788E-06  0.165E-02    8.48       1.3  T
   3    -22.8241457 -0.282041E-07  0.146E-03    8.48      14.9  T
   4    -22.8241457 -0.390971E-08  0.450E-04    8.48      48.5  T
   5    -22.8241457 -0.334822E-09  0.212E-04    8.48     102.9  T
     SCC iter.                  ...        0 min,  0.003 sec
     gradient                   ...        0 min,  0.002 sec
 * total energy  :   -22.5019079 Eh     change       -0.3739513E-04 Eh
   gradient norm :     0.0017208 Eh/α   predicted    -0.2932247E-04 ( -21.59%)
   displ. norm   :     0.0512663 α      lambda       -0.1246070E-04
   maximum displ.:     0.0500117 α      in ANC's #1, #20, #6, ...

........................................................................
.............................. CYCLE    6 ..............................
........................................................................
   1    -22.8240707 -0.228241E+02  0.166E-02    8.50       0.0  T
   2    -22.8240707 -0.445151E-07  0.960E-03    8.50       2.3  T
   3    -22.8240707 -0.820265E-08  0.700E-04    8.50      31.2  T
   4    -22.8240707 -0.271755E-08  0.317E-04    8.50      68.9  T
     SCC iter.                  ...        0 min,  0.003 sec
     gradient                   ...        0 min,  0.002 sec
 * total energy  :   -22.5019196 Eh     change       -0.1166450E-04 Eh
   gradient norm :     0.0011406 Eh/α   predicted    -0.6365981E-05 ( -45.42%)
   displ. norm   :     0.0521052 α      lambda        0.8231990E-05
   maximum displ.:     0.0508356 α      in ANC's #1, #20, #13, ...

........................................................................
.............................. CYCLE    7 ..............................
........................................................................
   1    -22.8239508 -0.228240E+02  0.167E-02    8.52       0.0  T
   2    -22.8239509 -0.459224E-07  0.969E-03    8.52       2.3  T
   3    -22.8239509 -0.805209E-08  0.720E-04    8.52      30.3  T
   4    -22.8239509 -0.299598E-08  0.318E-04    8.52      68.6  T
     SCC iter.                  ...        0 min,  0.003 sec
     gradient                   ...        0 min,  0.002 sec
 * total energy  :   -22.5019165 Eh     change        0.3076534E-05 Eh
   gradient norm :     0.0029583 Eh/α   predicted     0.4119162E-05 (  33.89%)
   displ. norm   :     0.0120759 α      lambda       -0.9979486E-05
   maximum displ.:     0.0074738 α      in ANC's #4, #1, #6, ...

........................................................................
.............................. CYCLE    8 ..............................
........................................................................
   1    -22.8240657 -0.228241E+02  0.722E-03    8.51       0.0  T
   2    -22.8240657 -0.188424E-07  0.412E-03    8.51       5.3  T
   3    -22.8240657 -0.804693E-09  0.509E-04    8.51      42.8  T
   4    -22.8240657 -0.102364E-08  0.125E-04    8.51     175.1  T
     SCC iter.                  ...        0 min,  0.003 sec
     gradient                   ...        0 min,  0.002 sec
 * total energy  :   -22.5019240 Eh     change       -0.7554390E-05 Eh
   gradient norm :     0.0016096 Eh/α   predicted    -0.4991334E-05 ( -33.93%)
   displ. norm   :     0.0243475 α      lambda       -0.6834346E-05
   maximum displ.:     0.0197987 α      in ANC's #4, #6, #7, ...

........................................................................
.............................. CYCLE    9 ..............................
........................................................................
   1    -22.8242438 -0.228242E+02  0.111E-02    8.50       0.0  T
   2    -22.8242438 -0.606754E-07  0.631E-03    8.50       3.5  T
   3    -22.8242438 -0.250164E-08  0.874E-04    8.50      25.0  T
   4    -22.8242438 -0.176173E-08  0.192E-04    8.50     113.6  T
     SCC iter.                  ...        0 min,  0.003 sec
     gradient                   ...        0 min,  0.002 sec
 * total energy  :   -22.5019273 Eh     change       -0.3256603E-05 Eh
   gradient norm :     0.0007621 Eh/α   predicted    -0.3420308E-05 (   5.03%)
   displ. norm   :     0.0108014 α      lambda        0.2644641E-05
   maximum displ.:     0.0070858 α      in ANC's #4, #6, #9, ...

   *** GEOMETRY OPTIMIZATION CONVERGED AFTER 9 ITERATIONS ***

------------------------------------------------------------------------
 total energy gain   :        -0.0018140 Eh       -1.1383 kcal/mol
 total RMSD          :         0.1227548 a0        0.0650 Å
 total power (kW/mol):        -0.5291901 (step)  -39.2124 (real)
------------------------------------------------------------------------

 ANCopt (total)                0 d,  0 h,  0 min,  0.121 sec
 optimizer setup                ...        0 min,  0.000 sec (  0.081%)
 model hessian                  ...        0 min,  0.060 sec ( 49.499%)
 ANC generation                 ...        0 min,  0.001 sec (  0.731%)
 coordinate transformation      ...        0 min,  0.000 sec (  0.096%)
 single point calculation       ...        0 min,  0.058 sec ( 47.755%)
 optimization log               ...        0 min,  0.001 sec (  0.563%)
 hessian update                 ...        0 min,  0.000 sec (  0.333%)
 rational function              ...        0 min,  0.000 sec (  0.397%)

================
 final structure:
================
21
 xtb: 6.5.1 (fef0646)
N           -1.76546313161088        0.06505023261788        0.82296878789993
C           -1.09166527389956        0.04291656944371       -0.52558931892173
C           -0.19875569239681        1.27391217075784       -0.63863872799069
C            0.97319824192247        1.22194672316210        0.34190854316554
C            1.76871709859672       -0.06702432918824        0.15816276859751
C            0.87790289047768       -1.29296164461261        0.33597940487794
C           -0.29450431213035       -1.25164313023314       -0.64456684669065
H           -2.30588539556460        0.92787659678350        0.95332008482187
H           -1.01154649532746        0.02765950801962        1.52718338073849
H           -2.38013924951141       -0.74798570370887        0.94408360915247
H           -1.87907711017253        0.07467118673185       -1.28369423138474
H           -0.78546903261211        2.18240206714914       -0.48898550421570
H            0.19434160504278        1.30903538916209       -1.65443763536040
H            0.62849387873014        1.30702361924100        1.37735699184714
H            1.62061722592739        2.07842925659008        0.15923388902137
H            2.58890194986934       -0.09979029740574        0.87413885042142
H            2.20235658405784       -0.08111594757205       -0.84189489756834
H            0.52775681800339       -1.35660517559478        1.37125068533854
H            1.45865086817859       -2.19515784298261        0.14928619914012
H           -0.94827887840216       -2.11382100792163       -0.49890398479086
H            0.09497741082152       -1.31176824043913       -1.66059204809922

 Bond Distances (Angstroems)
 ---------------------------
N1-C2=1.5077         N1-H8=1.0264         N1-H9=1.0323         N1-H10=1.0264        C2-N1=1.5077         C2-C3=1.5249         
C2-C7=1.5250         C2-H11=1.0935        C3-C2=1.5249         C3-C4=1.5289         C3-H12=1.0918        C3-H13=1.0898        
C4-C3=1.5289         C4-C5=1.5258         C4-H14=1.0946        C4-H15=1.0891        C5-C4=1.5258         C5-C6=1.5258         
C5-H16=1.0892        C5-H17=1.0901        C6-C5=1.5258         C6-C7=1.5290         C6-H18=1.0947        C6-H19=1.0891        
C7-C2=1.5250         C7-C6=1.5290         C7-H20=1.0918        C7-H21=1.0898        H8-N1=1.0264         H9-N1=1.0323         
H10-N1=1.0264        H11-C2=1.0935        H12-C3=1.0918        H13-C3=1.0898        H14-C4=1.0946        H15-C4=1.0891        
H16-C5=1.0892        H17-C5=1.0901        H18-C6=1.0947        H19-C6=1.0891        H20-C7=1.0918        H21-C7=1.0898        
 C  H  Rav=1.0912 sigma=0.0021  Rmin=1.0891  Rmax=1.0947    11
 C  C  Rav=1.5266 sigma=0.0017  Rmin=1.5249  Rmax=1.5290     6
 N  H  Rav=1.0284 sigma=0.0028  Rmin=1.0264  Rmax=1.0323     3
 N  C  Rav=1.5077 sigma=0.0000  Rmin=1.5077  Rmax=1.5077     1

 selected bond angles (degree)
 --------------------
H8-N1-C2=111.18                H9-N1-C2=106.45                H9-N1-H8=109.17                H10-N1-C2=111.20               
H10-N1-H8=109.61               H10-N1-H9=109.16               C3-C2-N1=108.43                C7-C2-N1=108.41                
C7-C2-C3=111.93                H11-C2-N1=107.33               H11-C2-C3=110.29               H11-C2-C7=110.30               
C4-C3-C2=111.95                H12-C3-C2=110.30               H12-C3-C4=110.63               H13-C3-C2=107.84               
H13-C3-C4=108.81               H13-C3-H12=107.15              C5-C4-C3=110.56                H14-C4-C3=111.26               
H14-C4-C5=110.11               H15-C4-C3=108.75               H15-C4-C5=109.53               H15-C4-H14=106.54              
C6-C5-C4=111.12                H16-C5-C4=109.81               H16-C5-C6=109.81               H17-C5-C4=109.20               
H17-C5-C6=109.19               H17-C5-H16=107.64              C7-C6-C5=110.56                H18-C6-C5=110.10               
H18-C6-C7=111.27               H19-C6-C5=109.53               H19-C6-C7=108.74               H19-C6-H18=106.53              
C6-C7-C2=111.95                H20-C7-C2=110.30               H20-C7-C6=110.63               H21-C7-C2=107.84               
H21-C7-C6=108.81               H21-C7-H20=107.15              

 selected dihedral angles (degree)
 ---------------------------------
C3-C2-N1-H8= 57.52            C3-C2-N1-H9=298.73            C3-C2-N1-H10=179.94           C7-C2-N1-H8=179.24            
C7-C2-N1-H9= 60.45            C7-C2-N1-H10=301.67           H11-C2-N1-H8=298.38           H11-C2-N1-H9=179.59           
H11-C2-N1-H10= 60.81          C4-C3-C2-N1= 66.65            C4-C3-C2-C7=307.11            C4-C3-C2-H11=183.90           
H12-C3-C2-N1=303.00           H12-C3-C2-C7=183.46           H12-C3-C2-H11= 60.26          H13-C3-C2-N1=186.31           
H13-C3-C2-C7= 66.77           H13-C3-C2-H11=303.57          C5-C4-C3-C2= 54.93            C5-C4-C3-H12=178.39           
C5-C4-C3-H13=295.84           H14-C4-C3-C2=292.25           H14-C4-C3-H12= 55.71          H14-C4-C3-H13=173.16          
H15-C4-C3-C2=175.21           H15-C4-C3-H12=298.67          H15-C4-C3-H13= 56.12          C6-C5-C4-C3=302.71            
C6-C5-C4-H14= 66.06           C6-C5-C4-H15=182.90           H16-C5-C4-C3=181.03           H16-C5-C4-H14=304.37          
H16-C5-C4-H15= 61.22          H17-C5-C4-C3= 63.22           H17-C5-C4-H14=186.57          H17-C5-C4-H15=303.41          
C7-C6-C5-C4= 57.29            C7-C6-C5-H16=178.97           C7-C6-C5-H17=296.78           H18-C6-C5-C4=293.93           
H18-C6-C5-H16= 55.62          H18-C6-C5-H17=173.42          H19-C6-C5-C4=177.11           H19-C6-C5-H16=298.79          
H19-C6-C5-H17= 56.60          C6-C7-C2-N1=293.34            C6-C7-C2-C3= 52.89            C6-C7-C2-H11=176.08           
H20-C7-C2-N1= 56.98           H20-C7-C2-C3=176.53           H20-C7-C2-H11=299.73          H21-C7-C2-N1=173.68           
H21-C7-C2-C3=293.23           H21-C7-C2-H11= 56.43          C2-C7-C6-C5=305.08            C2-C7-C6-H18= 67.75           
C2-C7-C6-H19=184.79           H20-C7-C6-C5=181.62           H20-C7-C6-H18=304.30          H20-C7-C6-H19= 61.33          
H21-C7-C6-C5= 64.17           H21-C7-C6-H18=186.85          H21-C7-C6-H19=303.88          
           -------------------------------------------------
          |                Final Singlepoint                |
           -------------------------------------------------

          ...................................................
          :                      SETUP                      :
          :.................................................:
          :  # basis functions                  42          :
          :  # atomic orbitals                  42          :
          :  # shells                           28          :
          :  # electrons                        42          :
          :  max. iterations                   250          :
          :  Hamiltonian                  GFN2-xTB          :
          :  restarted?                      false          :
          :  GBSA solvation                  false          :
          :  PC potential                    false          :
          :  electronic temp.          300.0000000     K    :
          :  accuracy                    1.0000000          :
          :  -> integral cutoff          0.2500000E+02      :
          :  -> integral neglect         0.1000000E-07      :
          :  -> SCF convergence          0.1000000E-05 Eh   :
          :  -> wf. convergence          0.1000000E-03 e    :
          :  Broyden damping             0.4000000          :
          ...................................................

 iter      E             dE          RMSdq      gap      omega  full diag
   1    -22.8242438 -0.228242E+02  0.995E-05    8.50       0.0  T
   2    -22.8242438 -0.731148E-11  0.573E-05    8.50     381.1  T
   3    -22.8242438  0.397904E-12  0.138E-05    8.50    1578.7  T

   *** convergence criteria satisfied after 3 iterations ***

         #    Occupation            Energy/Eh            Energy/eV
      -------------------------------------------------------------
         1        2.0000           -0.8834653             -24.0403
       ...           ...                  ...                  ...
        15        2.0000           -0.6252300             -17.0134
        16        2.0000           -0.6244499             -16.9921
        17        2.0000           -0.6186260             -16.8337
        18        2.0000           -0.5943788             -16.1739
        19        2.0000           -0.5696707             -15.5015
        20        2.0000           -0.5686563             -15.4739
        21        2.0000           -0.5663895             -15.4122 (HOMO)
        22                         -0.2540729              -6.9137 (LUMO)
        23                         -0.1649750              -4.4892
        24                         -0.1024265              -2.7872
        25                         -0.1016637              -2.7664
        26                         -0.0812358              -2.2105
       ...                                ...                  ...
        42                          0.1696836               4.6173
      -------------------------------------------------------------
                  HL-Gap            0.3123166 Eh            8.4986 eV
             Fermi-level           -0.4102312 Eh          -11.1630 eV

 SCC (total)                   0 d,  0 h,  0 min,  0.005 sec
 SCC setup                      ...        0 min,  0.000 sec (  1.542%)
 Dispersion                     ...        0 min,  0.000 sec (  2.369%)
 classical contributions        ...        0 min,  0.000 sec (  0.668%)
 integral evaluation            ...        0 min,  0.001 sec ( 14.208%)
 iterations                     ...        0 min,  0.002 sec ( 39.734%)
 molecular gradient             ...        0 min,  0.002 sec ( 38.771%)
 printout                       ...        0 min,  0.000 sec (  1.432%)

         :::::::::::::::::::::::::::::::::::::::::::::::::::::
         ::                     SUMMARY                     ::
         :::::::::::::::::::::::::::::::::::::::::::::::::::::
         :: total energy             -22.501927305360 Eh    ::
         :: gradient norm              0.000761952588 Eh/a0 ::
         :: HOMO-LUMO gap              8.498566101282 eV    ::
         ::.................................................::
         :: SCC energy               -22.824243825531 Eh    ::
         :: -> isotropic ES            0.103937257175 Eh    ::
         :: -> anisotropic ES         -0.011007616735 Eh    ::
         :: -> anisotropic XC          0.014901724735 Eh    ::
         :: -> dispersion             -0.013086765617 Eh    ::
         :: repulsion energy           0.322250209795 Eh    ::
         :: add. restraining           0.000000000000 Eh    ::
         :: total charge               1.000000000000 e     ::
         :::::::::::::::::::::::::::::::::::::::::::::::::::::

           -------------------------------------------------
          |                Property Printout                |
           -------------------------------------------------

    * Orbital Energies and Occupations

         #    Occupation            Energy/Eh            Energy/eV
      -------------------------------------------------------------
         1        2.0000           -0.8834653             -24.0403
       ...           ...                  ...                  ...
         9        2.0000           -0.7214541             -19.6318
        10        2.0000           -0.6894745             -18.7616
        11        2.0000           -0.6824438             -18.5702
        12        2.0000           -0.6571986             -17.8833
        13        2.0000           -0.6496680             -17.6784
        14        2.0000           -0.6391745             -17.3928
        15        2.0000           -0.6252300             -17.0134
        16        2.0000           -0.6244499             -16.9921
        17        2.0000           -0.6186260             -16.8337
        18        2.0000           -0.5943788             -16.1739
        19        2.0000           -0.5696707             -15.5015
        20        2.0000           -0.5686563             -15.4739
        21        2.0000           -0.5663895             -15.4122 (HOMO)
        22                         -0.2540729              -6.9137 (LUMO)
        23                         -0.1649750              -4.4892
        24                         -0.1024265              -2.7872
        25                         -0.1016637              -2.7664
        26                         -0.0812358              -2.2105
        27                         -0.0588986              -1.6027
        28                         -0.0555904              -1.5127
        29                         -0.0352484              -0.9592
        30                         -0.0283806              -0.7723
        31                         -0.0220067              -0.5988
        32                          0.0225426               0.6134
       ...                                ...                  ...
        42                          0.1696836               4.6173
      -------------------------------------------------------------
                  HL-Gap            0.3123166 Eh            8.4986 eV
             Fermi-level           -0.4102312 Eh          -11.1630 eV

     #   Z          covCN         q      C6AA      α(0)
     1   7 N        3.485    -0.142    24.069     7.287
     2   6 C        3.782     0.024    20.189     6.401
     3   6 C        3.807    -0.085    22.107     6.693
     4   6 C        3.804    -0.070    21.837     6.653
     5   6 C        3.806    -0.073    21.891     6.661
     6   6 C        3.804    -0.070    21.836     6.653
     7   6 C        3.807    -0.085    22.108     6.693
     8   1 H        0.859     0.262     0.837     1.433
     9   1 H        0.859     0.278     0.784     1.387
    10   1 H        0.859     0.262     0.838     1.434
    11   1 H        0.924     0.086     1.923     2.169
    12   1 H        0.924     0.056     2.244     2.343
    13   1 H        0.925     0.090     1.883     2.146
    14   1 H        0.924     0.030     2.580     2.512
    15   1 H        0.925     0.070     2.088     2.260
    16   1 H        0.925     0.060     2.197     2.318
    17   1 H        0.925     0.060     2.196     2.317
    18   1 H        0.924     0.030     2.581     2.512
    19   1 H        0.925     0.070     2.088     2.259
    20   1 H        0.924     0.056     2.243     2.342
    21   1 H        0.925     0.090     1.883     2.146

 Mol. C6AA /au·bohr⁶  :       2668.548946
 Mol. C8AA /au·bohr⁸  :      56945.205787
 Mol. α(0) /au        :         76.618017


Wiberg/Mayer (AO) data.
largest (>0.10) Wiberg bond orders for each atom

 ---------------------------------------------------------------------------
     #   Z sym  total        # sym  WBO       # sym  WBO       # sym  WBO
 ---------------------------------------------------------------------------
     1   7 N    3.667 --    10 H    0.915     8 H    0.915     2 C    0.897
                             9 H    0.886
     2   6 C    3.895 --     3 C    0.998     7 C    0.998    11 H    0.962
                             1 N    0.897
     3   6 C    3.983 --     4 C    1.006     2 C    0.998    12 H    0.971
                            13 H    0.963
     4   6 C    3.993 --     5 C    1.009     3 C    1.006    15 H    0.972
                            14 H    0.969
     5   6 C    3.992 --     4 C    1.009     6 C    1.009    17 H    0.974
                            16 H    0.974
     6   6 C    3.993 --     5 C    1.009     7 C    1.006    19 H    0.971
                            18 H    0.969
     7   6 C    3.983 --     6 C    1.006     2 C    0.998    20 H    0.971
                            21 H    0.963
     8   1 H    0.931 --     1 N    0.915
     9   1 H    0.923 --     1 N    0.886
    10   1 H    0.931 --     1 N    0.915
    11   1 H    0.993 --     2 C    0.962
    12   1 H    0.997 --     3 C    0.971
    13   1 H    0.992 --     3 C    0.963
    14   1 H    0.999 --     4 C    0.969
    15   1 H    0.995 --     4 C    0.972
    16   1 H    0.996 --     5 C    0.974
    17   1 H    0.996 --     5 C    0.974
    18   1 H    0.999 --     6 C    0.969
    19   1 H    0.995 --     6 C    0.971
    20   1 H    0.997 --     7 C    0.971
    21   1 H    0.992 --     7 C    0.963
 ---------------------------------------------------------------------------

Topologies differ in total number of bonds
Writing topology from bond orders to xtbtopo.mol

molecular dipole:
                 x           y           z       tot (Debye)
 q only:       -2.259       0.083       0.919
   full:       -2.512       0.092       1.104       6.977
molecular quadrupole (traceless):
                xx          xy          yy          xz          yz          zz
 q only:        7.847      -0.469      -4.876      -6.149       0.228      -2.972
  q+dip:        8.303      -0.516      -5.691      -7.099       0.261      -2.612
   full:        8.418      -0.516      -5.600      -7.042       0.260      -2.818

           -------------------------------------------------
          |                Geometry Summary                 |
           -------------------------------------------------

      molecular mass/u    :      100.1822891
   center of mass at/Å    :       -0.0028150       0.0003691       0.0077700
  moments of inertia/u·Å² :        0.1463371E+03   0.1950552E+03   0.2555100E+03
rotational constants/cm⁻¹ :        0.1151973E+00   0.8642493E-01   0.6597640E-01

 * 21 selected distances

     #   Z          #   Z                                           value/Å
     1   7 N        2   6 C                                       1.5076813
     2   6 C        3   6 C                                       1.5249322
     3   6 C        4   6 C                                       1.5289375
     4   6 C        5   6 C                                       1.5257980
     5   6 C        6   6 C                                       1.5258085
     2   6 C        7   6 C                                       1.5249611
     6   6 C        7   6 C                                       1.5289595 (max)
     1   7 N        8   1 H                                       1.0264099 (min)
     1   7 N        9   1 H                                       1.0323307
     1   7 N       10   1 H                                       1.0264128
     2   6 C       11   1 H                                       1.0935031
     3   6 C       12   1 H                                       1.0917796
     3   6 C       13   1 H                                       1.0897737
     4   6 C       14   1 H                                       1.0946291
     4   6 C       15   1 H                                       1.0890748
     5   6 C       16   1 H                                       1.0892193
     5   6 C       17   1 H                                       1.0901180
     6   6 C       18   1 H                                       1.0947327
     6   6 C       19   1 H                                       1.0890734
     7   6 C       20   1 H                                       1.0917828
     7   6 C       21   1 H                                       1.0897791

 * 4 distinct bonds (by element types)

   Z      Z             #   av. dist./Å        max./Å        min./Å
   1 H    6 C          11     1.0912242     1.0947327     1.0890734
   6 C    6 C           6     1.5265661     1.5289595     1.5249322
   1 H    7 N           3     1.0283845     1.0323307     1.0264099
   6 C    7 N           1     1.5076813     1.5076813     1.5076813


optimized geometry written to: xtbopt.xyz


           -------------------------------------------------
          | TOTAL ENERGY              -22.501927305360 Eh   |
          | GRADIENT NORM               0.000761952588 Eh/α |
          | HOMO-LUMO GAP               8.498566101282 eV   |
           -------------------------------------------------

------------------------------------------------------------------------
 * finished run on 2023/01/23 at 18:45:17.203     
------------------------------------------------------------------------
 total:
 * wall-time:     0 d,  0 h,  0 min,  0.205 sec
 *  cpu-time:     0 d,  0 h,  0 min, 20.370 sec
 * ratio c/w:    99.604 speedup
 SCF:
 * wall-time:     0 d,  0 h,  0 min,  0.054 sec
 *  cpu-time:     0 d,  0 h,  0 min,  6.838 sec
 * ratio c/w:   127.040 speedup
 ANC optimizer:
 * wall-time:     0 d,  0 h,  0 min,  0.127 sec
 *  cpu-time:     0 d,  0 h,  0 min, 10.703 sec
 * ratio c/w:    83.971 speedup

