 Entering Gaussian System
 *********************************************
 Gaussian 98:
 frequency output generated by the xtb code
 *********************************************
                         Standard orientation:
 --------------------------------------------------------------------
  Center     Atomic     Atomic              Coordinates (Angstroms)
  Number     Number      Type              X           Y           Z
 --------------------------------------------------------------------
    1          7             0       -1.853318   -1.551770    0.203699
    2          6             0       -2.258580   -0.112788    0.180628
    3          6             0       -1.378449    0.718556   -0.773487
    4          6             0       -0.347422    1.625732   -0.080032
    5          6             0        0.659488    0.909978    0.827426
    6          6             0        1.451850   -0.138457    0.103565
    7          8             0        2.672350    0.206915   -0.339860
    8          8             0        0.964273   -1.228275   -0.071531
    9          1             0       -0.816128   -1.592236    0.183746
   10          1             0       -2.188223   -2.052930   -0.631499
   11          1             0       -2.196307   -2.055977    1.034721
   12          1             0       -2.204824    0.304034    1.194007
   13          1             0       -3.320221   -0.051643   -0.097168
   14          1             0       -2.013568    1.328728   -1.430475
   15          1             0       -0.852425    0.032832   -1.449397
   16          1             0       -0.877996    2.392076    0.499449
   17          1             0        0.213478    2.181038   -0.844165
   18          1             0        0.151028    0.436262    1.672419
   19          1             0        1.365413    1.627875    1.262043
   20          1             0        3.089055   -0.558858   -0.769790
 --------------------------------------------------------------------
     1 basis functions        1 primitive gaussians
     1 alpha electrons        1 beta electrons

 Harmonic frequencies (cm**-1), IR intensities (km*mol⁻¹),
 Raman scattering activities (A**4/amu), Raman depolarization ratios,
 reduced masses (AMU), force constants (mDyne/A) and normal coordinates:
                      1                      2                      3
                        a                      a                      a 
 Frequencies --    91.0196               129.9950               141.1671
 Red. masses --    13.7170                 9.7862                11.9055
 Frc consts  --     0.0000                 0.0000                 0.0000
 IR Inten    --    13.0931                32.9485                49.9770
 Raman Activ --     0.0000                 0.0000                 0.0000
 Depolar     --     0.0000                 0.0000                 0.0000
 Atom AN      X      Y      Z        X      Y      Z        X      Y      Z
   1   7    -0.03   0.05   0.32     0.47   0.22   0.26     0.46  -0.07  -0.13
   2   6    -0.08   0.03   0.01    -0.04   0.07  -0.25     0.17  -0.14   0.09
   3   6    -0.00  -0.12  -0.04     0.00   0.16  -0.12    -0.10   0.11   0.05
   4   6     0.01  -0.11  -0.08     0.02  -0.01   0.08    -0.06   0.14  -0.05
   5   6    -0.04  -0.07   0.02    -0.18  -0.24   0.11     0.05   0.22  -0.10
   6   6     0.03   0.03  -0.04    -0.11  -0.10   0.00    -0.14   0.01   0.01
   7   8     0.22  -0.01   0.42    -0.24   0.06  -0.13    -0.02  -0.37   0.17
   8   8    -0.12   0.20  -0.67     0.02  -0.20   0.01    -0.44   0.13  -0.03
   9   1    -0.01   0.03  -0.05     0.14   0.14   0.05     0.14   0.06  -0.06
  10   1    -0.10  -0.06   0.17     0.16  -0.05   0.12     0.14  -0.01  -0.04
  11   1     0.10   0.08   0.17     0.18   0.11   0.12     0.17  -0.07  -0.05
  12   1    -0.05   0.06  -0.02    -0.15   0.10  -0.10     0.07  -0.07   0.03
  13   1    -0.02  -0.01  -0.03     0.01  -0.10  -0.18     0.04  -0.08   0.06
  14   1     0.02  -0.04  -0.04     0.01   0.08  -0.00    -0.08   0.04   0.07
  15   1    -0.01  -0.06   0.01    -0.01   0.07  -0.07    -0.05   0.08  -0.05
  16   1     0.00  -0.01  -0.05     0.01  -0.01   0.03    -0.01   0.04  -0.00
  17   1     0.02  -0.06  -0.03     0.05   0.01   0.06    -0.05   0.04  -0.03
  18   1    -0.02  -0.04  -0.01    -0.10  -0.11  -0.02     0.04   0.12   0.02
  19   1    -0.03  -0.01   0.03    -0.06  -0.10   0.10     0.05   0.07  -0.10
  20   1     0.06   0.02   0.08    -0.05   0.04  -0.06    -0.04  -0.13   0.07
                      4                      5                      6
                        a                      a                      a 
 Frequencies --   169.2518               198.2046               302.2798
 Red. masses --    10.9347                 8.9019                 7.3587
 Frc consts  --     0.0000                 0.0000                 0.0000
 IR Inten    --     1.7970                 0.6824                 3.9316
 Raman Activ --     0.0000                 0.0000                 0.0000
 Depolar     --     0.0000                 0.0000                 0.0000
 Atom AN      X      Y      Z        X      Y      Z        X      Y      Z
   1   7    -0.08  -0.13   0.09     0.05  -0.02  -0.10     0.05   0.03  -0.06
   2   6     0.12  -0.07  -0.19     0.37   0.08   0.29    -0.28  -0.07  -0.01
   3   6     0.44  -0.22  -0.04     0.10  -0.03  -0.05    -0.20  -0.01   0.12
   4   6     0.11  -0.00   0.16     0.22   0.00  -0.28     0.32  -0.29  -0.20
   5   6     0.13   0.12   0.24    -0.24  -0.13   0.10     0.15  -0.01   0.23
   6   6    -0.11   0.09   0.05    -0.17  -0.05   0.09     0.10   0.05   0.17
   7   8    -0.22   0.01  -0.24    -0.29   0.22   0.07     0.01   0.07  -0.09
   8   8    -0.38   0.23  -0.05    -0.05  -0.09  -0.09    -0.13   0.20  -0.01
   9   1    -0.02  -0.05   0.05     0.01  -0.07  -0.09     0.02   0.09   0.16
  10   1    -0.01  -0.07   0.04    -0.08   0.07  -0.03     0.21   0.05  -0.12
  11   1    -0.05   0.02   0.04     0.03  -0.03  -0.03    -0.11  -0.08  -0.12
  12   1    -0.02   0.00  -0.06     0.27  -0.02   0.09    -0.16  -0.03   0.00
  13   1     0.06   0.01  -0.12     0.07   0.10   0.23    -0.06  -0.07  -0.07
  14   1     0.18  -0.11  -0.11    -0.00  -0.04  -0.01    -0.05   0.10   0.12
  15   1     0.21  -0.09   0.08     0.00  -0.03  -0.01    -0.18  -0.01  -0.06
  16   1    -0.04  -0.03   0.03     0.09   0.10  -0.18     0.19   0.08  -0.18
  17   1     0.04   0.03   0.07     0.15  -0.12  -0.10     0.15  -0.27  -0.15
  18   1     0.05   0.05   0.08    -0.16  -0.04  -0.03     0.02   0.03   0.07
  19   1     0.05   0.03   0.04    -0.08  -0.08   0.11     0.02   0.04   0.05
  20   1    -0.12   0.01  -0.13    -0.05   0.09  -0.03    -0.06   0.04  -0.13
                      7                      8                      9
                        a                      a                      a 
 Frequencies --   329.0968               396.0241               418.9150
 Red. masses --     3.0669                 9.6058                 9.0678
 Frc consts  --     0.0000                 0.0000                 0.0000
 IR Inten    --     1.0647                 6.9200                21.6908
 Raman Activ --     0.0000                 0.0000                 0.0000
 Depolar     --     0.0000                 0.0000                 0.0000
 Atom AN      X      Y      Z        X      Y      Z        X      Y      Z
   1   7    -0.08  -0.13  -0.12     0.14   0.33  -0.20    -0.10  -0.23   0.14
   2   6    -0.07  -0.08  -0.10    -0.04   0.18   0.15     0.14  -0.10  -0.06
   3   6    -0.08   0.11   0.02    -0.05  -0.28  -0.15    -0.03   0.18  -0.04
   4   6     0.13  -0.04  -0.03    -0.22  -0.30   0.06     0.03   0.17  -0.04
   5   6     0.09   0.05   0.09    -0.11  -0.09   0.15    -0.30  -0.11   0.08
   6   6     0.05   0.03   0.11     0.14   0.12   0.08     0.12   0.21  -0.04
   7   8    -0.01   0.01  -0.10     0.16  -0.17  -0.18     0.27  -0.27  -0.19
   8   8     0.01   0.04   0.16    -0.03   0.21   0.11    -0.01   0.29   0.09
   9   1    -0.03  -0.03  -0.50     0.04   0.15  -0.16    -0.03  -0.11   0.11
  10   1    -0.45  -0.18   0.23    -0.03   0.12  -0.04     0.01  -0.07   0.03
  11   1     0.41   0.10   0.23     0.17   0.01  -0.04    -0.12  -0.01   0.03
  12   1    -0.04  -0.03  -0.02     0.12   0.06   0.03     0.03  -0.03  -0.02
  13   1    -0.02  -0.02  -0.04    -0.04   0.08   0.16     0.04  -0.03  -0.01
  14   1    -0.04   0.09   0.08     0.05  -0.11  -0.13    -0.07   0.07   0.06
  15   1    -0.08   0.07  -0.08     0.01  -0.15   0.05    -0.02   0.11  -0.07
  16   1     0.07   0.04  -0.04    -0.13  -0.14   0.02     0.02   0.08  -0.04
  17   1     0.05  -0.07  -0.04    -0.06  -0.02   0.07     0.06   0.01  -0.00
  18   1     0.02   0.03   0.03    -0.01  -0.11   0.01    -0.21  -0.23  -0.16
  19   1     0.02   0.03   0.01    -0.12   0.03   0.10    -0.21  -0.08   0.30
  20   1    -0.02  -0.00  -0.03    -0.05  -0.09  -0.05    -0.05  -0.16   0.00
                     10                     11                     12
                        a                      a                      a 
 Frequencies --   461.0822               556.9386               644.8922
 Red. masses --     6.9042                11.3709                 5.4419
 Frc consts  --     0.0000                 0.0000                 0.0000
 IR Inten    --     2.1544                67.6783                73.8182
 Raman Activ --     0.0000                 0.0000                 0.0000
 Depolar     --     0.0000                 0.0000                 0.0000
 Atom AN      X      Y      Z        X      Y      Z        X      Y      Z
   1   7     0.09   0.07  -0.14     0.01   0.01  -0.00     0.00  -0.02  -0.00
   2   6    -0.30  -0.03   0.12    -0.00  -0.00   0.02    -0.03  -0.01   0.03
   3   6     0.18  -0.15   0.41     0.05  -0.03   0.03    -0.02   0.03   0.02
   4   6     0.10   0.29  -0.08     0.12  -0.12   0.02    -0.06   0.19  -0.10
   5   6    -0.15   0.03  -0.10     0.11  -0.25  -0.23    -0.00  -0.06  -0.18
   6   6    -0.06   0.05  -0.12     0.04  -0.02  -0.35     0.25  -0.24   0.27
   7   8    -0.00  -0.09  -0.03     0.13   0.32   0.07     0.17   0.07   0.10
   8   8     0.09  -0.04  -0.00    -0.50   0.08   0.33    -0.21  -0.03   0.03
   9   1     0.03   0.10  -0.12     0.00   0.04  -0.02     0.00   0.01  -0.01
  10   1    -0.00   0.03  -0.03    -0.01   0.00   0.01    -0.01  -0.01   0.00
  11   1     0.14  -0.07  -0.04     0.04  -0.01   0.01     0.03  -0.02   0.00
  12   1    -0.26  -0.05   0.06    -0.01  -0.00   0.01    -0.03  -0.02   0.02
  13   1    -0.04  -0.04  -0.14     0.00   0.01  -0.01    -0.01  -0.01  -0.00
  14   1     0.13  -0.18  -0.09     0.02   0.02   0.03    -0.01  -0.06  -0.06
  15   1     0.17  -0.14   0.30    -0.02  -0.01  -0.02     0.05  -0.01   0.07
  16   1     0.09   0.17  -0.09     0.04  -0.07   0.06    -0.02  -0.03   0.08
  17   1     0.04  -0.04  -0.11     0.00   0.01   0.02    -0.09   0.15  -0.01
  18   1    -0.15  -0.05  -0.12     0.01  -0.20  -0.15    -0.11  -0.00  -0.11
  19   1    -0.04  -0.07   0.11    -0.01  -0.11   0.06    -0.04  -0.03   0.03
  20   1     0.01  -0.07   0.09     0.29   0.13   0.19    -0.16   0.29  -0.66
                     13                     14                     15
                        a                      a                      a 
 Frequencies --   730.8687               781.7192               820.3165
 Red. masses --     9.0320                 4.8367                 6.6960
 Frc consts  --     0.0000                 0.0000                 0.0000
 IR Inten    --   161.6815                23.4908                18.4140
 Raman Activ --     0.0000                 0.0000                 0.0000
 Depolar     --     0.0000                 0.0000                 0.0000
 Atom AN      X      Y      Z        X      Y      Z        X      Y      Z
   1   7     0.00  -0.04   0.01     0.04  -0.08  -0.02     0.04   0.14  -0.03
   2   6    -0.03  -0.01   0.01    -0.08  -0.01  -0.12     0.34   0.05  -0.05
   3   6    -0.06   0.07  -0.04    -0.20   0.16  -0.11     0.08   0.01   0.29
   4   6    -0.06   0.15  -0.06    -0.14   0.13   0.15    -0.27  -0.18   0.04
   5   6    -0.00  -0.01   0.02    -0.04  -0.06   0.21    -0.28  -0.03  -0.04
   6   6     0.29  -0.30   0.50    -0.01  -0.05  -0.19     0.04  -0.08   0.03
   7   8    -0.01   0.15  -0.33     0.21   0.04  -0.01     0.20   0.04  -0.08
   8   8    -0.18  -0.02  -0.17    -0.09  -0.09   0.06    -0.11  -0.03   0.01
   9   1     0.00   0.01   0.01     0.01   0.04   0.06    -0.01  -0.22  -0.03
  10   1     0.03  -0.02  -0.00     0.08  -0.16   0.05    -0.15   0.15  -0.01
  11   1    -0.01  -0.01  -0.00     0.00   0.08   0.05    -0.11   0.10  -0.02
  12   1     0.01  -0.01   0.01     0.23  -0.05  -0.03    -0.20   0.06  -0.02
  13   1    -0.02  -0.01   0.03    -0.08   0.04   0.22     0.16  -0.06  -0.29
  14   1    -0.01  -0.06  -0.09     0.05  -0.13  -0.30    -0.03   0.01   0.14
  15   1     0.06  -0.00   0.07     0.18  -0.02   0.22     0.03   0.06   0.03
  16   1    -0.00   0.01   0.03     0.13   0.30  -0.16     0.02   0.12  -0.13
  17   1    -0.04   0.07  -0.01     0.15  -0.27  -0.05     0.00  -0.25  -0.08
  18   1    -0.07   0.07  -0.00     0.16   0.01   0.18     0.08   0.09   0.14
  19   1    -0.04   0.03   0.02     0.05   0.02  -0.10    -0.08   0.12  -0.22
  20   1     0.31  -0.08   0.44     0.08   0.08  -0.09     0.07   0.04  -0.05
                     16                     17                     18
                        a                      a                      a 
 Frequencies --   872.7577               890.9449               921.6312
 Red. masses --     7.9298                 6.2774                 6.2670
 Frc consts  --     0.0000                 0.0000                 0.0000
 IR Inten    --    20.7859                15.0482                25.4798
 Raman Activ --     0.0000                 0.0000                 0.0000
 Depolar     --     0.0000                 0.0000                 0.0000
 Atom AN      X      Y      Z        X      Y      Z        X      Y      Z
   1   7     0.01  -0.04   0.10     0.13  -0.25   0.09    -0.11  -0.23   0.08
   2   6    -0.05   0.00   0.18    -0.01   0.20   0.17    -0.17   0.10   0.12
   3   6     0.00  -0.10  -0.26    -0.16   0.27  -0.20     0.32   0.14  -0.06
   4   6     0.00   0.22  -0.05     0.04  -0.08  -0.00     0.06  -0.08   0.01
   5   6     0.01   0.21   0.40     0.09  -0.22  -0.11    -0.37  -0.12  -0.12
   6   6    -0.08  -0.11  -0.20     0.01   0.11   0.06    -0.02   0.01   0.04
   7   8     0.26   0.04  -0.07    -0.14  -0.02   0.05     0.14   0.03  -0.06
   8   8    -0.09  -0.23   0.01     0.04   0.17   0.04    -0.02   0.03   0.01
   9   1    -0.00  -0.07  -0.10     0.02  -0.28  -0.08    -0.01   0.31  -0.02
  10   1    -0.10   0.26  -0.09    -0.15   0.23  -0.08     0.15  -0.07  -0.04
  11   1     0.06  -0.24  -0.09    -0.02  -0.21  -0.09     0.22  -0.30  -0.02
  12   1    -0.18   0.13   0.00    -0.22   0.14   0.02    -0.00  -0.03   0.05
  13   1     0.01  -0.12  -0.10     0.03  -0.15  -0.12    -0.03   0.16   0.02
  14   1    -0.08   0.00   0.03     0.05  -0.09  -0.30     0.09   0.14   0.08
  15   1    -0.09  -0.01  -0.16     0.09  -0.08   0.19     0.01   0.07  -0.11
  16   1    -0.17   0.02  -0.11     0.10  -0.03   0.09    -0.03  -0.05   0.00
  17   1     0.07   0.11   0.07     0.06   0.00   0.05     0.12   0.02   0.10
  18   1    -0.04   0.07   0.09     0.12  -0.06   0.02     0.07   0.15   0.17
  19   1     0.06  -0.01   0.14     0.02   0.00  -0.12    -0.05   0.10  -0.32
  20   1     0.17   0.09  -0.05    -0.11  -0.06   0.03    -0.02  -0.02  -0.02
                     19                     20                     21
                        a                      a                      a 
 Frequencies --   973.5943               994.6306              1037.9319
 Red. masses --     6.6204                 7.2620                 5.7543
 Frc consts  --     0.0000                 0.0000                 0.0000
 IR Inten    --    31.3392                65.4634                20.5920
 Raman Activ --     0.0000                 0.0000                 0.0000
 Depolar     --     0.0000                 0.0000                 0.0000
 Atom AN      X      Y      Z        X      Y      Z        X      Y      Z
   1   7    -0.16   0.24   0.17     0.01  -0.30   0.08    -0.18  -0.05  -0.10
   2   6     0.04  -0.35  -0.06     0.01   0.36  -0.09     0.27   0.13   0.15
   3   6     0.06  -0.14  -0.13     0.07   0.05   0.08    -0.09  -0.01  -0.03
   4   6    -0.12   0.19   0.16    -0.26  -0.17   0.11    -0.20   0.16  -0.19
   5   6     0.09  -0.16  -0.15     0.18   0.29  -0.05     0.19  -0.23   0.16
   6   6     0.11   0.02   0.09     0.11  -0.08  -0.02     0.08   0.03  -0.03
   7   8    -0.16  -0.02   0.04    -0.17  -0.06   0.05    -0.11  -0.02   0.05
   8   8     0.04   0.11   0.01     0.01  -0.08  -0.04     0.03   0.06   0.02
   9   1    -0.03   0.18  -0.11     0.01   0.07  -0.03    -0.02   0.28   0.06
  10   1    -0.05   0.30  -0.09     0.07  -0.01  -0.05     0.18  -0.25   0.03
  11   1     0.10  -0.24  -0.08     0.12  -0.25  -0.04     0.12   0.01   0.05
  12   1     0.08   0.10  -0.10     0.06   0.13  -0.04    -0.23  -0.12   0.12
  13   1    -0.00  -0.07   0.04     0.01   0.15  -0.02     0.18   0.17  -0.31
  14   1    -0.13  -0.05   0.10     0.09   0.11   0.04    -0.18  -0.15  -0.00
  15   1     0.15   0.19  -0.16     0.02   0.05  -0.02    -0.06  -0.03  -0.01
  16   1     0.12   0.24  -0.07    -0.01   0.11  -0.13    -0.11   0.03  -0.10
  17   1     0.06  -0.17  -0.06    -0.11  -0.24  -0.14     0.01   0.04  -0.01
  18   1     0.12  -0.12  -0.02    -0.04  -0.18  -0.20     0.17  -0.12   0.08
  19   1     0.06  -0.07  -0.04    -0.13   0.07   0.27     0.10  -0.08  -0.00
  20   1    -0.07  -0.02   0.01     0.10   0.09  -0.04    -0.03  -0.01   0.02
                     22                     23                     24
                        a                      a                      a 
 Frequencies --  1063.7783              1079.3986              1118.7285
 Red. masses --     7.8492                 5.9695                 7.2856
 Frc consts  --     0.0000                 0.0000                 0.0000
 IR Inten    --    59.9605                 9.3048               143.7486
 Raman Activ --     0.0000                 0.0000                 0.0000
 Depolar     --     0.0000                 0.0000                 0.0000
 Atom AN      X      Y      Z        X      Y      Z        X      Y      Z
   1   7    -0.13   0.21   0.01    -0.16   0.05   0.14    -0.04  -0.05   0.03
   2   6     0.06  -0.39   0.22     0.24  -0.07  -0.20     0.13   0.13  -0.21
   3   6     0.07   0.35  -0.15    -0.22   0.12   0.15    -0.28  -0.23   0.14
   4   6     0.02  -0.23  -0.03     0.06  -0.20  -0.12     0.31   0.11   0.08
   5   6    -0.01   0.24   0.02     0.04   0.02   0.13    -0.21   0.07   0.00
   6   6     0.10  -0.04  -0.11    -0.20   0.05  -0.03     0.18  -0.02  -0.11
   7   8    -0.15  -0.10   0.04     0.20   0.09  -0.05    -0.22  -0.19   0.04
   8   8     0.03  -0.06  -0.02    -0.01  -0.10   0.01     0.05   0.08   0.01
   9   1    -0.02   0.12   0.01    -0.03   0.22  -0.06    -0.01   0.06  -0.02
  10   1     0.02   0.01   0.01     0.06   0.12  -0.07     0.02   0.03  -0.03
  11   1     0.02   0.05   0.02     0.16  -0.25  -0.04     0.05  -0.09  -0.02
  12   1    -0.13  -0.23   0.12     0.07   0.02  -0.07     0.07   0.12  -0.10
  13   1     0.05  -0.07  -0.06     0.08   0.09  -0.07     0.03   0.03  -0.03
  14   1     0.07   0.01  -0.17    -0.04  -0.13  -0.13    -0.17  -0.18   0.02
  15   1     0.14   0.04   0.10     0.16   0.06   0.17    -0.09  -0.08   0.05
  16   1    -0.01  -0.08   0.00     0.17  -0.14   0.22     0.09  -0.04   0.13
  17   1     0.07  -0.01   0.07    -0.23   0.05  -0.13     0.14   0.13   0.14
  18   1     0.04  -0.09  -0.06    -0.24   0.21  -0.01     0.09   0.00   0.08
  19   1    -0.27   0.26   0.10     0.06  -0.05   0.06    -0.20   0.22  -0.09
  20   1     0.17   0.12  -0.05    -0.09  -0.08   0.03     0.30   0.20  -0.07
                     25                     26                     27
                        a                      a                      a 
 Frequencies --  1133.0135              1172.9382              1193.2106
 Red. masses --     8.4625                 4.1864                 3.1433
 Frc consts  --     0.0000                 0.0000                 0.0000
 IR Inten    --    30.5793                52.5487                12.0878
 Raman Activ --     0.0000                 0.0000                 0.0000
 Depolar     --     0.0000                 0.0000                 0.0000
 Atom AN      X      Y      Z        X      Y      Z        X      Y      Z
   1   7     0.07   0.01   0.11    -0.00  -0.01  -0.05     0.05  -0.07  -0.14
   2   6    -0.14  -0.06  -0.19    -0.01   0.00   0.13    -0.16   0.11   0.19
   3   6     0.18   0.18   0.28     0.04   0.00  -0.15     0.15  -0.09  -0.09
   4   6    -0.17   0.04  -0.45    -0.05  -0.07   0.11    -0.02   0.00  -0.10
   5   6     0.06  -0.23   0.27    -0.09  -0.07   0.02     0.06  -0.06   0.14
   6   6     0.12   0.02  -0.12     0.05   0.05  -0.04    -0.03   0.01  -0.07
   7   8    -0.16  -0.11   0.05    -0.16  -0.24  -0.01     0.01   0.01   0.01
   8   8     0.04   0.09   0.03     0.11   0.23   0.04    -0.01  -0.06  -0.00
   9   1     0.01  -0.09  -0.04     0.00  -0.00   0.03     0.01  -0.04   0.05
  10   1    -0.08   0.15  -0.02     0.00  -0.05   0.01     0.02  -0.14   0.03
  11   1    -0.03  -0.07  -0.04    -0.01   0.06   0.02    -0.06   0.14   0.03
  12   1     0.18  -0.01  -0.06    -0.08   0.00   0.04    -0.07   0.23  -0.03
  13   1    -0.09  -0.00   0.14     0.01  -0.02  -0.01    -0.05  -0.06   0.04
  14   1     0.07   0.06   0.06     0.05   0.06  -0.01    -0.28  -0.18   0.13
  15   1     0.06   0.06   0.07     0.06   0.05  -0.05     0.33   0.33  -0.15
  16   1    -0.20  -0.13  -0.07     0.10   0.04   0.05     0.32   0.01   0.26
  17   1    -0.16   0.16  -0.09    -0.18  -0.09  -0.15    -0.18   0.02  -0.14
  18   1     0.16  -0.05   0.15    -0.31   0.33   0.02     0.02  -0.01   0.04
  19   1    -0.00   0.03  -0.05     0.30  -0.30  -0.04    -0.23   0.24  -0.00
  20   1     0.15   0.09  -0.02     0.43   0.27  -0.10    -0.03  -0.02   0.01
                     28                     29                     30
                        a                      a                      a 
 Frequencies --  1239.5116              1249.8482              1264.2152
 Red. masses --     2.8893                 6.1717                 3.4108
 Frc consts  --     0.0000                 0.0000                 0.0000
 IR Inten    --    30.8058                55.2592                34.1107
 Raman Activ --     0.0000                 0.0000                 0.0000
 Depolar     --     0.0000                 0.0000                 0.0000
 Atom AN      X      Y      Z        X      Y      Z        X      Y      Z
   1   7    -0.20  -0.02  -0.17    -0.03  -0.00  -0.04     0.05  -0.03   0.00
   2   6     0.16  -0.05   0.11    -0.02   0.01   0.00    -0.09   0.06  -0.04
   3   6     0.01   0.08   0.09     0.01   0.07   0.11    -0.00   0.09   0.08
   4   6     0.02  -0.02  -0.01    -0.02  -0.13  -0.12     0.02  -0.18   0.02
   5   6    -0.03   0.00   0.01     0.01   0.11  -0.12    -0.01   0.08  -0.04
   6   6     0.14  -0.04  -0.08    -0.46   0.10   0.32     0.29  -0.08  -0.17
   7   8    -0.04   0.03   0.03     0.16  -0.08  -0.11    -0.10   0.04   0.06
   8   8    -0.02  -0.01   0.01     0.07   0.02  -0.03    -0.03   0.02   0.02
   9   1    -0.04   0.18   0.07    -0.01   0.02  -0.00     0.01  -0.04  -0.00
  10   1     0.11  -0.15  -0.02     0.06  -0.06  -0.00    -0.03   0.02   0.01
  11   1     0.09   0.06   0.05     0.02   0.01   0.01    -0.03   0.02  -0.00
  12   1    -0.00   0.55  -0.20     0.02   0.15  -0.06     0.01  -0.01   0.00
  13   1    -0.02  -0.55   0.14    -0.02  -0.09   0.05    -0.03   0.06   0.04
  14   1     0.14   0.10  -0.03    -0.16  -0.15   0.03    -0.32  -0.28   0.06
  15   1    -0.05  -0.08   0.08     0.17   0.14   0.04     0.26   0.23   0.03
  16   1    -0.13  -0.02  -0.09    -0.10  -0.08  -0.05    -0.29  -0.08  -0.22
  17   1    -0.02   0.03   0.00     0.22   0.03   0.17     0.28  -0.01   0.24
  18   1    -0.03   0.05   0.02     0.19  -0.28  -0.08    -0.25   0.24  -0.04
  19   1     0.02  -0.02  -0.00     0.16  -0.17   0.03     0.13  -0.13   0.03
  20   1    -0.10  -0.06   0.03     0.30   0.18  -0.09    -0.17  -0.10   0.05
                     31                     32                     33
                        a                      a                      a 
 Frequencies --  1314.0335              1325.4286              1354.9556
 Red. masses --     3.8765                 5.0556                 4.2467
 Frc consts  --     0.0000                 0.0000                 0.0000
 IR Inten    --     7.9612                68.1710                 7.6203
 Raman Activ --     0.0000                 0.0000                 0.0000
 Depolar     --     0.0000                 0.0000                 0.0000
 Atom AN      X      Y      Z        X      Y      Z        X      Y      Z
   1   7    -0.13   0.12   0.04    -0.04   0.04   0.02    -0.04   0.03   0.01
   2   6     0.06   0.25  -0.18     0.02   0.14  -0.05     0.04   0.09  -0.05
   3   6     0.21   0.08  -0.03     0.03   0.01  -0.06     0.01  -0.13   0.05
   4   6    -0.04   0.02   0.09     0.17  -0.08   0.01    -0.37  -0.02  -0.29
   5   6     0.15  -0.14  -0.02    -0.38   0.30   0.03    -0.00   0.12   0.05
   6   6    -0.12   0.04   0.03     0.22  -0.08  -0.04     0.12  -0.02  -0.07
   7   8     0.03  -0.02  -0.01    -0.04   0.04   0.02    -0.04   0.01   0.02
   8   8     0.02   0.02   0.00    -0.05  -0.02  -0.00    -0.01  -0.01   0.01
   9   1    -0.04  -0.14   0.02    -0.02  -0.06   0.00    -0.01  -0.05   0.01
  10   1     0.11  -0.05   0.00     0.03  -0.01   0.00     0.03  -0.01  -0.00
  11   1     0.18  -0.16  -0.01     0.05  -0.05  -0.00     0.05  -0.04   0.00
  12   1    -0.07  -0.36   0.13    -0.05  -0.21   0.09    -0.01  -0.12   0.05
  13   1    -0.09  -0.46   0.23    -0.03  -0.20   0.06    -0.02  -0.16   0.05
  14   1    -0.24  -0.20   0.06    -0.09  -0.07   0.01     0.16   0.17   0.05
  15   1    -0.16  -0.14  -0.02     0.07   0.04  -0.01     0.01  -0.00  -0.01
  16   1    -0.03   0.03  -0.04     0.06  -0.06   0.08     0.42   0.04   0.33
  17   1    -0.02  -0.07  -0.04    -0.26   0.01  -0.19     0.41   0.03   0.33
  18   1    -0.15   0.10  -0.05     0.36  -0.26   0.10    -0.03   0.05   0.01
  19   1    -0.13   0.14  -0.04     0.27  -0.29   0.06     0.11  -0.12   0.08
  20   1     0.05   0.03  -0.01    -0.11  -0.06   0.03    -0.04  -0.02   0.01
                     34                     35                     36
                        a                      a                      a 
 Frequencies --  1359.1892              1380.7066              1419.6417
 Red. masses --     3.8851                 2.4745                 1.7766
 Frc consts  --     0.0000                 0.0000                 0.0000
 IR Inten    --    10.5045               149.3274               110.3330
 Raman Activ --     0.0000                 0.0000                 0.0000
 Depolar     --     0.0000                 0.0000                 0.0000
 Atom AN      X      Y      Z        X      Y      Z        X      Y      Z
   1   7    -0.09   0.08   0.02    -0.09   0.23  -0.10     0.03  -0.13  -0.17
   2   6     0.06   0.15   0.01    -0.10  -0.15   0.07     0.02   0.03  -0.06
   3   6    -0.32  -0.28  -0.00     0.04   0.07  -0.02    -0.03  -0.04  -0.02
   4   6     0.14   0.07  -0.00    -0.01  -0.02   0.00     0.01   0.01  -0.00
   5   6     0.05  -0.09  -0.01    -0.03   0.03   0.01     0.01  -0.01  -0.03
   6   6    -0.04   0.01   0.01     0.04  -0.02  -0.02    -0.04  -0.00   0.02
   7   8     0.01  -0.01  -0.00    -0.01   0.00   0.01     0.01  -0.00  -0.00
   8   8     0.00   0.01   0.00    -0.01   0.02  -0.00     0.01   0.00  -0.02
   9   1    -0.03  -0.20  -0.02    -0.04  -0.57   0.28     0.02   0.19   0.68
  10   1     0.17  -0.07  -0.02     0.18  -0.16   0.01    -0.44   0.30  -0.02
  11   1     0.14  -0.06   0.02     0.45  -0.20   0.04     0.31   0.08   0.16
  12   1    -0.05  -0.18   0.10     0.12   0.19  -0.09    -0.06  -0.09   0.03
  13   1     0.00  -0.13  -0.00     0.04   0.26  -0.13    -0.02  -0.02   0.06
  14   1     0.30   0.33   0.01    -0.06  -0.03   0.02    -0.01   0.06   0.06
  15   1     0.43   0.34  -0.01    -0.07  -0.08   0.04     0.08   0.01   0.05
  16   1    -0.20  -0.04  -0.14     0.03   0.01   0.02    -0.03  -0.01  -0.01
  17   1    -0.00   0.04  -0.01    -0.01   0.01   0.00     0.01  -0.01  -0.00
  18   1    -0.01   0.01  -0.00     0.01  -0.01   0.00     0.03   0.01   0.02
  19   1    -0.08   0.09  -0.05     0.02  -0.02   0.00    -0.03  -0.00   0.05
  20   1     0.01   0.01  -0.00    -0.01  -0.01   0.01     0.02   0.00   0.00
                     37                     38                     39
                        a                      a                      a 
 Frequencies --  1449.3484              1474.6780              1491.0392
 Red. masses --     1.7918                 2.1230                 1.8552
 Frc consts  --     0.0000                 0.0000                 0.0000
 IR Inten    --    83.9062                 2.5593                25.5515
 Raman Activ --     0.0000                 0.0000                 0.0000
 Depolar     --     0.0000                 0.0000                 0.0000
 Atom AN      X      Y      Z        X      Y      Z        X      Y      Z
   1   7    -0.12  -0.20   0.05     0.01   0.01  -0.01     0.02   0.03   0.01
   2   6    -0.01  -0.02  -0.02     0.09  -0.04  -0.07     0.17  -0.09  -0.13
   3   6     0.03   0.01   0.01    -0.01  -0.01  -0.02    -0.01  -0.00  -0.05
   4   6    -0.01  -0.00   0.00    -0.00  -0.00  -0.00    -0.00   0.06  -0.02
   5   6    -0.00   0.01   0.01    -0.02   0.09   0.27    -0.00  -0.03  -0.11
   6   6     0.01   0.00  -0.00     0.06  -0.01  -0.01    -0.01   0.01  -0.00
   7   8     0.00   0.00   0.00    -0.01   0.00   0.01     0.00   0.00   0.00
   8   8    -0.00  -0.00   0.00    -0.01  -0.02  -0.00    -0.00  -0.00   0.00
   9   1    -0.02  -0.10  -0.17     0.01   0.00   0.04     0.00  -0.06  -0.05
  10   1     0.38   0.41  -0.41    -0.03  -0.03   0.03     0.04  -0.08   0.03
  11   1     0.21   0.46   0.38     0.00  -0.03  -0.02    -0.03  -0.06  -0.05
  12   1    -0.07  -0.01   0.00    -0.26   0.05  -0.01    -0.56   0.13  -0.03
  13   1    -0.03   0.07   0.07    -0.05   0.13   0.24    -0.11   0.29   0.50
  14   1    -0.01  -0.04  -0.03     0.00   0.04   0.03    -0.03   0.08   0.10
  15   1    -0.05  -0.01  -0.03     0.01  -0.02   0.03     0.05  -0.07   0.11
  16   1     0.02   0.00   0.01     0.03   0.02   0.01    -0.06  -0.10   0.08
  17   1    -0.00  -0.00  -0.00    -0.01   0.02   0.01     0.05  -0.12  -0.05
  18   1    -0.01  -0.01  -0.01    -0.28  -0.38  -0.36     0.15   0.15   0.16
  19   1     0.01  -0.00  -0.02     0.22   0.14  -0.56    -0.09  -0.06   0.24
  20   1    -0.00  -0.00  -0.00    -0.01  -0.01   0.01     0.00   0.00  -0.00
                     40                     41                     42
                        a                      a                      a 
 Frequencies --  1492.8066              1500.7183              1771.5672
 Red. masses --     1.8043                 1.9020                13.2285
 Frc consts  --     0.0000                 0.0000                 0.0000
 IR Inten    --    11.3384                 5.4747               535.1443
 Raman Activ --     0.0000                 0.0000                 0.0000
 Depolar     --     0.0000                 0.0000                 0.0000
 Atom AN      X      Y      Z        X      Y      Z        X      Y      Z
   1   7     0.00   0.03  -0.02     0.00   0.01  -0.00     0.02   0.00   0.00
   2   6     0.03  -0.01  -0.00     0.04  -0.01  -0.04     0.00  -0.01  -0.00
   3   6     0.01  -0.01   0.26    -0.00  -0.02   0.05    -0.00   0.00  -0.00
   4   6     0.00   0.05  -0.01    -0.00  -0.27   0.03    -0.01   0.00  -0.01
   5   6    -0.01   0.01  -0.01     0.00  -0.03  -0.04    -0.00   0.06   0.03
   6   6     0.01  -0.02  -0.01    -0.02  -0.01   0.01    -0.28  -0.73  -0.14
   7   8    -0.01  -0.00   0.00     0.00   0.00  -0.00     0.04   0.05  -0.00
   8   8     0.00   0.01   0.00     0.00   0.01   0.00     0.22   0.54   0.09
   9   1    -0.00  -0.04   0.09     0.00  -0.02   0.01    -0.04   0.02  -0.02
  10   1    -0.05  -0.02   0.03    -0.01  -0.01   0.01     0.01  -0.00  -0.00
  11   1     0.04  -0.04  -0.01     0.01  -0.02  -0.01    -0.00   0.00   0.00
  12   1    -0.13   0.00   0.01    -0.14  -0.00   0.01    -0.00  -0.00   0.00
  13   1    -0.03   0.03   0.11    -0.03   0.05   0.13     0.00   0.00   0.00
  14   1     0.25  -0.29  -0.51     0.04  -0.05  -0.07     0.00   0.01   0.01
  15   1    -0.24   0.33  -0.52    -0.03   0.05  -0.08     0.01  -0.01   0.01
  16   1    -0.05  -0.09   0.08     0.25   0.45  -0.38     0.01  -0.00   0.02
  17   1     0.06  -0.11  -0.04    -0.23   0.56   0.24    -0.00  -0.00  -0.00
  18   1     0.01   0.00   0.01     0.04   0.04   0.05     0.00  -0.04  -0.01
  19   1     0.00  -0.01   0.01    -0.03  -0.02   0.07    -0.04   0.03   0.01
  20   1    -0.00  -0.00   0.00     0.00   0.00   0.00    -0.08  -0.05   0.02
                     43                     44                     45
                        a                      a                      a 
 Frequencies --  2921.9054              2925.9964              2936.5861
 Red. masses --     1.9306                 1.9286                 1.9478
 Frc consts  --     0.0000                 0.0000                 0.0000
 IR Inten    --     0.5611                 3.8637                41.1671
 Raman Activ --     0.0000                 0.0000                 0.0000
 Depolar     --     0.0000                 0.0000                 0.0000
 Atom AN      X      Y      Z        X      Y      Z        X      Y      Z
   1   7    -0.00   0.00   0.00     0.01   0.00   0.00    -0.04  -0.00   0.00
   2   6    -0.05  -0.01  -0.03    -0.07  -0.01  -0.04     0.20   0.04   0.17
   3   6     0.14  -0.16   0.01     0.11  -0.12   0.04     0.07  -0.07  -0.02
   4   6    -0.11   0.03   0.14     0.14  -0.00  -0.17     0.02   0.01  -0.03
   5   6     0.01   0.01  -0.01    -0.01  -0.02   0.01    -0.00  -0.00  -0.00
   6   6     0.00  -0.00  -0.00    -0.00   0.00   0.00    -0.00  -0.01  -0.00
   7   8     0.00   0.00  -0.00    -0.00  -0.00   0.00     0.00   0.00  -0.00
   8   8     0.00   0.00   0.00    -0.00  -0.00  -0.00     0.00   0.00   0.00
   9   1    -0.00   0.00  -0.00    -0.06   0.00  -0.00     0.16  -0.01  -0.00
  10   1    -0.00  -0.00  -0.00    -0.00  -0.00  -0.01     0.00   0.01   0.02
  11   1     0.00   0.00  -0.00     0.00   0.00  -0.00    -0.00  -0.00  -0.00
  12   1    -0.00   0.02   0.04    -0.00   0.03   0.07    -0.01  -0.17  -0.42
  13   1     0.18  -0.01   0.05     0.24  -0.01   0.07    -0.72   0.05  -0.19
  14   1    -0.30   0.29  -0.31    -0.30   0.29  -0.31    -0.08   0.08  -0.09
  15   1    -0.23   0.30   0.31    -0.10   0.13   0.15    -0.14   0.18   0.18
  16   1     0.23  -0.34  -0.25    -0.19   0.29   0.21    -0.01   0.02   0.01
  17   1     0.19   0.20  -0.26    -0.30  -0.30   0.41    -0.07  -0.07   0.10
  18   1    -0.03  -0.03   0.05     0.04   0.04  -0.07    -0.00  -0.00   0.00
  19   1    -0.01  -0.01  -0.01     0.02   0.02   0.01     0.01   0.01   0.00
  20   1     0.00   0.00   0.00    -0.00   0.00   0.00    -0.00  -0.00  -0.00
                     46                     47                     48
                        a                      a                      a 
 Frequencies --  2948.7528              2954.6341              2956.9544
 Red. masses --     1.7371                 1.5569                 1.7484
 Frc consts  --     0.0000                 0.0000                 0.0000
 IR Inten    --     4.2440                21.6366                14.8338
 Raman Activ --     0.0000                 0.0000                 0.0000
 Depolar     --     0.0000                 0.0000                 0.0000
 Atom AN      X      Y      Z        X      Y      Z        X      Y      Z
   1   7    -0.01  -0.00  -0.00     0.03  -0.00   0.00     0.00  -0.00  -0.00
   2   6    -0.00  -0.01  -0.01    -0.06   0.02   0.01     0.01  -0.00  -0.00
   3   6    -0.02   0.03  -0.01    -0.00  -0.02  -0.20    -0.02   0.03   0.05
   4   6    -0.02   0.15   0.00     0.02   0.03  -0.04     0.00   0.15  -0.02
   5   6    -0.15  -0.14   0.03     0.04   0.04   0.01     0.14   0.14  -0.02
   6   6    -0.01  -0.01  -0.00     0.00   0.01   0.00     0.01   0.01  -0.00
   7   8     0.00   0.00   0.00    -0.00  -0.00  -0.00    -0.00  -0.00  -0.00
   8   8     0.00   0.00  -0.00    -0.00  -0.00  -0.00    -0.00  -0.00  -0.00
   9   1     0.04  -0.00  -0.00    -0.13   0.01  -0.00    -0.00  -0.00   0.00
  10   1    -0.00   0.00   0.00     0.00   0.00  -0.00    -0.00  -0.00   0.00
  11   1    -0.00   0.00  -0.00     0.00   0.00  -0.00     0.00   0.00  -0.00
  12   1     0.00   0.02   0.05    -0.02  -0.06  -0.13     0.00   0.01   0.03
  13   1     0.00  -0.00  -0.00     0.23  -0.01   0.07    -0.04   0.00  -0.01
  14   1     0.07  -0.06   0.07     0.35  -0.34   0.32    -0.05   0.05  -0.04
  15   1     0.01  -0.01  -0.02    -0.34   0.42   0.38     0.13  -0.16  -0.15
  16   1     0.27  -0.37  -0.31     0.01  -0.01  -0.02     0.24  -0.32  -0.27
  17   1    -0.21  -0.18   0.29    -0.10  -0.09   0.13    -0.24  -0.21   0.33
  18   1     0.19   0.17  -0.32    -0.02  -0.01   0.04    -0.16  -0.15   0.29
  19   1     0.33   0.35   0.21    -0.13  -0.14  -0.08    -0.34  -0.36  -0.21
  20   1    -0.00  -0.00  -0.00    -0.00   0.00   0.00    -0.00   0.00   0.00
                     49                     50                     51
                        a                      a                      a 
 Frequencies --  2968.2899              2973.4581              2975.2110
 Red. masses --     1.7504                 1.6200                 1.6945
 Frc consts  --     0.0000                 0.0000                 0.0000
 IR Inten    --   407.4400               190.8555               279.4888
 Raman Activ --     0.0000                 0.0000                 0.0000
 Depolar     --     0.0000                 0.0000                 0.0000
 Atom AN      X      Y      Z        X      Y      Z        X      Y      Z
   1   7    -0.17  -0.01   0.00     0.12   0.00   0.00     0.16   0.00   0.00
   2   6     0.04  -0.07  -0.15     0.06  -0.04  -0.05     0.08  -0.05  -0.08
   3   6     0.01  -0.02  -0.05     0.01  -0.01   0.00     0.01  -0.01  -0.03
   4   6     0.01  -0.01  -0.01    -0.01  -0.01   0.02     0.01   0.00  -0.02
   5   6     0.01   0.02   0.01    -0.00   0.01   0.17     0.00  -0.01  -0.13
   6   6    -0.01  -0.02  -0.00     0.00   0.01   0.01     0.01   0.02  -0.00
   7   8     0.00   0.01  -0.00    -0.00  -0.00  -0.00    -0.00  -0.00   0.00
   8   8     0.01   0.01   0.00    -0.01  -0.01  -0.00    -0.01  -0.01  -0.00
   9   1     0.61  -0.03  -0.00    -0.43   0.02   0.00    -0.57   0.03   0.00
  10   1    -0.01   0.01   0.02    -0.00  -0.01  -0.03    -0.00  -0.02  -0.04
  11   1     0.00   0.01  -0.02     0.00  -0.01   0.01     0.01  -0.01   0.01
  12   1     0.06   0.25   0.62     0.03   0.10   0.25     0.04   0.15   0.38
  13   1    -0.20   0.00  -0.08    -0.25   0.01  -0.08    -0.30   0.02  -0.10
  14   1     0.06  -0.07   0.05    -0.02   0.02  -0.02     0.02  -0.02   0.02
  15   1    -0.11   0.14   0.13    -0.02   0.02   0.02    -0.06   0.08   0.07
  16   1    -0.03   0.04   0.03     0.01  -0.01  -0.01    -0.01   0.01   0.01
  17   1    -0.02  -0.02   0.02     0.04   0.04  -0.05    -0.03  -0.03   0.04
  18   1    -0.00  -0.00   0.01     0.31   0.29  -0.48    -0.23  -0.21   0.34
  19   1    -0.05  -0.05  -0.03    -0.29  -0.31  -0.15     0.22   0.23   0.11
  20   1     0.00  -0.01  -0.00    -0.00   0.01   0.00     0.00   0.01   0.00
                     52                     53                     54
                        a                      a                      a 
 Frequencies --  3220.2736              3236.7572              3423.9475
 Red. masses --     1.9585                 1.5705                 1.8542
 Frc consts  --     0.0000                 0.0000                 0.0000
 IR Inten    --    61.9991                38.2440                73.5658
 Raman Activ --     0.0000                 0.0000                 0.0000
 Depolar     --     0.0000                 0.0000                 0.0000
 Atom AN      X      Y      Z        X      Y      Z        X      Y      Z
   1   7    -0.05  -0.07   0.26     0.09   0.15   0.12    -0.00  -0.00   0.00
   2   6    -0.00  -0.00   0.01    -0.00   0.01   0.01    -0.00  -0.00  -0.00
   3   6     0.00   0.00   0.00    -0.00  -0.00  -0.00    -0.00   0.00   0.00
   4   6    -0.00  -0.00   0.00    -0.00   0.00   0.00     0.00  -0.00   0.00
   5   6    -0.00  -0.00   0.00    -0.00   0.00   0.00    -0.00   0.00  -0.00
   6   6    -0.00  -0.00   0.00     0.00  -0.00  -0.00     0.01  -0.00  -0.01
   7   8     0.00   0.00  -0.00    -0.00   0.00   0.00     0.10  -0.19  -0.10
   8   8     0.00   0.00  -0.00    -0.00   0.00   0.00    -0.00  -0.00  -0.00
   9   1    -0.02  -0.00   0.02     0.08   0.01   0.01     0.01   0.00  -0.00
  10   1    -0.12  -0.17  -0.25    -0.30  -0.42  -0.75    -0.00  -0.00  -0.00
  11   1     0.31   0.43  -0.73    -0.11  -0.15   0.29     0.00   0.00  -0.00
  12   1    -0.00  -0.00  -0.01    -0.00  -0.01  -0.02     0.00  -0.00   0.00
  13   1    -0.00  -0.00  -0.00     0.00  -0.00  -0.00     0.00  -0.00   0.00
  14   1    -0.00   0.00  -0.00     0.00  -0.00   0.00    -0.00   0.00  -0.00
  15   1     0.00  -0.00  -0.01    -0.00   0.00   0.00     0.00  -0.00  -0.00
  16   1    -0.00  -0.00  -0.00     0.00  -0.00  -0.00    -0.00   0.00   0.00
  17   1     0.00   0.00  -0.00    -0.00  -0.00   0.00     0.00   0.00  -0.00
  18   1    -0.00  -0.00  -0.00     0.00   0.00  -0.00     0.00  -0.00   0.00
  19   1     0.00   0.00   0.00    -0.00  -0.00  -0.00     0.00   0.00   0.00
  20   1     0.00  -0.00  -0.00     0.00  -0.00  -0.00    -0.43   0.75   0.43
