 Entering Gaussian System
 *********************************************
 Gaussian 98:
 frequency output generated by the xtb code
 *********************************************
                         Standard orientation:
 --------------------------------------------------------------------
  Center     Atomic     Atomic              Coordinates (Angstroms)
  Number     Number      Type              X           Y           Z
 --------------------------------------------------------------------
    1          7             0       -8.594923   -1.842387   -0.798537
    2          6             0       -8.855585   -0.374655   -0.771839
    3          6             0       -8.261408    0.311054    0.461428
    4          6             0       -6.771527    0.378266    0.462553
    5          6             0       -6.028030    1.381023    1.000589
    6          6             0       -4.624541    1.189836    0.887254
    7          6             0       -4.269879    0.029253    0.258385
    8          6             0       -2.925792   -0.420655    0.015541
    9          6             0       -2.578401   -1.576678   -0.628148
   10          6             0       -1.184562   -1.787965   -0.749103
   11          6             0       -0.611021   -2.978050   -1.436573
   12          6             0       -0.434015   -0.775838   -0.182777
   13          6             0        1.021236   -0.693686   -0.149122
   14          6             0        1.800792   -1.750409    0.286687
   15          6             0        3.193523   -1.676366    0.360382
   16          6             0        3.902477   -0.546100   -0.003943
   17          6             0        5.353228   -0.478408    0.116602
   18          6             0        6.261572   -1.470783   -0.182969
   19          6             0        5.913543   -2.807853   -0.740306
   20          6             0        7.608145   -1.088950    0.087775
   21          6             0        7.739334    0.168960    0.564453
   22         16             0        6.202668    0.933609    0.699607
   23          6             0        3.150082    0.584063   -0.483152
   24          7             0        3.625166    1.730590   -0.930146
   25         16             0        2.358649    2.660135   -1.400203
   26          7             0        1.155475    1.595822   -1.068287
   27          6             0        1.700551    0.507900   -0.560577
   28         16             0       -1.491966    0.428309    0.516035
   29         16             0       -5.713846   -0.830031   -0.204079
   30         17             0        0.949618    2.062679    2.115423
   31          1             0       -7.581724   -2.007982   -0.741090
   32          1             0       -8.946339   -2.286336   -1.656795
   33          1             0       -9.029643   -2.308483    0.007776
   34          1             0       -9.937865   -0.203429   -0.818875
   35          1             0       -8.442876    0.088221   -1.675581
   36          1             0       -8.589987   -0.214673    1.363690
   37          1             0       -8.657442    1.329106    0.551898
   38          1             0       -6.468594    2.242137    1.478569
   39          1             0       -3.897016    1.890583    1.265570
   40          1             0       -3.309156   -2.265255   -1.019775
   41          1             0        0.356599   -2.745595   -1.881297
   42          1             0       -1.268315   -3.319778   -2.236240
   43          1             0       -0.476003   -3.803619   -0.737502
   44          1             0        1.305868   -2.647696    0.614480
   45          1             0        3.737140   -2.516638    0.754701
   46          1             0        5.752502   -3.533230    0.057106
   47          1             0        6.715869   -3.184028   -1.375628
   48          1             0        5.010201   -2.757669   -1.348223
   49          1             0        8.442721   -1.751965   -0.081076
   50          1             0        8.665867    0.643116    0.826319
 --------------------------------------------------------------------
     1 basis functions        1 primitive gaussians
     1 alpha electrons        1 beta electrons

 Harmonic frequencies (cm**-1), IR intensities (km*mol⁻¹),
 Raman scattering activities (A**4/amu), Raman depolarization ratios,
 reduced masses (AMU), force constants (mDyne/A) and normal coordinates:
                      1                      2                      3
                        a                      a                      a 
 Frequencies --   -35.4243                17.1183                29.2812
 Red. masses --    15.9107                30.2698                23.1129
 Frc consts  --     0.0000                 0.0000                 0.0000
 IR Inten    --     0.8180                13.6851                13.0194
 Raman Activ --     0.0000                 0.0000                 0.0000
 Depolar     --     0.0000                 0.0000                 0.0000
 Atom AN      X      Y      Z        X      Y      Z        X      Y      Z
   1   7    -0.01  -0.03   0.06    -0.00   0.02  -0.02    -0.05   0.06   0.12
   2   6     0.01  -0.02   0.03    -0.01   0.02  -0.04    -0.01   0.06   0.10
   3   6    -0.01  -0.02   0.03    -0.01   0.04  -0.05     0.01   0.06   0.09
   4   6    -0.01  -0.03   0.06    -0.01   0.05  -0.05     0.02   0.02   0.09
   5   6    -0.01  -0.10   0.18    -0.02   0.08  -0.10     0.04  -0.05   0.18
   6   6    -0.01  -0.09   0.16    -0.02   0.07  -0.09     0.04  -0.07   0.14
   7   6    -0.01  -0.01   0.02    -0.01   0.04  -0.02     0.01  -0.01   0.01
   8   6    -0.01   0.02  -0.03    -0.01   0.02   0.01    -0.01  -0.01  -0.04
   9   6    -0.00   0.11  -0.19    -0.01  -0.03   0.09    -0.03  -0.01  -0.07
  10   6    -0.00   0.11  -0.18    -0.01  -0.03   0.09    -0.04  -0.03  -0.09
  11   6     0.02   0.18  -0.28    -0.02  -0.07   0.16    -0.06  -0.03  -0.11
  12   6    -0.01   0.03  -0.03    -0.01   0.02   0.01    -0.01  -0.05  -0.09
  13   6    -0.00   0.02  -0.01    -0.01   0.03  -0.00    -0.01  -0.06  -0.09
  14   6    -0.02   0.01  -0.00    -0.01   0.04   0.02    -0.01  -0.06  -0.09
  15   6    -0.02  -0.00   0.01    -0.01   0.04   0.01    -0.01  -0.03  -0.04
  16   6    -0.00  -0.02  -0.01    -0.01   0.04  -0.02    -0.03  -0.01   0.00
  17   6    -0.01  -0.02   0.01    -0.01   0.05  -0.02    -0.03   0.04   0.09
  18   6    -0.00  -0.08   0.22    -0.00   0.04   0.06     0.02   0.10   0.06
  19   6     0.02  -0.17   0.41     0.02  -0.00   0.14     0.09   0.12  -0.04
  20   6    -0.01  -0.05   0.20    -0.01   0.07   0.05    -0.01   0.14   0.14
  21   6    -0.01   0.04  -0.04    -0.02   0.11  -0.04    -0.08   0.11   0.25
  22  16    -0.01   0.14  -0.41    -0.05   0.17  -0.19    -0.21   0.04   0.41
  23   6     0.01  -0.01  -0.02    -0.02   0.02  -0.04    -0.03  -0.03  -0.04
  24   7     0.02  -0.02  -0.02    -0.02   0.02  -0.05    -0.03  -0.04  -0.06
  25  16     0.05  -0.00  -0.03    -0.04   0.03  -0.08    -0.05  -0.10  -0.18
  26   7     0.02   0.01  -0.02    -0.03   0.02  -0.02    -0.03  -0.08  -0.13
  27   6     0.01   0.01  -0.02    -0.02   0.02  -0.03    -0.02  -0.05  -0.09
  28  16    -0.02  -0.11   0.20    -0.02   0.10  -0.11     0.03  -0.08  -0.08
  29  16    -0.02   0.08  -0.14    -0.02   0.01   0.05    -0.03   0.12  -0.10
  30  17     0.01  -0.02  -0.01     0.30  -0.74   0.25     0.41  -0.08  -0.25
  31   1    -0.01  -0.01   0.03    -0.00   0.01  -0.01    -0.01   0.01   0.05
  32   1     0.01  -0.01   0.01    -0.01   0.00  -0.00    -0.01   0.02   0.03
  33   1    -0.02  -0.00   0.01     0.00   0.01   0.00    -0.03   0.02   0.03
  34   1     0.00  -0.00   0.00    -0.00   0.00  -0.01    -0.00   0.02   0.03
  35   1     0.01  -0.01   0.01    -0.01   0.00  -0.01     0.00   0.01   0.03
  36   1    -0.01  -0.00   0.01    -0.00   0.02  -0.01     0.00   0.02   0.03
  37   1    -0.00  -0.00   0.00    -0.00   0.01  -0.02     0.01   0.02   0.03
  38   1    -0.00  -0.04   0.08    -0.01   0.03  -0.04     0.02  -0.03   0.08
  39   1    -0.00  -0.04   0.07    -0.01   0.03  -0.04     0.02  -0.03   0.06
  40   1    -0.00   0.05  -0.09    -0.00  -0.02   0.04    -0.01   0.00  -0.02
  41   1     0.01   0.07  -0.07    -0.01  -0.03   0.04    -0.02  -0.01  -0.03
  42   1     0.01   0.07  -0.09    -0.01  -0.03   0.05    -0.02  -0.00  -0.03
  43   1     0.01   0.04  -0.10    -0.01  -0.01   0.06    -0.02  -0.01  -0.03
  44   1    -0.01   0.01  -0.00    -0.00   0.01   0.01    -0.00  -0.02  -0.03
  45   1    -0.01   0.00   0.01    -0.00   0.02   0.01    -0.00  -0.01  -0.01
  46   1    -0.01  -0.02   0.14     0.00   0.01   0.05     0.03   0.02  -0.02
  47   1     0.02  -0.07   0.15     0.01  -0.01   0.05     0.04   0.06  -0.01
  48   1     0.02  -0.07   0.10     0.01  -0.01   0.04     0.03   0.04  -0.02
  49   1    -0.00  -0.03   0.10     0.00   0.02   0.03     0.01   0.06   0.04
  50   1    -0.00   0.03  -0.04    -0.01   0.04  -0.02    -0.03   0.04   0.10
                      4                      5                      6
                        a                      a                      a 
 Frequencies --    30.2513                34.9233                36.6265
 Red. masses --    16.3825                26.8135                18.2869
 Frc consts  --     0.0000                 0.0000                 0.0000
 IR Inten    --     0.4651                22.4626                 7.5396
 Raman Activ --     0.0000                 0.0000                 0.0000
 Depolar     --     0.0000                 0.0000                 0.0000
 Atom AN      X      Y      Z        X      Y      Z        X      Y      Z
   1   7     0.02   0.11  -0.15     0.03  -0.05  -0.24     0.01  -0.25   0.17
   2   6     0.08   0.11  -0.12     0.02  -0.05  -0.20    -0.02  -0.24   0.08
   3   6     0.01   0.05  -0.05    -0.06  -0.07  -0.15    -0.05  -0.16   0.05
   4   6     0.02  -0.02   0.07    -0.06  -0.06  -0.05    -0.05  -0.09   0.04
   5   6     0.02  -0.18   0.35    -0.11  -0.07   0.03    -0.09  -0.10   0.12
   6   6     0.02  -0.18   0.34    -0.10  -0.04   0.09    -0.08  -0.03   0.08
   7   6     0.02  -0.03   0.07    -0.05  -0.02   0.06    -0.04   0.05  -0.04
   8   6     0.01  -0.02   0.03    -0.04   0.01   0.09    -0.02   0.11  -0.06
   9   6     0.00  -0.10   0.17    -0.02   0.02   0.07     0.00   0.08  -0.01
  10   6    -0.00  -0.11   0.15    -0.02   0.03   0.07     0.01   0.11   0.00
  11   6    -0.03  -0.20   0.28    -0.01   0.04   0.06     0.02   0.08   0.07
  12   6     0.01  -0.03   0.00    -0.03   0.02   0.10    -0.01   0.15  -0.05
  13   6     0.01  -0.02  -0.02    -0.03   0.02   0.09    -0.01   0.14  -0.02
  14   6     0.02  -0.02  -0.03    -0.03   0.02   0.08    -0.05   0.14   0.04
  15   6     0.02  -0.01  -0.04    -0.03   0.01   0.04    -0.05   0.09   0.07
  16   6     0.01  -0.00  -0.04    -0.03   0.01   0.01    -0.01   0.05   0.04
  17   6     0.01   0.01  -0.04    -0.03  -0.01  -0.03    -0.00  -0.02   0.04
  18   6     0.01  -0.00   0.00    -0.05  -0.03  -0.06    -0.07  -0.07   0.00
  19   6     0.03  -0.02   0.03    -0.08  -0.02  -0.05    -0.17  -0.03  -0.04
  20   6     0.01   0.01   0.01    -0.04  -0.05  -0.09    -0.05  -0.17   0.01
  21   6     0.00   0.03  -0.04    -0.01  -0.05  -0.09     0.04  -0.20   0.06
  22  16     0.00   0.05  -0.15     0.02  -0.04  -0.09     0.15  -0.18   0.17
  23   6    -0.00  -0.00  -0.02    -0.03   0.01   0.03     0.04   0.07  -0.01
  24   7    -0.01   0.01   0.01    -0.04   0.00   0.01     0.09   0.03  -0.05
  25  16    -0.04   0.02   0.05    -0.07   0.01   0.05     0.20   0.10  -0.16
  26   7    -0.01  -0.00   0.02    -0.05   0.01   0.06     0.09   0.12  -0.09
  27   6    -0.00  -0.01  -0.01    -0.03   0.01   0.06     0.03   0.11  -0.04
  28  16     0.04   0.11  -0.25    -0.07  -0.00   0.20    -0.06   0.29  -0.21
  29  16     0.02   0.19  -0.31    -0.02  -0.04  -0.06    -0.01   0.05  -0.17
  30  17    -0.19   0.05   0.01     0.72   0.27  -0.01     0.03  -0.13  -0.01
  31   1     0.00   0.02  -0.01     0.01  -0.01  -0.05     0.00  -0.06   0.06
  32   1     0.03   0.04  -0.06     0.02  -0.01  -0.07     0.02  -0.08   0.04
  33   1    -0.03   0.03  -0.06    -0.00  -0.02  -0.07    -0.01  -0.06   0.04
  34   1     0.02   0.04  -0.05     0.01  -0.02  -0.07    -0.01  -0.08   0.02
  35   1     0.05   0.04  -0.02     0.02  -0.01  -0.05    -0.01  -0.08   0.02
  36   1    -0.02   0.01  -0.03    -0.03  -0.03  -0.05    -0.00  -0.04   0.02
  37   1     0.02   0.02  -0.01    -0.02  -0.02  -0.04    -0.03  -0.05   0.01
  38   1     0.01  -0.08   0.16    -0.04  -0.03   0.01    -0.04  -0.05   0.06
  39   1     0.01  -0.08   0.15    -0.04  -0.01   0.04    -0.03  -0.01   0.04
  40   1    -0.00  -0.05   0.08    -0.01   0.01   0.01     0.01   0.01   0.01
  41   1    -0.01  -0.08   0.07    -0.00   0.02   0.02     0.01   0.02   0.02
  42   1    -0.01  -0.08   0.09    -0.00   0.01   0.01     0.01   0.01   0.02
  43   1    -0.01  -0.04   0.10    -0.00   0.01   0.01     0.00   0.03   0.03
  44   1     0.01  -0.01  -0.01    -0.01   0.01   0.03    -0.03   0.05   0.02
  45   1     0.01  -0.00  -0.01    -0.01   0.00   0.01    -0.03   0.03   0.03
  46   1     0.01  -0.00   0.01    -0.02  -0.01  -0.01    -0.06  -0.01  -0.02
  47   1     0.01  -0.01   0.01    -0.03  -0.01  -0.02    -0.06  -0.02  -0.02
  48   1     0.01  -0.01   0.01    -0.03  -0.00  -0.01    -0.05   0.01  -0.00
  49   1     0.00   0.00   0.01    -0.01  -0.02  -0.03    -0.03  -0.06  -0.01
  50   1     0.00   0.01  -0.02     0.00  -0.02  -0.03     0.02  -0.08   0.02
                      7                      8                      9
                        a                      a                      a 
 Frequencies --    42.0262                51.5673                66.2705
 Red. masses --    23.1198                18.1761                14.7867
 Frc consts  --     0.0000                 0.0000                 0.0000
 IR Inten    --    10.6019                 6.0286                 7.8580
 Raman Activ --     0.0000                 0.0000                 0.0000
 Depolar     --     0.0000                 0.0000                 0.0000
 Atom AN      X      Y      Z        X      Y      Z        X      Y      Z
   1   7    -0.02  -0.04   0.08     0.09   0.15  -0.43    -0.23   0.24  -0.03
   2   6    -0.06  -0.05   0.15     0.01   0.12  -0.07    -0.15   0.23   0.12
   3   6     0.00  -0.07   0.13    -0.02  -0.13   0.08     0.00   0.09   0.12
   4   6     0.00  -0.03   0.03    -0.02  -0.09   0.12     0.01  -0.03   0.02
   5   6     0.01   0.03  -0.09    -0.05  -0.03   0.05     0.10  -0.08  -0.00
   6   6     0.01   0.05  -0.14    -0.04  -0.01   0.08     0.08  -0.16  -0.07
   7   6    -0.00   0.01  -0.08    -0.01  -0.05   0.17    -0.01  -0.18  -0.09
   8   6    -0.01   0.00  -0.09    -0.01  -0.02   0.14    -0.01  -0.18  -0.10
   9   6    -0.03  -0.06   0.01    -0.01  -0.01   0.13     0.07  -0.16  -0.08
  10   6    -0.03  -0.07  -0.02    -0.01   0.04   0.02     0.09  -0.08  -0.05
  11   6    -0.07  -0.12   0.03    -0.03   0.07  -0.04     0.20  -0.04  -0.02
  12   6    -0.01  -0.01  -0.14    -0.01   0.07  -0.04     0.02  -0.03  -0.03
  13   6    -0.02  -0.02  -0.14    -0.00   0.07  -0.09     0.01   0.05   0.04
  14   6    -0.02  -0.06  -0.19    -0.02   0.05  -0.10     0.02   0.10   0.14
  15   6    -0.03  -0.07  -0.15    -0.02   0.02  -0.09     0.02   0.14   0.18
  16   6    -0.01  -0.04  -0.06    -0.00   0.02  -0.06     0.01   0.13   0.12
  17   6    -0.02  -0.05  -0.01    -0.01  -0.01   0.00     0.01   0.08   0.06
  18   6    -0.00  -0.07   0.10    -0.01  -0.04   0.08    -0.07   0.01   0.03
  19   6     0.04  -0.10   0.14     0.00  -0.03   0.05    -0.19   0.03   0.05
  20   6    -0.02  -0.04   0.14    -0.02  -0.06   0.16    -0.03  -0.09  -0.04
  21   6    -0.04  -0.01   0.05    -0.02  -0.06   0.15     0.09  -0.09  -0.06
  22  16    -0.08   0.01  -0.14    -0.01  -0.03   0.04     0.25   0.04  -0.00
  23   6    -0.00  -0.00   0.02     0.02   0.03  -0.08    -0.01   0.09   0.06
  24   7     0.01   0.06   0.18     0.06   0.02  -0.09    -0.03   0.10   0.04
  25  16     0.03   0.17   0.40     0.13   0.06  -0.17    -0.06   0.08  -0.02
  26   7     0.01   0.08   0.10     0.06   0.07  -0.12    -0.02   0.03  -0.03
  27   6    -0.00   0.01  -0.03     0.02   0.06  -0.09    -0.00   0.05   0.03
  28  16     0.02   0.12  -0.43    -0.00   0.09   0.00    -0.11  -0.14  -0.13
  29  16    -0.01  -0.09   0.10     0.02  -0.23   0.43    -0.14  -0.16  -0.04
  30  17     0.25   0.26  -0.01    -0.09  -0.06  -0.17     0.11  -0.02  -0.09
  31   1    -0.00  -0.00  -0.02     0.03   0.05  -0.17    -0.06   0.05  -0.05
  32   1    -0.03  -0.01   0.03    -0.02   0.08  -0.12    -0.10   0.08  -0.00
  33   1     0.03  -0.02   0.03     0.07  -0.01  -0.12    -0.03   0.05   0.00
  34   1    -0.02  -0.02   0.07    -0.00   0.02  -0.00    -0.04   0.08   0.07
  35   1    -0.04  -0.00   0.04    -0.01   0.10   0.01    -0.06   0.08   0.03
  36   1     0.02  -0.03   0.04    -0.01  -0.09  -0.01     0.01   0.02   0.03
  37   1    -0.01  -0.03   0.06    -0.01  -0.04   0.08     0.03   0.03   0.06
  38   1     0.00   0.01  -0.03    -0.02  -0.00  -0.01     0.05  -0.02   0.01
  39   1     0.00   0.02  -0.06    -0.02   0.01   0.01     0.04  -0.06  -0.03
  40   1    -0.01  -0.03   0.03    -0.00  -0.01   0.06     0.04  -0.06  -0.03
  41   1    -0.02  -0.05   0.00    -0.01   0.03  -0.02     0.06   0.01   0.00
  42   1    -0.03  -0.04   0.01    -0.01   0.03  -0.01     0.07  -0.03  -0.01
  43   1    -0.03  -0.03   0.02    -0.00   0.01  -0.02     0.07  -0.01  -0.00
  44   1    -0.01  -0.02  -0.07    -0.01   0.02  -0.03     0.01   0.03   0.05
  45   1    -0.01  -0.03  -0.05    -0.01   0.00  -0.03     0.01   0.05   0.07
  46   1    -0.00  -0.02   0.05    -0.01  -0.01   0.01    -0.05   0.01   0.02
  47   1     0.03  -0.04   0.07     0.01  -0.01   0.03    -0.07  -0.00  -0.00
  48   1     0.03  -0.04   0.02     0.01  -0.00   0.00    -0.07   0.03   0.03
  49   1    -0.00  -0.02   0.06    -0.01  -0.03   0.06    -0.03  -0.04  -0.02
  50   1    -0.02   0.00   0.01    -0.01  -0.02   0.05     0.04  -0.05  -0.03
                     10                     11                     12
                        a                      a                      a 
 Frequencies --    78.6589                84.8654                88.7132
 Red. masses --    30.1662                13.3129                17.3136
 Frc consts  --     0.0000                 0.0000                 0.0000
 IR Inten    --    22.2424                 1.3715                 6.4117
 Raman Activ --     0.0000                 0.0000                 0.0000
 Depolar     --     0.0000                 0.0000                 0.0000
 Atom AN      X      Y      Z        X      Y      Z        X      Y      Z
   1   7    -0.07   0.06  -0.08     0.04   0.06  -0.24     0.31  -0.02  -0.15
   2   6    -0.10   0.05   0.08    -0.16   0.01   0.17     0.12  -0.05   0.08
   3   6    -0.02  -0.05   0.10    -0.04  -0.18   0.22     0.11  -0.13   0.13
   4   6    -0.02  -0.04   0.01    -0.04  -0.06   0.05     0.10   0.01   0.06
   5   6    -0.01  -0.04   0.00    -0.07  -0.03   0.04     0.07   0.04   0.03
   6   6    -0.01  -0.03  -0.04    -0.06   0.06  -0.05     0.07   0.11  -0.03
   7   6    -0.02  -0.02  -0.07    -0.03   0.10  -0.11     0.09   0.13  -0.05
   8   6    -0.01  -0.01  -0.07    -0.02   0.12  -0.10     0.07   0.10  -0.08
   9   6     0.01  -0.01  -0.05    -0.02   0.11  -0.08    -0.02   0.08  -0.09
  10   6     0.02  -0.00  -0.02    -0.02   0.05   0.00    -0.03  -0.03  -0.06
  11   6     0.04  -0.00   0.00    -0.02   0.02   0.06    -0.08  -0.06  -0.05
  12   6     0.00   0.01  -0.01    -0.01   0.02   0.05     0.01  -0.08  -0.03
  13   6     0.00   0.01   0.01    -0.00  -0.03   0.11    -0.00  -0.09   0.00
  14   6    -0.00  -0.00  -0.01    -0.03  -0.04   0.15     0.03  -0.04   0.04
  15   6     0.00  -0.02  -0.03    -0.02  -0.08   0.15     0.02   0.07   0.08
  16   6     0.01  -0.04  -0.05     0.00  -0.09   0.14    -0.04   0.09   0.04
  17   6     0.01  -0.02  -0.03     0.01  -0.04   0.07    -0.04   0.07   0.03
  18   6     0.04   0.00  -0.01     0.06   0.04  -0.05    -0.11  -0.01   0.05
  19   6     0.08  -0.00  -0.02     0.09   0.01   0.01    -0.21   0.02   0.03
  20   6     0.02   0.03   0.04     0.06   0.16  -0.20    -0.09  -0.12   0.06
  21   6    -0.02   0.03   0.06    -0.00   0.17  -0.20     0.01  -0.12   0.03
  22  16    -0.08  -0.01   0.02    -0.09   0.04  -0.02     0.13   0.02  -0.00
  23   6     0.02  -0.04  -0.08     0.02  -0.09   0.12    -0.08   0.05   0.00
  24   7     0.04  -0.10  -0.21     0.07  -0.13   0.11    -0.19   0.08  -0.04
  25  16     0.08  -0.13  -0.32     0.17  -0.17   0.07    -0.43  -0.05  -0.07
  26   7     0.02  -0.01  -0.04     0.08  -0.07   0.03    -0.19  -0.12  -0.01
  27   6     0.01  -0.00  -0.01     0.03  -0.06   0.09    -0.07  -0.06   0.00
  28  16    -0.04   0.02  -0.09    -0.02   0.12  -0.05     0.16  -0.01  -0.07
  29  16    -0.05  -0.04  -0.07    -0.01   0.07  -0.12     0.21   0.12  -0.01
  30  17     0.05   0.30   0.75    -0.01  -0.08  -0.21    -0.01   0.01   0.10
  31   1    -0.01   0.03  -0.07     0.03   0.06  -0.21     0.09   0.03  -0.13
  32   1    -0.06   0.03  -0.01    -0.09   0.05  -0.04     0.02   0.01  -0.02
  33   1     0.03  -0.01  -0.01     0.14  -0.05  -0.03     0.17  -0.05  -0.02
  34   1    -0.03   0.01   0.06    -0.06  -0.04   0.12     0.03  -0.05   0.05
  35   1    -0.06   0.04   0.03    -0.11   0.08   0.06     0.00   0.03   0.03
  36   1     0.01  -0.04   0.02     0.04  -0.11   0.05     0.06  -0.08   0.02
  37   1    -0.00  -0.02   0.06    -0.03  -0.07   0.13     0.00  -0.05   0.07
  38   1     0.00  -0.02   0.01    -0.03  -0.02   0.03     0.01   0.00   0.02
  39   1    -0.00  -0.01  -0.01    -0.02   0.02  -0.01     0.02   0.04  -0.01
  40   1     0.01  -0.01  -0.01    -0.00   0.04  -0.03    -0.02   0.04  -0.03
  41   1     0.01  -0.00   0.00     0.00  -0.01   0.03    -0.02  -0.03  -0.01
  42   1     0.02  -0.00  -0.00     0.00   0.01   0.01    -0.02  -0.01  -0.01
  43   1     0.01  -0.00   0.00    -0.03   0.01   0.02    -0.04  -0.02  -0.01
  44   1    -0.00   0.00  -0.00    -0.01  -0.01   0.05     0.02  -0.02   0.01
  45   1    -0.00  -0.01  -0.01    -0.01  -0.03   0.04     0.02   0.04   0.04
  46   1     0.03  -0.00  -0.01     0.05   0.01   0.01    -0.06   0.00   0.00
  47   1     0.03   0.01  -0.00     0.02   0.01  -0.01    -0.07  -0.00  -0.00
  48   1     0.03  -0.01  -0.01     0.01  -0.01   0.02    -0.06   0.02   0.02
  49   1     0.01   0.02   0.02     0.03   0.07  -0.09    -0.04  -0.06   0.02
  50   1    -0.01   0.01   0.03    -0.00   0.07  -0.08     0.02  -0.05   0.01
                     13                     14                     15
                        a                      a                      a 
 Frequencies --   101.9865               131.1091               132.5770
 Red. masses --    15.5394                16.3113                10.0882
 Frc consts  --     0.0000                 0.0000                 0.0000
 IR Inten    --     2.4472                 5.8798                 1.9975
 Raman Activ --     0.0000                 0.0000                 0.0000
 Depolar     --     0.0000                 0.0000                 0.0000
 Atom AN      X      Y      Z        X      Y      Z        X      Y      Z
   1   7    -0.08   0.02  -0.02     0.24   0.02   0.03    -0.19   0.03  -0.03
   2   6    -0.22  -0.01   0.16     0.14   0.00   0.04     0.17   0.09  -0.08
   3   6    -0.04  -0.06   0.09     0.14   0.05   0.02     0.01  -0.11   0.11
   4   6    -0.04   0.00  -0.09     0.13   0.02  -0.00     0.01  -0.10   0.16
   5   6    -0.05  -0.00  -0.07     0.17  -0.01  -0.00     0.01  -0.04   0.06
   6   6    -0.05   0.02  -0.08     0.16  -0.06  -0.03     0.00   0.04  -0.09
   7   6    -0.02   0.03  -0.09     0.08  -0.07  -0.04     0.00   0.05  -0.12
   8   6    -0.00   0.02   0.02     0.05  -0.09  -0.04     0.01   0.11  -0.17
   9   6     0.04   0.02   0.04     0.10  -0.09  -0.02     0.04   0.11  -0.16
  10   6     0.05   0.02   0.13     0.11  -0.00   0.03     0.05   0.08  -0.02
  11   6     0.08   0.01   0.17     0.29   0.07   0.06     0.12   0.07   0.05
  12   6     0.03   0.01   0.17    -0.01   0.07   0.06     0.01   0.04   0.08
  13   6     0.03   0.02   0.08    -0.04   0.11   0.08     0.01  -0.01   0.15
  14   6     0.08   0.01  -0.04    -0.12   0.07   0.12     0.02  -0.01   0.15
  15   6     0.09   0.00  -0.19    -0.12  -0.03   0.04     0.03  -0.01   0.04
  16   6     0.07   0.02  -0.21    -0.12  -0.07  -0.07     0.01  -0.03  -0.06
  17   6     0.07  -0.00  -0.15    -0.15  -0.08  -0.09     0.02  -0.03  -0.09
  18   6     0.09  -0.04   0.00    -0.12  -0.05  -0.05     0.05  -0.02  -0.02
  19   6     0.16  -0.02  -0.09    -0.09  -0.05  -0.07     0.11  -0.01  -0.09
  20   6     0.06  -0.10   0.24    -0.15   0.01   0.03     0.03  -0.02   0.09
  21   6     0.03  -0.10   0.26    -0.24   0.02   0.04    -0.02  -0.02   0.10
  22  16     0.07  -0.04  -0.07    -0.46  -0.07  -0.07    -0.06  -0.03  -0.08
  23   6     0.02   0.03  -0.11    -0.05  -0.02  -0.05    -0.01  -0.03  -0.01
  24   7    -0.05   0.06  -0.12     0.02  -0.05  -0.06    -0.06  -0.03  -0.07
  25  16    -0.17   0.08   0.04     0.10   0.08   0.04    -0.18  -0.08   0.03
  26   7    -0.06   0.02   0.10    -0.00   0.13   0.06    -0.07  -0.06   0.13
  27   6     0.01   0.02   0.02    -0.05   0.08   0.02    -0.01  -0.03   0.10
  28  16    -0.03  -0.04   0.28    -0.08   0.01   0.03    -0.03   0.17  -0.14
  29  16    -0.04   0.09  -0.27     0.12  -0.02  -0.05     0.01  -0.10   0.13
  30  17    -0.01  -0.05  -0.17     0.01  -0.01  -0.05    -0.00  -0.03  -0.07
  31   1    -0.01   0.04  -0.12     0.07   0.02  -0.08    -0.08  -0.07   0.31
  32   1    -0.11   0.01   0.03    -0.01  -0.01   0.05     0.20   0.07  -0.14
  33   1     0.09  -0.02   0.04     0.14   0.01   0.05    -0.35   0.01  -0.17
  34   1    -0.07  -0.03   0.11     0.04  -0.02   0.03     0.06   0.10  -0.12
  35   1    -0.13   0.03   0.03     0.02   0.01   0.01     0.16   0.01   0.02
  36   1     0.03  -0.03   0.03     0.04   0.03   0.01    -0.02  -0.08  -0.01
  37   1    -0.02  -0.02   0.06     0.04   0.02  -0.01     0.00  -0.04   0.08
  38   1    -0.02  -0.01  -0.01     0.06   0.00   0.00     0.00  -0.01   0.02
  39   1    -0.02   0.00  -0.01     0.06  -0.03  -0.01     0.00   0.03  -0.06
  40   1     0.02   0.01  -0.01     0.04  -0.03  -0.01     0.02   0.04  -0.06
  41   1     0.02   0.01   0.04     0.08   0.06   0.02     0.05   0.02   0.04
  42   1     0.03  -0.01   0.05     0.10  -0.01   0.01     0.06   0.02  -0.00
  43   1     0.03   0.01   0.06     0.11   0.03   0.02     0.02   0.02   0.02
  44   1     0.04  -0.00   0.00    -0.05   0.04   0.06     0.01   0.00   0.06
  45   1     0.04  -0.00  -0.08    -0.03  -0.01   0.01     0.02  -0.00   0.00
  46   1     0.03  -0.02  -0.04    -0.02  -0.02  -0.02     0.04  -0.02  -0.03
  47   1     0.07   0.01  -0.01    -0.02  -0.01  -0.02     0.04   0.02  -0.03
  48   1     0.06  -0.00  -0.05    -0.03  -0.02  -0.02     0.03  -0.01  -0.02
  49   1     0.02  -0.04   0.11    -0.03   0.02   0.02     0.01  -0.00   0.05
  50   1     0.00  -0.04   0.11    -0.08   0.02   0.03    -0.01  -0.00   0.05
                     16                     17                     18
                        a                      a                      a 
 Frequencies --   157.0411               166.4026               169.5969
 Red. masses --    15.4427                13.6914                13.3636
 Frc consts  --     0.0000                 0.0000                 0.0000
 IR Inten    --     0.4943                 0.3605                 1.1231
 Raman Activ --     0.0000                 0.0000                 0.0000
 Depolar     --     0.0000                 0.0000                 0.0000
 Atom AN      X      Y      Z        X      Y      Z        X      Y      Z
   1   7    -0.12   0.01  -0.07     0.07  -0.02   0.02     0.20   0.01  -0.00
   2   6     0.04   0.03   0.07     0.02  -0.02  -0.03     0.14   0.00  -0.07
   3   6     0.06  -0.18   0.18    -0.03   0.05  -0.04    -0.04   0.07  -0.02
   4   6     0.05  -0.03   0.01    -0.03   0.03   0.02    -0.04   0.01   0.14
   5   6     0.03   0.03  -0.07    -0.02   0.01   0.03     0.01  -0.01   0.11
   6   6     0.03   0.08  -0.13    -0.02  -0.01   0.02    -0.00  -0.02  -0.02
   7   6     0.04   0.06  -0.08    -0.03   0.00   0.01    -0.06   0.00  -0.10
   8   6     0.03  -0.01   0.02    -0.03  -0.00  -0.04    -0.07   0.03  -0.22
   9   6    -0.01  -0.01   0.01    -0.05   0.02  -0.08    -0.04   0.11  -0.34
  10   6    -0.02  -0.07   0.03    -0.04  -0.02  -0.07    -0.02   0.03  -0.13
  11   6    -0.11  -0.19   0.17    -0.14  -0.11   0.01    -0.04  -0.21   0.28
  12   6     0.00  -0.05  -0.01    -0.01  -0.05  -0.05    -0.04  -0.00  -0.03
  13   6    -0.00   0.03  -0.11    -0.00  -0.02   0.02    -0.02   0.05  -0.02
  14   6    -0.02   0.01  -0.14     0.00   0.02   0.14    -0.01   0.07  -0.01
  15   6    -0.04  -0.01  -0.07     0.01   0.01   0.16     0.00   0.05  -0.05
  16   6    -0.05   0.02   0.03     0.01  -0.02   0.06     0.03   0.02  -0.08
  17   6    -0.07   0.04   0.06     0.00   0.05  -0.03     0.04  -0.01  -0.05
  18   6    -0.11   0.01   0.03    -0.01   0.02   0.05     0.06   0.00  -0.05
  19   6    -0.19   0.04   0.02    -0.06   0.21  -0.37     0.11  -0.09   0.14
  20   6    -0.10  -0.00  -0.02    -0.03  -0.08   0.28     0.06   0.03  -0.10
  21   6    -0.06   0.01  -0.05    -0.02  -0.04   0.20     0.05   0.01  -0.03
  22  16    -0.07   0.07  -0.00     0.03   0.20  -0.35     0.06  -0.10   0.16
  23   6    -0.01   0.03   0.01     0.01  -0.04   0.06     0.01   0.02  -0.09
  24   7     0.08   0.02   0.07     0.08  -0.07   0.09     0.01   0.04  -0.08
  25  16     0.24   0.10  -0.05     0.22  -0.06   0.04     0.01   0.13   0.02
  26   7     0.08   0.10  -0.13     0.09  -0.01  -0.04     0.00   0.09   0.02
  27   6    -0.01   0.06  -0.09     0.01  -0.02   0.01    -0.01   0.05  -0.05
  28  16     0.07  -0.25   0.34    -0.02  -0.09  -0.03    -0.16  -0.18   0.13
  29  16     0.11   0.07  -0.18    -0.07   0.01   0.08    -0.17  -0.03   0.17
  30  17    -0.00   0.02   0.03     0.00   0.00   0.01     0.01   0.00  -0.00
  31   1    -0.05  -0.03   0.20     0.02   0.00  -0.05     0.06   0.01  -0.08
  32   1     0.16   0.07  -0.13    -0.03  -0.02   0.03    -0.02  -0.02   0.04
  33   1    -0.24  -0.04  -0.15     0.07   0.01   0.04     0.13   0.02   0.05
  34   1     0.02   0.04   0.00     0.00  -0.02  -0.01     0.04  -0.01  -0.06
  35   1     0.04   0.03   0.04     0.00  -0.01  -0.01     0.06  -0.00  -0.01
  36   1     0.06  -0.12   0.02    -0.02   0.03  -0.01    -0.06   0.04  -0.01
  37   1    -0.01  -0.07   0.13    -0.01   0.02  -0.04    -0.00   0.03  -0.05
  38   1     0.00   0.00  -0.01    -0.00   0.01   0.01     0.01   0.00   0.04
  39   1     0.01   0.03  -0.04    -0.00  -0.00   0.01     0.01  -0.00  -0.03
  40   1    -0.01   0.01  -0.01    -0.01   0.01  -0.03    -0.00   0.05  -0.15
  41   1    -0.02  -0.10   0.05     0.06  -0.12   0.16     0.07  -0.17   0.20
  42   1    -0.04  -0.07   0.06     0.04   0.09  -0.12     0.06  -0.05   0.01
  43   1    -0.06  -0.03   0.08    -0.25  -0.08  -0.02    -0.18  -0.04   0.15
  44   1    -0.01   0.00  -0.05    -0.00   0.01   0.05     0.00   0.02   0.01
  45   1    -0.02  -0.00  -0.02     0.00   0.01   0.05    -0.00   0.02  -0.01
  46   1    -0.08   0.01   0.00    -0.00  -0.03  -0.18     0.03   0.02   0.08
  47   1    -0.06  -0.01   0.02    -0.03   0.13  -0.16     0.04  -0.05   0.07
  48   1    -0.05   0.04  -0.01    -0.03   0.13  -0.08     0.04  -0.06   0.03
  49   1    -0.03  -0.00  -0.01    -0.01  -0.04   0.14     0.02   0.02  -0.05
  50   1    -0.01  -0.00  -0.02    -0.01  -0.02   0.08     0.01   0.00  -0.01
                     19                     20                     21
                        a                      a                      a 
 Frequencies --   174.4671               188.4101               193.0726
 Red. masses --     4.8551                15.8998                11.6510
 Frc consts  --     0.0000                 0.0000                 0.0000
 IR Inten    --     2.6677                 6.7333                 1.2767
 Raman Activ --     0.0000                 0.0000                 0.0000
 Depolar     --     0.0000                 0.0000                 0.0000
 Atom AN      X      Y      Z        X      Y      Z        X      Y      Z
   1   7     0.12  -0.02  -0.02    -0.30   0.05   0.05     0.03  -0.03  -0.06
   2   6     0.08  -0.02  -0.03    -0.19   0.06  -0.04    -0.01  -0.03   0.04
   3   6    -0.04   0.02   0.01     0.02   0.05  -0.15    -0.01  -0.07   0.07
   4   6    -0.05   0.03   0.09     0.04  -0.15  -0.10    -0.02   0.06  -0.01
   5   6    -0.02   0.03   0.06    -0.04  -0.14   0.00    -0.01   0.07  -0.03
   6   6    -0.02   0.02  -0.02    -0.03  -0.04   0.11    -0.01   0.04  -0.00
   7   6    -0.05   0.03  -0.05     0.09   0.03   0.06    -0.01   0.01   0.05
   8   6    -0.06   0.01  -0.09     0.12   0.18  -0.02    -0.03  -0.07   0.09
   9   6    -0.05   0.02  -0.12     0.05   0.23  -0.17    -0.06  -0.10   0.11
  10   6    -0.04  -0.01  -0.04     0.02   0.09  -0.11    -0.06  -0.07  -0.02
  11   6     0.05  -0.04   0.07    -0.07  -0.10   0.14    -0.12  -0.03  -0.14
  12   6    -0.04  -0.03  -0.01     0.07   0.02  -0.07    -0.02  -0.06  -0.10
  13   6    -0.02  -0.02  -0.02     0.06  -0.04  -0.07     0.00  -0.00  -0.09
  14   6     0.00   0.00  -0.00     0.02   0.00   0.09    -0.01   0.15   0.30
  15   6     0.00  -0.00   0.02     0.01   0.02   0.11    -0.01   0.15   0.32
  16   6     0.01  -0.01   0.03    -0.02  -0.01  -0.04     0.02  -0.01  -0.11
  17   6     0.02   0.02   0.01    -0.04  -0.01  -0.03     0.04  -0.03  -0.12
  18   6     0.01   0.01   0.02    -0.05  -0.01  -0.03     0.07  -0.00  -0.09
  19   6    -0.00   0.07  -0.11    -0.10  -0.01  -0.00     0.15  -0.08   0.05
  20   6     0.01  -0.02   0.09    -0.06   0.00  -0.00     0.06   0.02  -0.02
  21   6     0.03  -0.01   0.06    -0.09  -0.00   0.02     0.01  -0.01   0.06
  22  16     0.07   0.07  -0.10    -0.15  -0.01  -0.00    -0.03  -0.09   0.04
  23   6     0.00  -0.02   0.03     0.02  -0.03  -0.11     0.03  -0.07  -0.27
  24   7     0.03  -0.03   0.06     0.00   0.01  -0.03     0.02  -0.02  -0.17
  25  16     0.09  -0.03   0.02    -0.03   0.05   0.11     0.00   0.17   0.21
  26   7     0.04  -0.01  -0.03     0.01  -0.02  -0.04     0.01   0.06  -0.01
  27   6    -0.00  -0.02  -0.01     0.03  -0.05  -0.12     0.01  -0.04  -0.21
  28  16    -0.09  -0.09   0.01     0.31   0.07   0.08     0.02  -0.13  -0.04
  29  16    -0.13   0.05   0.08     0.27  -0.23   0.08    -0.04   0.12  -0.06
  30  17     0.01   0.01   0.01    -0.02   0.00   0.02    -0.01   0.01   0.02
  31   1     0.03  -0.00  -0.02    -0.07   0.01  -0.08     0.00  -0.00   0.06
  32   1     0.02  -0.01   0.00    -0.17  -0.02   0.07     0.08   0.02  -0.06
  33   1     0.05  -0.00   0.01     0.00   0.05   0.08    -0.05  -0.04  -0.07
  34   1     0.02  -0.01  -0.03    -0.05   0.04   0.03    -0.00  -0.02   0.02
  35   1     0.04  -0.00  -0.00    -0.08  -0.01  -0.04    -0.01   0.01   0.02
  36   1    -0.03   0.01  -0.00    -0.02   0.06  -0.03     0.03  -0.05   0.01
  37   1    -0.02   0.00  -0.01     0.06   0.04  -0.07    -0.03  -0.03   0.05
  38   1     0.00   0.01   0.02    -0.04  -0.05  -0.01    -0.00   0.02  -0.01
  39   1    -0.00   0.01  -0.02    -0.03   0.00   0.04    -0.00   0.01   0.00
  40   1    -0.01   0.01  -0.05    -0.00   0.10  -0.07    -0.02  -0.03   0.05
  41   1    -0.20   0.14  -0.39    -0.05  -0.06  -0.04    -0.05   0.01  -0.08
  42   1    -0.20  -0.34   0.34    -0.06  -0.12   0.12    -0.06  -0.01  -0.02
  43   1     0.49   0.17   0.14     0.04   0.05   0.12     0.01  -0.01  -0.05
  44   1     0.01  -0.00   0.00    -0.00   0.02   0.06    -0.01   0.07   0.16
  45   1    -0.00  -0.00   0.00     0.01   0.03   0.07    -0.00   0.08   0.18
  46   1     0.00  -0.01  -0.06     0.01  -0.01   0.00     0.26  -0.04   0.04
  47   1    -0.00   0.04  -0.05    -0.05   0.00  -0.03    -0.03   0.06  -0.13
  48   1    -0.00   0.04  -0.03    -0.05  -0.00   0.04    -0.07  -0.10   0.18
  49   1    -0.00  -0.02   0.04    -0.01   0.01   0.00     0.02   0.01  -0.00
  50   1     0.01  -0.01   0.02    -0.03   0.00   0.01    -0.00  -0.00   0.04
                     22                     23                     24
                        a                      a                      a 
 Frequencies --   209.6669               214.5311               229.8368
 Red. masses --    13.1451                 4.4009                13.0431
 Frc consts  --     0.0000                 0.0000                 0.0000
 IR Inten    --     2.0432                 1.2311                 1.0127
 Raman Activ --     0.0000                 0.0000                 0.0000
 Depolar     --     0.0000                 0.0000                 0.0000
 Atom AN      X      Y      Z        X      Y      Z        X      Y      Z
   1   7     0.01  -0.00   0.00    -0.01   0.01   0.03    -0.04   0.03   0.02
   2   6    -0.00  -0.00   0.01     0.02   0.01  -0.01    -0.00   0.03   0.02
   3   6    -0.00  -0.00   0.01     0.03   0.01  -0.02     0.08  -0.01  -0.01
   4   6    -0.00   0.01   0.00     0.03  -0.03  -0.01     0.08  -0.04  -0.06
   5   6     0.00   0.01  -0.00     0.02  -0.03  -0.00     0.05  -0.03  -0.04
   6   6    -0.00   0.00  -0.00     0.02  -0.01  -0.01     0.05  -0.01   0.02
   7   6    -0.00  -0.00   0.00     0.01  -0.01  -0.02     0.04  -0.02   0.03
   8   6    -0.00  -0.00   0.01     0.01   0.01  -0.02     0.01  -0.02   0.03
   9   6     0.02   0.01  -0.00     0.01   0.02  -0.02    -0.05  -0.01  -0.01
  10   6     0.02   0.04   0.01     0.00   0.00   0.01    -0.07  -0.04  -0.06
  11   6     0.13   0.05   0.08    -0.05  -0.03   0.02    -0.33  -0.14  -0.10
  12   6    -0.00   0.06  -0.01    -0.00   0.01   0.02    -0.04  -0.04  -0.07
  13   6     0.00   0.01  -0.06    -0.02   0.03   0.04    -0.05   0.12   0.13
  14   6    -0.03   0.04   0.06    -0.01  -0.06  -0.21    -0.05   0.12   0.12
  15   6    -0.02   0.00  -0.05    -0.01  -0.04  -0.11    -0.05   0.10   0.09
  16   6    -0.02   0.03   0.04    -0.03   0.03   0.06    -0.03   0.08   0.10
  17   6    -0.01  -0.08  -0.04    -0.03   0.01   0.07     0.01  -0.08  -0.09
  18   6     0.03  -0.06  -0.03    -0.06  -0.00   0.05     0.06  -0.06  -0.07
  19   6     0.22  -0.11  -0.05     0.03  -0.01   0.04     0.28  -0.12  -0.07
  20   6     0.01  -0.02   0.01    -0.04  -0.03   0.02     0.04  -0.01   0.00
  21   6    -0.03  -0.03   0.02     0.00  -0.02  -0.02    -0.01  -0.02   0.04
  22  16    -0.08  -0.11  -0.07     0.04   0.04  -0.01    -0.06  -0.14  -0.07
  23   6    -0.02   0.11   0.19    -0.02   0.04   0.10    -0.04   0.17   0.26
  24   7    -0.08   0.26   0.49     0.01  -0.04  -0.08    -0.02   0.10   0.07
  25  16    -0.10   0.02  -0.08     0.02  -0.03  -0.13     0.01   0.05  -0.26
  26   7     0.00  -0.21  -0.52    -0.02   0.10   0.19    -0.03   0.14   0.12
  27   6     0.01  -0.05  -0.19    -0.03   0.10   0.20    -0.06   0.20   0.27
  28  16    -0.03   0.03   0.06    -0.01   0.02   0.02     0.01  -0.07  -0.03
  29  16    -0.01   0.01  -0.00     0.04  -0.05  -0.01     0.16  -0.08  -0.05
  30  17     0.00   0.02   0.09     0.00  -0.01  -0.05     0.01  -0.01  -0.04
  31   1     0.00   0.00   0.01    -0.00  -0.00  -0.01    -0.01   0.00   0.00
  32   1     0.01   0.00  -0.00    -0.02  -0.00   0.02    -0.01   0.01   0.01
  33   1    -0.00  -0.00  -0.00     0.01   0.01   0.02    -0.01   0.01   0.01
  34   1    -0.00  -0.00   0.00     0.01   0.01  -0.00     0.00   0.02   0.02
  35   1    -0.00   0.00   0.00     0.01  -0.00  -0.00    -0.01   0.00  -0.00
  36   1     0.00  -0.00   0.00     0.00   0.01  -0.00     0.03  -0.00   0.00
  37   1    -0.00  -0.00   0.00     0.02   0.01  -0.01     0.03   0.00   0.01
  38   1     0.00   0.00  -0.00     0.00  -0.01  -0.00     0.00  -0.01  -0.02
  39   1     0.00   0.00  -0.00     0.01  -0.00  -0.00     0.01  -0.01   0.01
  40   1     0.01   0.00  -0.00     0.00   0.01  -0.01    -0.02   0.00   0.00
  41   1     0.06   0.02   0.06    -0.02  -0.02  -0.00    -0.13  -0.08  -0.12
  42   1     0.07   0.01  -0.00    -0.03  -0.01   0.02    -0.17  -0.05   0.04
  43   1     0.01   0.02   0.03    -0.02  -0.01   0.01    -0.05  -0.02  -0.01
  44   1    -0.01   0.03   0.05     0.00  -0.04  -0.12    -0.02   0.02  -0.01
  45   1     0.00  -0.01  -0.05    -0.00  -0.02  -0.05    -0.01   0.01  -0.03
  46   1     0.22  -0.07  -0.01     0.51  -0.12   0.01    -0.03  -0.01  -0.01
  47   1     0.03   0.06  -0.11    -0.18   0.23  -0.37     0.16  -0.06   0.10
  48   1    -0.01  -0.10   0.09    -0.25  -0.13   0.39     0.16  -0.05  -0.13
  49   1     0.01  -0.00   0.01    -0.02  -0.02   0.00     0.02   0.00   0.01
  50   1    -0.01  -0.00   0.01     0.01  -0.01  -0.02    -0.01  -0.00   0.03
                     25                     26                     27
                        a                      a                      a 
 Frequencies --   247.3670               258.7551               268.9342
 Red. masses --     7.7884                15.9671                13.4259
 Frc consts  --     0.0000                 0.0000                 0.0000
 IR Inten    --    11.4551                25.3858                 5.1167
 Raman Activ --     0.0000                 0.0000                 0.0000
 Depolar     --     0.0000                 0.0000                 0.0000
 Atom AN      X      Y      Z        X      Y      Z        X      Y      Z
   1   7     0.21  -0.02  -0.10    -0.36  -0.24  -0.17     0.20   0.09   0.05
   2   6    -0.32  -0.10   0.16     0.01  -0.15  -0.09    -0.07   0.03  -0.01
   3   6    -0.08   0.12  -0.06    -0.04  -0.14  -0.02    -0.18   0.11  -0.01
   4   6    -0.06   0.15  -0.19    -0.05   0.22   0.05    -0.15  -0.10   0.13
   5   6    -0.03   0.07  -0.07     0.02   0.18   0.07    -0.12  -0.10   0.07
   6   6    -0.01  -0.07   0.18     0.03   0.07   0.09    -0.12   0.00  -0.12
   7   6     0.02  -0.08   0.20     0.03   0.06   0.08    -0.03   0.05  -0.17
   8   6     0.02  -0.05   0.03     0.03  -0.04  -0.00     0.04   0.08  -0.07
   9   6     0.03   0.05  -0.16     0.06  -0.03  -0.04     0.08  -0.00   0.08
  10   6     0.04   0.04  -0.16     0.07  -0.07  -0.07     0.07  -0.09   0.11
  11   6     0.14  -0.06   0.10     0.19  -0.06  -0.00    -0.08  -0.03  -0.14
  12   6     0.03   0.02  -0.10     0.09  -0.08  -0.07     0.13  -0.13   0.11
  13   6     0.02   0.00   0.00     0.08  -0.01   0.03     0.13  -0.03   0.10
  14   6     0.01  -0.02  -0.03     0.08  -0.01   0.00     0.17  -0.02   0.07
  15   6     0.00  -0.00   0.00     0.06   0.02   0.02     0.16   0.01  -0.04
  16   6    -0.00   0.01   0.03     0.01   0.05   0.02     0.05   0.06  -0.07
  17   6    -0.01  -0.02   0.02    -0.01  -0.01  -0.06     0.01   0.07  -0.21
  18   6    -0.01  -0.02   0.01    -0.03  -0.02  -0.05    -0.04   0.03  -0.19
  19   6     0.01  -0.01  -0.02    -0.03  -0.06   0.02    -0.18  -0.06   0.12
  20   6    -0.01  -0.01   0.01    -0.04   0.00  -0.02    -0.07   0.02  -0.07
  21   6    -0.02   0.00  -0.01    -0.08  -0.01   0.02    -0.13  -0.05   0.13
  22  16    -0.04  -0.02  -0.01    -0.14  -0.04  -0.01    -0.19  -0.00   0.01
  23   6     0.01   0.03   0.05     0.03   0.08   0.09     0.05   0.09   0.09
  24   7    -0.00   0.00  -0.03     0.02   0.06   0.00     0.06   0.10   0.10
  25  16    -0.04  -0.03  -0.05     0.01   0.02  -0.10     0.09   0.01  -0.08
  26   7    -0.01   0.01   0.09     0.02   0.04   0.09     0.07  -0.01  -0.01
  27   6     0.01   0.03   0.08     0.03   0.06   0.12     0.06   0.03   0.09
  28  16     0.06  -0.04  -0.09     0.19  -0.16  -0.10     0.24  -0.06  -0.04
  29  16    -0.01   0.06   0.12    -0.16   0.32   0.19    -0.17  -0.04   0.00
  30  17     0.00  -0.00  -0.01    -0.00  -0.00  -0.02    -0.00  -0.00  -0.00
  31   1     0.06   0.09   0.23    -0.10  -0.12  -0.17     0.06   0.07   0.08
  32   1     0.34   0.05  -0.17    -0.24  -0.04   0.00     0.13   0.00  -0.01
  33   1    -0.12  -0.14  -0.20    -0.02  -0.03   0.02     0.03   0.00  -0.01
  34   1    -0.11  -0.13   0.17     0.01   0.01  -0.05    -0.02  -0.03  -0.01
  35   1    -0.24   0.03   0.01     0.05  -0.06  -0.02    -0.03   0.02   0.00
  36   1     0.02   0.08   0.03     0.03  -0.09  -0.02    -0.11   0.08   0.01
  37   1    -0.03   0.04  -0.06    -0.08  -0.07   0.03    -0.01   0.05  -0.06
  38   1    -0.00   0.03  -0.04     0.03   0.06   0.02    -0.03  -0.04   0.04
  39   1    -0.01  -0.03   0.09     0.01   0.02   0.03    -0.04   0.02  -0.05
  40   1     0.01   0.02  -0.06     0.02  -0.01  -0.01     0.02  -0.00   0.02
  41   1     0.06  -0.03   0.05     0.06  -0.00   0.03    -0.04  -0.00  -0.07
  42   1     0.07  -0.07   0.02     0.09  -0.03  -0.02    -0.06   0.04  -0.03
  43   1     0.02   0.02   0.08     0.05  -0.01   0.01    -0.00  -0.05  -0.09
  44   1     0.00  -0.01  -0.03     0.02  -0.01  -0.02     0.06  -0.01   0.01
  45   1     0.00  -0.00  -0.01     0.03   0.01  -0.01     0.07   0.01  -0.03
  46   1    -0.00  -0.01  -0.01    -0.01  -0.00   0.02    -0.02   0.04   0.09
  47   1     0.01   0.00  -0.00    -0.01  -0.03   0.01    -0.09  -0.07   0.02
  48   1     0.00  -0.00  -0.01    -0.01  -0.03   0.01    -0.08  -0.05   0.07
  49   1    -0.00   0.00   0.00    -0.01   0.01  -0.00    -0.01   0.01  -0.01
  50   1    -0.01   0.00  -0.01    -0.03  -0.00   0.02    -0.04  -0.03   0.09
                     28                     29                     30
                        a                      a                      a 
 Frequencies --   285.8910               305.7266               315.2485
 Red. masses --    13.7130                14.7520                11.0886
 Frc consts  --     0.0000                 0.0000                 0.0000
 IR Inten    --     4.6216                 0.7090                17.4385
 Raman Activ --     0.0000                 0.0000                 0.0000
 Depolar     --     0.0000                 0.0000                 0.0000
 Atom AN      X      Y      Z        X      Y      Z        X      Y      Z
   1   7     0.09   0.06   0.05     0.04  -0.03  -0.01     0.13   0.19   0.20
   2   6     0.00   0.03  -0.04     0.15   0.00   0.03     0.12   0.15  -0.09
   3   6    -0.13   0.03   0.02     0.05  -0.05   0.11    -0.09  -0.14   0.13
   4   6    -0.12  -0.08   0.12     0.02   0.15  -0.08    -0.11  -0.08  -0.05
   5   6    -0.10  -0.06   0.03     0.12   0.09  -0.14    -0.19   0.02  -0.17
   6   6    -0.09   0.03  -0.12     0.08  -0.20   0.00    -0.17   0.02   0.00
   7   6    -0.02   0.04  -0.10    -0.07  -0.29   0.10    -0.04  -0.05   0.19
   8   6     0.05   0.04   0.02     0.01  -0.05   0.12    -0.00  -0.05   0.20
   9   6     0.07  -0.01   0.10     0.10   0.10  -0.04    -0.04   0.02   0.02
  10   6     0.07  -0.03   0.02     0.09   0.19  -0.08    -0.04   0.07  -0.20
  11   6     0.07  -0.02  -0.01    -0.28  -0.03   0.02     0.21   0.01   0.10
  12   6     0.09   0.00  -0.09     0.10   0.15  -0.02    -0.01   0.07  -0.27
  13   6     0.08   0.01  -0.11     0.12   0.00   0.05    -0.01  -0.03  -0.12
  14   6     0.02  -0.02  -0.07     0.09  -0.03   0.03    -0.03  -0.03  -0.08
  15   6    -0.02   0.06   0.14     0.09  -0.01  -0.02    -0.03   0.02   0.11
  16   6    -0.01   0.04   0.13     0.08  -0.00  -0.03    -0.01   0.00   0.07
  17   6    -0.03  -0.18   0.30     0.04  -0.05   0.02     0.00   0.04  -0.09
  18   6    -0.02  -0.19   0.30     0.03  -0.06   0.04     0.01   0.06  -0.16
  19   6     0.15  -0.03  -0.20    -0.15   0.01  -0.00     0.02  -0.02   0.04
  20   6    -0.02  -0.05   0.11     0.01   0.01   0.02     0.01   0.02  -0.06
  21   6    -0.03   0.10  -0.28    -0.06   0.05  -0.04    -0.01  -0.06   0.16
  22  16    -0.13  -0.13  -0.00    -0.15  -0.03   0.00     0.02   0.03  -0.07
  23   6     0.08   0.07  -0.05     0.14   0.04  -0.02    -0.01  -0.00   0.08
  24   7     0.00   0.09  -0.15     0.05   0.10  -0.01    -0.01  -0.04   0.01
  25  16    -0.14   0.13  -0.04    -0.12  -0.03   0.01    -0.02  -0.10  -0.03
  26   7    -0.01   0.04   0.08     0.06  -0.12   0.01    -0.02   0.00   0.12
  27   6     0.07   0.04  -0.02     0.16  -0.05   0.02    -0.00   0.00   0.08
  28  16     0.23  -0.07   0.06    -0.03   0.21   0.04     0.14  -0.05  -0.01
  29  16    -0.13   0.01  -0.03    -0.34  -0.07  -0.12    -0.00  -0.00  -0.16
  30  17    -0.00  -0.00  -0.01    -0.00  -0.00   0.00    -0.00  -0.00  -0.01
  31   1     0.03   0.03   0.02     0.01  -0.04  -0.03     0.04   0.05   0.03
  32   1     0.03  -0.01   0.02    -0.02   0.01   0.00     0.00  -0.02   0.11
  33   1     0.03   0.03   0.02     0.01   0.00   0.00     0.07   0.12   0.11
  34   1     0.00  -0.00  -0.05     0.05   0.02  -0.03     0.04   0.06  -0.12
  35   1     0.03   0.01  -0.00     0.08   0.00   0.03     0.12   0.03   0.01
  36   1    -0.08   0.02  -0.00     0.07  -0.08   0.02     0.00  -0.15  -0.02
  37   1    -0.02   0.02  -0.01    -0.04  -0.04   0.09    -0.04  -0.06   0.15
  38   1    -0.02  -0.02   0.02     0.07   0.05  -0.06    -0.07   0.01  -0.07
  39   1    -0.04   0.03  -0.05     0.06  -0.10   0.01    -0.07   0.02   0.02
  40   1     0.02  -0.01   0.04     0.04   0.02  -0.02    -0.02   0.00   0.03
  41   1     0.02  -0.00   0.01    -0.09  -0.11  -0.07     0.08   0.01   0.09
  42   1     0.03   0.00  -0.01    -0.16  -0.01   0.07     0.13  -0.07   0.00
  43   1     0.02  -0.01  -0.01    -0.10   0.03   0.05     0.04   0.05   0.09
  44   1    -0.01  -0.01  -0.04     0.03  -0.01   0.01    -0.01  -0.02  -0.05
  45   1     0.00   0.03   0.06     0.03   0.01  -0.00    -0.02   0.01   0.04
  46   1    -0.00  -0.11  -0.16    -0.04  -0.01  -0.01     0.00   0.04   0.05
  47   1     0.09   0.08  -0.05    -0.08  -0.01  -0.04     0.01  -0.04   0.04
  48   1     0.08   0.05  -0.11    -0.06   0.04   0.03     0.01  -0.04   0.01
  49   1     0.00  -0.00   0.02     0.02   0.02   0.01    -0.00   0.00  -0.01
  50   1    -0.00   0.07  -0.17    -0.02   0.03  -0.02    -0.01  -0.04   0.09
                     31                     32                     33
                        a                      a                      a 
 Frequencies --   343.4826               356.5165               381.9227
 Red. masses --    14.7819                14.2380                13.4998
 Frc consts  --     0.0000                 0.0000                 0.0000
 IR Inten    --     2.6902                 6.3581                 1.3619
 Raman Activ --     0.0000                 0.0000                 0.0000
 Depolar     --     0.0000                 0.0000                 0.0000
 Atom AN      X      Y      Z        X      Y      Z        X      Y      Z
   1   7     0.04   0.13   0.15     0.06   0.06   0.08     0.01   0.04   0.05
   2   6    -0.01   0.09  -0.08     0.04   0.04  -0.04    -0.01   0.02  -0.02
   3   6    -0.01  -0.13   0.01    -0.04  -0.08   0.06     0.06  -0.06  -0.02
   4   6    -0.02  -0.02  -0.15    -0.06   0.11  -0.14     0.04   0.06  -0.14
   5   6    -0.15   0.03  -0.08    -0.02   0.05  -0.11    -0.01   0.02   0.00
   6   6    -0.12   0.08   0.16    -0.02  -0.14   0.10    -0.01  -0.00   0.12
   7   6    -0.00   0.10   0.16    -0.01  -0.12   0.08    -0.03   0.06  -0.01
   8   6    -0.10  -0.06  -0.05     0.07   0.07  -0.03    -0.10   0.01  -0.15
   9   6    -0.07  -0.04  -0.12     0.06   0.12  -0.12    -0.03  -0.01  -0.06
  10   6    -0.04  -0.07   0.01     0.04  -0.08   0.08    -0.01  -0.00   0.16
  11   6     0.01  -0.03  -0.04    -0.00  -0.04  -0.05    -0.04   0.07   0.03
  12   6    -0.02  -0.12   0.13     0.03  -0.18   0.26     0.03  -0.03   0.17
  13   6     0.02   0.02   0.16    -0.01  -0.01   0.13     0.10  -0.12  -0.09
  14   6     0.10   0.06   0.14     0.01  -0.01   0.11     0.18  -0.16  -0.26
  15   6     0.12  -0.00  -0.19     0.01  -0.08  -0.09     0.13   0.13   0.25
  16   6     0.11   0.00  -0.16    -0.12   0.01  -0.04     0.03   0.15   0.21
  17   6     0.08  -0.06   0.00    -0.13   0.12   0.03    -0.03   0.02   0.10
  18   6     0.08  -0.10   0.17    -0.21   0.04   0.06    -0.14  -0.02  -0.11
  19   6    -0.18   0.04  -0.01     0.21  -0.04  -0.02     0.13  -0.14  -0.05
  20   6     0.07  -0.01   0.10    -0.18  -0.07   0.00    -0.16  -0.02  -0.12
  21   6    -0.00   0.12  -0.19     0.01  -0.06  -0.12    -0.14  -0.12   0.12
  22  16    -0.12  -0.09   0.09     0.15   0.11   0.10    -0.10   0.09  -0.08
  23   6     0.09   0.06  -0.02    -0.18  -0.06  -0.06     0.11   0.06  -0.05
  24   7     0.04   0.10   0.02    -0.06  -0.11  -0.01     0.09   0.06  -0.12
  25  16     0.01   0.07  -0.04     0.16   0.09   0.04     0.00   0.06   0.05
  26   7     0.06  -0.03  -0.03    -0.06   0.11  -0.12     0.09  -0.08  -0.01
  27   6     0.06  -0.00   0.03    -0.17   0.04  -0.08     0.12  -0.07  -0.04
  28  16    -0.23  -0.16  -0.18     0.26   0.06  -0.09    -0.31  -0.00  -0.01
  29  16     0.26   0.05   0.03    -0.17  -0.04   0.00     0.10  -0.03   0.07
  30  17     0.00   0.00   0.00    -0.00   0.00   0.00     0.00   0.00   0.00
  31   1     0.01   0.06   0.04     0.02   0.02   0.02     0.00   0.02   0.02
  32   1     0.01  -0.03   0.07     0.01  -0.01   0.04     0.01  -0.01   0.02
  33   1     0.03   0.08   0.07     0.02   0.04   0.04     0.00   0.02   0.02
  34   1    -0.00   0.03  -0.05     0.01   0.01  -0.05    -0.00   0.01   0.00
  35   1     0.02   0.02  -0.01     0.05   0.01   0.01    -0.01   0.01  -0.01
  36   1     0.04  -0.13  -0.03     0.05  -0.12  -0.01     0.06  -0.07  -0.02
  37   1    -0.02  -0.06   0.11    -0.06  -0.05   0.11    -0.01  -0.03   0.05
  38   1    -0.08   0.00  -0.04     0.01   0.03  -0.05    -0.02  -0.00  -0.00
  39   1    -0.06   0.03   0.08    -0.00  -0.06   0.06    -0.00  -0.01   0.06
  40   1    -0.01  -0.01  -0.06     0.01   0.06  -0.07     0.01  -0.01  -0.04
  41   1     0.00   0.01  -0.00    -0.01   0.00  -0.03    -0.02   0.04   0.00
  42   1     0.01  -0.01  -0.02    -0.02   0.02  -0.01    -0.02   0.05   0.00
  43   1     0.02  -0.01  -0.02     0.02  -0.03  -0.04    -0.00  -0.01  -0.03
  44   1     0.05   0.02   0.08    -0.01   0.01   0.06     0.07  -0.08  -0.13
  45   1     0.04  -0.01  -0.08     0.02  -0.02  -0.06     0.06   0.08   0.13
  46   1    -0.05  -0.03  -0.04     0.08  -0.03  -0.02     0.03  -0.02   0.00
  47   1    -0.10   0.01  -0.07     0.14   0.07   0.05     0.10  -0.01   0.05
  48   1    -0.08   0.09   0.04     0.10  -0.10  -0.07     0.07  -0.11  -0.07
  49   1     0.04   0.02   0.04    -0.08  -0.05  -0.01    -0.05  -0.00  -0.05
  50   1    -0.01   0.07  -0.10     0.02  -0.04  -0.06    -0.03  -0.06   0.05
                     34                     35                     36
                        a                      a                      a 
 Frequencies --   399.9744               415.9747               431.8567
 Red. masses --    13.5974                12.2914                13.5702
 Frc consts  --     0.0000                 0.0000                 0.0000
 IR Inten    --     1.5064                 4.4948                 1.9137
 Raman Activ --     0.0000                 0.0000                 0.0000
 Depolar     --     0.0000                 0.0000                 0.0000
 Atom AN      X      Y      Z        X      Y      Z        X      Y      Z
   1   7    -0.04  -0.03  -0.05     0.03   0.08   0.10     0.04   0.05   0.07
   2   6    -0.01  -0.02   0.03    -0.15   0.03  -0.16    -0.07   0.02  -0.08
   3   6    -0.03   0.06   0.00    -0.12  -0.15  -0.07     0.05  -0.10  -0.07
   4   6    -0.01  -0.16   0.22    -0.09   0.08  -0.07     0.03   0.18  -0.24
   5   6    -0.04  -0.01   0.00    -0.02  -0.04   0.08     0.06  -0.05   0.15
   6   6    -0.02   0.14  -0.13     0.01  -0.01   0.01     0.05  -0.07   0.05
   7   6     0.02   0.01   0.12     0.09   0.06  -0.12    -0.02   0.10  -0.28
   8   6    -0.04  -0.18   0.18     0.08  -0.07  -0.12    -0.01   0.11  -0.16
   9   6     0.04  -0.07   0.01     0.25  -0.11   0.03    -0.05  -0.08   0.19
  10   6     0.07   0.15  -0.20     0.27  -0.00  -0.01    -0.05   0.03  -0.01
  11   6    -0.05  -0.03   0.00    -0.07  -0.15  -0.09    -0.00   0.05   0.02
  12   6     0.05   0.12  -0.13     0.08   0.16  -0.07    -0.02   0.14  -0.27
  13   6     0.08  -0.00   0.11     0.03   0.15   0.08    -0.00  -0.03  -0.12
  14   6     0.08   0.00   0.17    -0.18   0.03   0.07     0.02   0.05   0.05
  15   6     0.10  -0.05  -0.15    -0.17  -0.14  -0.11     0.03   0.07   0.01
  16   6    -0.00   0.04  -0.08    -0.07  -0.11   0.06     0.03   0.02  -0.14
  17   6    -0.08   0.16  -0.02    -0.06  -0.06   0.20     0.01   0.14  -0.26
  18   6    -0.26   0.01   0.02    -0.00   0.06  -0.04    -0.09  -0.01   0.01
  19   6     0.14  -0.09  -0.03     0.01   0.04   0.02     0.03  -0.03  -0.02
  20   6    -0.26  -0.10   0.00     0.02   0.06  -0.13    -0.10  -0.09   0.16
  21   6    -0.09  -0.08  -0.13     0.02  -0.07   0.18    -0.02   0.04  -0.23
  22  16     0.05   0.21   0.14     0.09   0.06  -0.10     0.01   0.06   0.18
  23   6     0.06   0.01  -0.03     0.07  -0.02  -0.02     0.01  -0.01   0.02
  24   7     0.07   0.01  -0.04     0.01  -0.00  -0.09     0.03   0.02   0.13
  25  16     0.01  -0.10   0.07    -0.14   0.01   0.06     0.03  -0.22  -0.03
  26   7     0.06  -0.09   0.02     0.01  -0.06  -0.06     0.01  -0.01   0.16
  27   6     0.10  -0.06   0.02     0.09   0.01  -0.02     0.04  -0.04   0.04
  28  16    -0.18  -0.03  -0.05    -0.07  -0.01   0.07     0.01  -0.01   0.14
  29  16     0.14   0.12  -0.08     0.08   0.15   0.16    -0.08  -0.09   0.14
  30  17    -0.00  -0.00   0.00     0.00  -0.00   0.00     0.00   0.00  -0.00
  31   1    -0.01  -0.01  -0.02     0.02   0.08   0.06     0.01   0.04   0.05
  32   1    -0.02   0.01  -0.02     0.05  -0.06   0.06     0.04  -0.03   0.03
  33   1    -0.01  -0.02  -0.02     0.02   0.06   0.06     0.01   0.03   0.03
  34   1    -0.00  -0.00   0.01    -0.05  -0.01  -0.04    -0.02  -0.01   0.01
  35   1    -0.00  -0.01   0.01    -0.05   0.00  -0.05    -0.05   0.00  -0.04
  36   1    -0.09   0.10   0.02     0.02  -0.16  -0.07     0.11  -0.14  -0.05
  37   1     0.04   0.05  -0.09    -0.08  -0.07   0.10    -0.05  -0.06   0.10
  38   1    -0.02  -0.00  -0.00     0.01  -0.02   0.05     0.03  -0.03   0.09
  39   1    -0.02   0.07  -0.07    -0.01   0.01   0.01     0.03  -0.04   0.03
  40   1     0.03  -0.05   0.02     0.10  -0.07   0.02    -0.02  -0.05   0.11
  41   1    -0.01  -0.08  -0.02    -0.03  -0.13  -0.10     0.00   0.02   0.02
  42   1    -0.03  -0.04   0.03    -0.11   0.01   0.02     0.02   0.00  -0.00
  43   1    -0.04   0.04   0.06    -0.04  -0.05  -0.03    -0.00   0.02   0.01
  44   1     0.03   0.01   0.08    -0.09   0.04   0.03     0.02   0.02   0.03
  45   1     0.06  -0.02  -0.09    -0.06  -0.07  -0.06     0.01   0.03   0.01
  46   1     0.07  -0.04  -0.02     0.01   0.02   0.02     0.02  -0.02  -0.01
  47   1     0.12   0.06   0.04     0.00   0.01   0.01     0.03   0.02   0.01
  48   1     0.07  -0.12  -0.06     0.00  -0.00   0.01     0.02  -0.04  -0.02
  49   1    -0.10  -0.05  -0.00    -0.00   0.02  -0.07    -0.04  -0.05   0.09
  50   1     0.00  -0.06  -0.07     0.01  -0.03   0.08     0.01   0.00  -0.09
                     37                     38                     39
                        a                      a                      a 
 Frequencies --   449.2110               473.4407               482.5651
 Red. masses --    13.7308                15.5396                10.5863
 Frc consts  --     0.0000                 0.0000                 0.0000
 IR Inten    --     0.5237                25.6626                10.7327
 Raman Activ --     0.0000                 0.0000                 0.0000
 Depolar     --     0.0000                 0.0000                 0.0000
 Atom AN      X      Y      Z        X      Y      Z        X      Y      Z
   1   7     0.00   0.03   0.03     0.01   0.01   0.01    -0.03  -0.06  -0.08
   2   6    -0.12   0.00  -0.10    -0.01   0.00  -0.01     0.19  -0.01   0.18
   3   6    -0.12  -0.07  -0.04     0.03  -0.01  -0.03    -0.04   0.15   0.16
   4   6    -0.07  -0.05   0.14     0.02   0.04  -0.06    -0.06  -0.07  -0.02
   5   6     0.02  -0.02   0.00     0.02  -0.03   0.07    -0.17   0.11  -0.26
   6   6     0.04   0.02  -0.09     0.01   0.01  -0.04    -0.15  -0.07   0.27
   7   6     0.09  -0.07   0.08    -0.02   0.03  -0.07    -0.01   0.08   0.02
   8   6     0.07  -0.15   0.06    -0.00   0.01   0.05     0.01   0.13  -0.28
   9   6     0.20  -0.03  -0.10    -0.05  -0.01   0.07     0.15  -0.03   0.03
  10   6     0.21   0.04  -0.02    -0.06   0.04  -0.09     0.17  -0.12   0.14
  11   6    -0.04  -0.09  -0.05     0.01   0.01   0.02     0.03  -0.11  -0.07
  12   6     0.05   0.05   0.13    -0.03   0.02  -0.09     0.05   0.10  -0.09
  13   6     0.02  -0.01  -0.05    -0.04   0.07   0.17     0.00   0.10  -0.02
  14   6     0.09  -0.07  -0.25     0.04   0.04  -0.05    -0.13   0.01  -0.07
  15   6     0.05   0.08   0.27     0.05   0.05  -0.05    -0.14   0.02   0.06
  16   6    -0.02   0.02   0.00     0.02   0.11   0.16    -0.04  -0.04  -0.01
  17   6     0.03   0.07  -0.29     0.04   0.03  -0.12    -0.02   0.06  -0.17
  18   6     0.07   0.02  -0.02     0.03  -0.01  -0.03    -0.01   0.06  -0.07
  19   6    -0.01   0.03   0.00    -0.02  -0.02   0.00     0.01   0.03   0.00
  20   6     0.06  -0.04   0.19     0.02  -0.02   0.08    -0.02  -0.04   0.13
  21   6     0.05   0.10  -0.17    -0.00   0.04  -0.06     0.03   0.04  -0.11
  22  16    -0.03  -0.15   0.07    -0.05  -0.06   0.02     0.03   0.00   0.07
  23   6    -0.18  -0.09   0.00    -0.05   0.08   0.22     0.06   0.02   0.03
  24   7    -0.11  -0.11   0.12     0.01  -0.23  -0.46     0.05   0.00  -0.04
  25  16     0.08  -0.06   0.01     0.01   0.09   0.34    -0.07  -0.10   0.08
  26   7    -0.13   0.08  -0.08     0.02  -0.20  -0.48     0.04  -0.08  -0.06
  27   6    -0.17   0.05  -0.03    -0.05   0.09   0.22     0.09   0.02   0.06
  28  16    -0.17   0.17   0.04     0.07  -0.03  -0.01    -0.04  -0.06   0.06
  29  16     0.10   0.19   0.03    -0.04  -0.04   0.01     0.07  -0.02  -0.02
  30  17     0.00   0.00   0.00    -0.00  -0.00   0.01     0.00   0.00   0.00
  31   1     0.01   0.05   0.02     0.00   0.00   0.01    -0.02  -0.08  -0.07
  32   1     0.02  -0.04   0.03     0.01  -0.01   0.00    -0.06   0.08  -0.05
  33   1     0.01   0.03   0.03    -0.00   0.00   0.00    -0.01  -0.05  -0.04
  34   1    -0.04  -0.01  -0.03    -0.00  -0.00   0.01     0.06   0.03  -0.04
  35   1    -0.04  -0.00  -0.03    -0.02  -0.00  -0.01     0.14   0.00   0.09
  36   1    -0.06  -0.05  -0.04     0.03  -0.02  -0.01    -0.05   0.15   0.09
  37   1    -0.03  -0.02   0.01    -0.00  -0.01   0.01     0.03   0.07  -0.07
  38   1     0.03   0.00   0.00     0.01  -0.02   0.04    -0.08   0.06  -0.15
  39   1    -0.00   0.03  -0.05     0.01   0.00  -0.02    -0.07  -0.04   0.16
  40   1     0.08  -0.01  -0.06    -0.02  -0.01   0.04     0.06  -0.03   0.02
  41   1    -0.01  -0.10  -0.06     0.01   0.01   0.02    -0.01  -0.04  -0.05
  42   1    -0.07   0.01   0.02     0.03  -0.03   0.00    -0.04   0.03  -0.01
  43   1    -0.04  -0.03  -0.01    -0.00   0.02   0.03     0.01  -0.07  -0.07
  44   1     0.02  -0.04  -0.13     0.03  -0.03  -0.09    -0.06   0.00  -0.05
  45   1     0.01   0.05   0.14     0.01  -0.02  -0.09    -0.06  -0.00   0.02
  46   1    -0.02   0.02   0.01    -0.00   0.00   0.01     0.01   0.03   0.02
  47   1    -0.02  -0.02  -0.00    -0.02  -0.02  -0.01     0.01  -0.00   0.01
  48   1    -0.01   0.03   0.01    -0.01   0.00   0.01     0.00  -0.01   0.00
  49   1     0.01  -0.03   0.11     0.01  -0.01   0.05    -0.02  -0.03   0.08
  50   1     0.01   0.05  -0.06    -0.00   0.02  -0.02     0.01   0.01  -0.03
                     40                     41                     42
                        a                      a                      a 
 Frequencies --   500.1500               510.3119               526.4030
 Red. masses --    12.2684                15.5697                12.0168
 Frc consts  --     0.0000                 0.0000                 0.0000
 IR Inten    --    26.1269                16.3376                 5.2806
 Raman Activ --     0.0000                 0.0000                 0.0000
 Depolar     --     0.0000                 0.0000                 0.0000
 Atom AN      X      Y      Z        X      Y      Z        X      Y      Z
   1   7    -0.01  -0.03  -0.03    -0.00   0.00   0.00    -0.00  -0.03  -0.02
   2   6     0.13   0.00   0.12    -0.04  -0.01  -0.03     0.14   0.01   0.13
   3   6     0.05   0.09   0.07    -0.08  -0.02   0.01     0.08   0.10   0.05
   4   6     0.00   0.05  -0.19    -0.04  -0.06   0.13     0.00   0.16  -0.37
   5   6    -0.12   0.01   0.03     0.04   0.04  -0.14    -0.15  -0.12   0.29
   6   6    -0.12   0.03   0.11     0.05  -0.09   0.06    -0.15   0.17  -0.16
   7   6    -0.06   0.16  -0.15     0.06  -0.06   0.02    -0.05   0.09  -0.01
   8   6    -0.06  -0.00  -0.04     0.07   0.07  -0.12    -0.00  -0.14   0.30
   9   6     0.10  -0.08   0.16     0.00  -0.02  -0.00     0.11   0.08  -0.11
  10   6     0.13   0.18  -0.17    -0.01  -0.11   0.03     0.11  -0.10  -0.04
  11   6    -0.02   0.02   0.00     0.02  -0.09  -0.06     0.08  -0.18  -0.10
  12   6     0.13   0.09  -0.10    -0.09   0.00  -0.05    -0.03  -0.07   0.13
  13   6     0.15  -0.04   0.01    -0.11   0.12  -0.11    -0.08   0.13   0.05
  14   6     0.26  -0.00   0.06     0.13   0.36  -0.04    -0.07   0.11  -0.13
  15   6     0.27  -0.17   0.01     0.12   0.25  -0.16    -0.09   0.17   0.02
  16   6     0.01  -0.03   0.05     0.18   0.18   0.00     0.04   0.04  -0.07
  17   6     0.00  -0.03   0.11     0.14  -0.05   0.14     0.03  -0.01   0.02
  18   6     0.02  -0.04   0.10     0.01  -0.19   0.10    -0.00  -0.04   0.01
  19   6    -0.02   0.01   0.01    -0.03  -0.17  -0.06     0.00  -0.05  -0.02
  20   6     0.04   0.04  -0.11     0.00   0.03  -0.16    -0.00   0.00  -0.02
  21   6    -0.00  -0.03   0.10    -0.10  -0.04   0.11    -0.02  -0.01   0.01
  22  16    -0.03  -0.07  -0.07    -0.08   0.14  -0.01    -0.00   0.07   0.02
  23   6    -0.22  -0.11   0.02    -0.06  -0.05   0.04     0.04  -0.02  -0.08
  24   7    -0.19  -0.15   0.06    -0.03  -0.13   0.01     0.04   0.03   0.07
  25  16     0.07   0.08  -0.05     0.04  -0.35   0.15    -0.01  -0.20   0.06
  26   7    -0.19   0.19  -0.04    -0.11   0.02   0.02     0.00  -0.04   0.00
  27   6    -0.21   0.09  -0.09    -0.10   0.01  -0.05     0.02  -0.00   0.00
  28  16    -0.12  -0.07  -0.00     0.01   0.13   0.11     0.02   0.08  -0.04
  29  16     0.02  -0.09   0.03     0.03   0.08   0.00    -0.04  -0.11   0.02
  30  17    -0.00  -0.00  -0.00    -0.00   0.00   0.00    -0.00  -0.00   0.00
  31   1    -0.01  -0.05  -0.03     0.00   0.01   0.00    -0.01  -0.06  -0.03
  32   1    -0.03   0.05  -0.03     0.00  -0.01   0.01    -0.04   0.06  -0.03
  33   1    -0.01  -0.03  -0.03     0.01   0.00   0.01    -0.01  -0.03  -0.03
  34   1     0.04   0.02  -0.00    -0.01  -0.00  -0.02     0.04   0.02  -0.00
  35   1     0.07   0.00   0.05    -0.00  -0.00  -0.00     0.07   0.00   0.05
  36   1     0.04   0.06   0.05    -0.05   0.00  -0.00     0.09   0.04   0.05
  37   1     0.02   0.03  -0.02    -0.01   0.00  -0.01    -0.00   0.02   0.00
  38   1    -0.06  -0.02   0.02     0.03   0.04  -0.08    -0.07  -0.10   0.17
  39   1    -0.05  -0.00   0.07     0.01  -0.03   0.04    -0.06   0.08  -0.08
  40   1     0.06  -0.08   0.10    -0.02   0.01   0.01     0.03   0.06  -0.09
  41   1     0.00  -0.07  -0.02     0.00  -0.01  -0.01     0.02  -0.07  -0.04
  42   1    -0.03  -0.02   0.03     0.01  -0.01  -0.02     0.01  -0.04  -0.02
  43   1    -0.04   0.05   0.06     0.02  -0.04  -0.04     0.02  -0.06  -0.03
  44   1     0.06   0.01   0.03     0.07   0.09   0.02    -0.01   0.02  -0.05
  45   1     0.09  -0.04  -0.00     0.01   0.05  -0.05    -0.05   0.05   0.03
  46   1    -0.01  -0.02  -0.02    -0.02  -0.09  -0.06    -0.00  -0.02  -0.01
  47   1    -0.01   0.01  -0.01    -0.01  -0.02  -0.04     0.00  -0.01  -0.01
  48   1    -0.00   0.03   0.00    -0.01  -0.02  -0.02     0.00  -0.01  -0.01
  49   1     0.02   0.03  -0.07     0.03   0.06  -0.09     0.01   0.01  -0.01
  50   1    -0.01   0.00   0.02    -0.02  -0.01   0.01    -0.00  -0.01  -0.00
                     43                     44                     45
                        a                      a                      a 
 Frequencies --   544.9338               548.7763               550.6346
 Red. masses --    16.9816                20.3304                13.0934
 Frc consts  --     0.0000                 0.0000                 0.0000
 IR Inten    --     1.3237                 6.7386                 0.2660
 Raman Activ --     0.0000                 0.0000                 0.0000
 Depolar     --     0.0000                 0.0000                 0.0000
 Atom AN      X      Y      Z        X      Y      Z        X      Y      Z
   1   7     0.01   0.01   0.01    -0.00  -0.00  -0.00    -0.00  -0.00  -0.00
   2   6    -0.01   0.01  -0.01     0.00  -0.00   0.01     0.02   0.00   0.02
   3   6     0.08  -0.02  -0.05    -0.01   0.01   0.01     0.03   0.02  -0.00
   4   6     0.06   0.00  -0.01    -0.01   0.01  -0.01     0.01   0.04  -0.09
   5   6    -0.01  -0.00   0.10    -0.00  -0.01  -0.01    -0.03  -0.05   0.12
   6   6    -0.01   0.11  -0.09    -0.00  -0.01   0.00    -0.04   0.08  -0.12
   7   6    -0.05  -0.09   0.23     0.01   0.01  -0.03    -0.01  -0.10   0.22
   8   6    -0.08   0.02  -0.08     0.02   0.00   0.03     0.00   0.05  -0.07
   9   6     0.05   0.08  -0.08    -0.02  -0.01  -0.00     0.03   0.05  -0.08
  10   6     0.05   0.11   0.31    -0.02  -0.07  -0.05     0.04  -0.17   0.12
  11   6    -0.14   0.27   0.16     0.05  -0.10  -0.06     0.06  -0.13  -0.07
  12   6     0.16   0.13  -0.00    -0.05  -0.04  -0.02    -0.00  -0.01  -0.09
  13   6     0.10   0.20  -0.10    -0.02  -0.05  -0.02     0.05  -0.15  -0.33
  14   6     0.00   0.18  -0.06    -0.03  -0.06   0.02     0.06   0.06   0.22
  15   6    -0.01  -0.09   0.03     0.01  -0.20   0.08     0.09  -0.12  -0.20
  16   6     0.03  -0.09   0.08     0.10  -0.20   0.07    -0.02   0.11   0.32
  17   6     0.05  -0.03  -0.01     0.17  -0.11  -0.03    -0.02   0.03   0.01
  18   6     0.03  -0.04  -0.10     0.09  -0.21  -0.19     0.01   0.11  -0.15
  19   6    -0.03  -0.10  -0.05    -0.10  -0.36  -0.15     0.00   0.07   0.03
  20   6     0.00  -0.03   0.06     0.03  -0.03   0.09    -0.01  -0.04   0.13
  21   6    -0.02   0.02  -0.04    -0.07   0.05  -0.05     0.02   0.03  -0.08
  22  16     0.02   0.14   0.06     0.07   0.50   0.20    -0.05  -0.16  -0.04
  23   6    -0.01  -0.08   0.05     0.02  -0.07   0.07    -0.01   0.08   0.21
  24   7    -0.05  -0.09   0.02    -0.08  -0.05  -0.00     0.01  -0.07  -0.16
  25  16    -0.11  -0.15   0.05    -0.07   0.33  -0.13    -0.01   0.03  -0.01
  26   7    -0.09   0.09  -0.02     0.01   0.03  -0.03    -0.00   0.07   0.15
  27   6     0.01   0.11  -0.07    -0.02   0.02   0.01     0.02  -0.08  -0.19
  28  16     0.11  -0.41  -0.22    -0.05   0.15   0.08    -0.13   0.19   0.13
  29  16    -0.05  -0.03  -0.05     0.01   0.01   0.01    -0.00  -0.00  -0.02
  30  17    -0.00   0.00   0.00     0.00  -0.00  -0.00     0.00  -0.00  -0.00
  31   1     0.00   0.01   0.01    -0.00  -0.00  -0.00    -0.00  -0.01  -0.01
  32   1     0.01  -0.01   0.00    -0.00   0.00  -0.00    -0.01   0.01  -0.00
  33   1    -0.00   0.01   0.00     0.00  -0.00  -0.00    -0.00  -0.00  -0.00
  34   1    -0.01  -0.00   0.03     0.00   0.00  -0.01     0.01   0.00   0.01
  35   1    -0.04   0.00  -0.02     0.01  -0.00   0.00     0.01   0.00   0.01
  36   1     0.03  -0.02  -0.02    -0.00   0.00   0.00     0.03   0.00   0.01
  37   1     0.02  -0.01   0.00    -0.00   0.00   0.00     0.00   0.00   0.00
  38   1    -0.02  -0.01   0.04     0.00  -0.00   0.00    -0.02  -0.03   0.06
  39   1     0.01   0.05  -0.09    -0.00  -0.00   0.01    -0.02   0.06  -0.09
  40   1     0.07  -0.00  -0.08    -0.02   0.01   0.01    -0.00   0.03  -0.04
  41   1    -0.05   0.08   0.02     0.02  -0.02  -0.01     0.01  -0.01  -0.03
  42   1    -0.08   0.14   0.05     0.03  -0.04  -0.02     0.01   0.00  -0.03
  43   1    -0.03   0.03  -0.01     0.02  -0.03  -0.01     0.04  -0.07  -0.07
  44   1    -0.06   0.08  -0.02    -0.03  -0.01   0.00     0.01   0.05   0.15
  45   1    -0.05  -0.05   0.00    -0.03  -0.08   0.02     0.04  -0.06  -0.14
  46   1    -0.01  -0.01   0.00    -0.04  -0.07  -0.02     0.02   0.06   0.05
  47   1    -0.02  -0.05  -0.01    -0.06  -0.15  -0.06    -0.01  -0.01   0.02
  48   1    -0.01  -0.03  -0.00    -0.04  -0.08  -0.02    -0.01  -0.01   0.02
  49   1     0.01  -0.00   0.05     0.06   0.03   0.08    -0.01  -0.04   0.09
  50   1    -0.00  -0.01  -0.00    -0.00  -0.02  -0.01    -0.01   0.01   0.01
                     46                     47                     48
                        a                      a                      a 
 Frequencies --   558.4295               574.4657               576.7109
 Red. masses --    11.7995                10.9965                12.5939
 Frc consts  --     0.0000                 0.0000                 0.0000
 IR Inten    --     2.4691                 1.4847                16.6335
 Raman Activ --     0.0000                 0.0000                 0.0000
 Depolar     --     0.0000                 0.0000                 0.0000
 Atom AN      X      Y      Z        X      Y      Z        X      Y      Z
   1   7    -0.00  -0.01  -0.00     0.00   0.01   0.01    -0.02  -0.06  -0.05
   2   6    -0.01  -0.01   0.00    -0.01   0.00  -0.01     0.05  -0.02   0.07
   3   6    -0.09   0.01   0.04     0.04  -0.02  -0.03    -0.38   0.14   0.20
   4   6    -0.05  -0.02   0.05     0.03  -0.03   0.05    -0.25   0.15  -0.26
   5   6     0.02   0.02  -0.14    -0.00   0.04  -0.02     0.05  -0.24   0.01
   6   6     0.04  -0.14   0.17    -0.01  -0.00   0.05     0.08  -0.12  -0.17
   7   6     0.04   0.22  -0.48    -0.02   0.09  -0.14     0.16  -0.16   0.03
   8   6     0.01  -0.26   0.38    -0.02  -0.14   0.25     0.10  -0.07  -0.10
   9   6    -0.01   0.03  -0.11     0.02   0.14  -0.21    -0.08  -0.10  -0.06
  10   6    -0.02   0.08   0.02     0.02  -0.18   0.34    -0.11   0.08   0.07
  11   6    -0.06   0.11   0.07     0.01  -0.02   0.02    -0.11   0.19   0.11
  12   6     0.01  -0.04   0.15     0.05   0.12  -0.25    -0.03   0.04   0.02
  13   6     0.00   0.03  -0.13     0.06  -0.09  -0.19    -0.02  -0.08  -0.07
  14   6    -0.02   0.11   0.03     0.01  -0.05   0.08    -0.03  -0.05   0.04
  15   6    -0.02  -0.01  -0.10     0.02  -0.09   0.07    -0.02   0.01  -0.01
  16   6     0.00   0.07   0.22    -0.02  -0.10  -0.14    -0.01   0.01  -0.02
  17   6     0.02  -0.02   0.06    -0.02   0.08  -0.25     0.01   0.02  -0.09
  18   6     0.03   0.06  -0.20    -0.04  -0.11   0.36    -0.00  -0.05   0.10
  19   6    -0.01  -0.01  -0.01     0.01   0.02   0.03    -0.01  -0.02  -0.00
  20   6    -0.00  -0.05   0.14     0.01   0.08  -0.21     0.01   0.03  -0.06
  21   6     0.00   0.04  -0.09     0.00  -0.05   0.13     0.00  -0.00   0.04
  22  16    -0.03  -0.03  -0.00     0.04   0.03   0.02     0.02   0.02   0.01
  23   6     0.02   0.01   0.05    -0.03   0.05   0.16    -0.01   0.04   0.06
  24   7     0.02  -0.02  -0.04    -0.01  -0.05  -0.07     0.00  -0.00  -0.04
  25  16    -0.04  -0.08   0.02    -0.01   0.07  -0.00     0.02   0.05  -0.01
  26   7    -0.01   0.05   0.09     0.01  -0.02  -0.05     0.02  -0.02   0.01
  27   6     0.03  -0.04  -0.16     0.00   0.05   0.13    -0.01  -0.02   0.03
  28  16     0.05  -0.05  -0.12    -0.07   0.05   0.01     0.04  -0.03  -0.01
  29  16     0.06   0.01   0.08    -0.02  -0.02   0.01     0.29   0.13   0.10
  30  17    -0.00   0.00   0.00    -0.00  -0.00  -0.00     0.00   0.00   0.00
  31   1    -0.00   0.00  -0.01     0.00   0.00   0.01    -0.00  -0.03  -0.05
  32   1    -0.00   0.00  -0.00     0.01  -0.01   0.00    -0.05   0.04  -0.02
  33   1     0.00  -0.01  -0.00    -0.00   0.01   0.00     0.01  -0.05  -0.02
  34   1     0.00   0.00  -0.03    -0.00  -0.00   0.02     0.03   0.01  -0.18
  35   1     0.03  -0.00   0.01    -0.02   0.00  -0.01     0.18  -0.01   0.10
  36   1    -0.04   0.01   0.01     0.00  -0.01  -0.01    -0.07   0.06   0.08
  37   1    -0.02   0.01  -0.00     0.02  -0.00  -0.00    -0.13   0.03   0.02
  38   1     0.02   0.02  -0.05    -0.01   0.01  -0.01     0.08  -0.07   0.07
  39   1     0.01  -0.10   0.16     0.00  -0.02   0.05    -0.00  -0.00  -0.06
  40   1     0.01   0.05  -0.12     0.01   0.10  -0.18    -0.02  -0.03  -0.01
  41   1    -0.01   0.01   0.01    -0.02   0.06  -0.01    -0.03   0.06   0.03
  42   1    -0.02   0.03   0.03    -0.02   0.07  -0.01    -0.03   0.05   0.03
  43   1    -0.02   0.04   0.03     0.04  -0.08  -0.09    -0.03   0.05   0.03
  44   1    -0.02   0.05   0.05    -0.01  -0.00   0.04     0.00  -0.01   0.03
  45   1    -0.02  -0.03  -0.07     0.02  -0.02   0.02     0.00   0.01  -0.01
  46   1     0.01   0.05   0.05    -0.02  -0.08  -0.08    -0.01  -0.03  -0.03
  47   1    -0.01  -0.04   0.01     0.02   0.08  -0.01    -0.00   0.01  -0.01
  48   1    -0.01  -0.03   0.01     0.02   0.07  -0.01     0.00   0.02  -0.00
  49   1    -0.00  -0.03   0.10     0.01   0.05  -0.15     0.01   0.02  -0.04
  50   1    -0.01   0.00   0.01     0.01   0.00  -0.03     0.00   0.00  -0.01
                     49                     50                     51
                        a                      a                      a 
 Frequencies --   599.7611               624.1830               629.5439
 Red. masses --    11.5159                12.6516                12.1401
 Frc consts  --     0.0000                 0.0000                 0.0000
 IR Inten    --     0.8379                 2.0716                 6.3033
 Raman Activ --     0.0000                 0.0000                 0.0000
 Depolar     --     0.0000                 0.0000                 0.0000
 Atom AN      X      Y      Z        X      Y      Z        X      Y      Z
   1   7     0.00   0.01   0.01    -0.00  -0.01  -0.00     0.00   0.01   0.01
   2   6     0.00   0.01  -0.00    -0.01  -0.00  -0.00     0.01   0.00   0.01
   3   6     0.08  -0.02  -0.03    -0.04   0.01   0.02     0.06  -0.01  -0.02
   4   6     0.04  -0.02   0.03    -0.02   0.01  -0.00     0.03  -0.02   0.00
   5   6    -0.04   0.04   0.01     0.03  -0.01  -0.01    -0.04   0.02   0.00
   6   6    -0.04   0.03   0.03     0.03  -0.02  -0.01    -0.04   0.02   0.01
   7   6    -0.02   0.02   0.02     0.00  -0.01  -0.01    -0.01   0.01   0.01
   8   6    -0.02   0.03  -0.09    -0.00   0.03  -0.01    -0.01  -0.04  -0.04
   9   6     0.07  -0.07   0.12    -0.08  -0.02   0.05     0.09  -0.04   0.02
  10   6     0.08   0.18  -0.24    -0.07   0.02  -0.15     0.09   0.10  -0.03
  11   6    -0.00   0.03  -0.01     0.02  -0.05  -0.04    -0.02   0.07   0.03
  12   6     0.02  -0.15   0.38    -0.01  -0.20   0.23     0.07  -0.05   0.15
  13   6    -0.01  -0.05  -0.20     0.05   0.16  -0.29     0.03  -0.24  -0.39
  14   6    -0.16  -0.01   0.02     0.11   0.29  -0.09    -0.06  -0.11   0.11
  15   6    -0.16   0.01  -0.05     0.11  -0.22   0.15    -0.10   0.17  -0.02
  16   6    -0.07   0.07   0.21     0.11  -0.30  -0.14    -0.05  -0.00  -0.45
  17   6     0.02   0.09  -0.42    -0.00   0.07   0.02    -0.06  -0.17   0.29
  18   6    -0.01  -0.17   0.28    -0.02   0.12   0.05     0.02   0.01  -0.15
  19   6    -0.03  -0.10  -0.02     0.08   0.23   0.09    -0.02  -0.08  -0.04
  20   6     0.03   0.11  -0.12    -0.02  -0.16  -0.06     0.00   0.04   0.07
  21   6     0.02   0.03   0.12    -0.08  -0.17  -0.08     0.04   0.07  -0.02
  22  16     0.06   0.04   0.05    -0.10   0.01  -0.00     0.07   0.06   0.00
  23   6     0.03   0.09   0.14     0.13  -0.05   0.16    -0.08   0.19   0.24
  24   7     0.07   0.00  -0.09     0.06  -0.07  -0.00    -0.01   0.01  -0.12
  25  16    -0.03  -0.04   0.01    -0.23  -0.00  -0.00     0.13  -0.07   0.06
[...]
  29  16     0.00  -0.00   0.00    -0.00   0.00  -0.00    -0.00   0.00   0.00
  30  17    -0.00  -0.00   0.00     0.00   0.00   0.00    -0.00   0.00  -0.00
  31   1    -0.00  -0.00  -0.00    -0.00  -0.00  -0.00    -0.00  -0.00  -0.00
  32   1     0.00   0.00   0.00     0.00   0.00   0.00     0.00   0.00   0.00
  33   1    -0.00  -0.00   0.00    -0.00  -0.00   0.00    -0.00  -0.00   0.00
  34   1     0.00   0.00  -0.00     0.00  -0.00  -0.00    -0.00   0.00  -0.00
  35   1    -0.00  -0.00   0.00     0.00   0.00  -0.00     0.00   0.00  -0.00
  36   1    -0.00   0.00   0.00     0.00   0.00  -0.00    -0.00  -0.00   0.00
  37   1     0.00  -0.00  -0.00     0.00  -0.00  -0.00     0.00  -0.00  -0.00
  38   1    -0.00   0.00   0.00    -0.00   0.00   0.00    -0.00   0.00   0.00
  39   1     0.00   0.00   0.00     0.00   0.00   0.00     0.00   0.00   0.00
  40   1     0.00  -0.00  -0.00     0.00   0.00   0.00     0.00   0.01   0.00
  41   1    -0.00  -0.00   0.00    -0.01  -0.00   0.00    -0.64  -0.16   0.31
  42   1    -0.00  -0.00  -0.00    -0.01  -0.00  -0.01    -0.36  -0.18  -0.47
  43   1    -0.00   0.01  -0.01     0.00  -0.00   0.00     0.04   0.01   0.01
  44   1     0.00   0.00  -0.00    -0.00  -0.00   0.00    -0.01  -0.01   0.00
  45   1    -0.00   0.00  -0.00    -0.01   0.01  -0.00    -0.00   0.00  -0.00
  46   1    -0.13  -0.60   0.66     0.06   0.05  -0.07    -0.00   0.00  -0.00
  47   1    -0.22   0.12   0.14    -0.47   0.21   0.40     0.01  -0.00  -0.01
  48   1     0.14   0.01   0.05    -0.57   0.03  -0.40     0.01  -0.00   0.01
  49   1    -0.00   0.00   0.00     0.01  -0.01  -0.00     0.00  -0.00   0.00
  50   1     0.00   0.00   0.00    -0.00  -0.00  -0.00    -0.00  -0.00  -0.00
                    133                    134                    135
                        a                      a                      a 
 Frequencies --  3017.6836              3018.3996              3086.2936
 Red. masses --     1.3078                 1.3185                 1.8042
 Frc consts  --     0.0000                 0.0000                 0.0000
 IR Inten    --    43.5201                36.5152                56.1152
 Raman Activ --     0.0000                 0.0000                 0.0000
 Depolar     --     0.0000                 0.0000                 0.0000
 Atom AN      X      Y      Z        X      Y      Z        X      Y      Z
   1   7    -0.00  -0.00  -0.00     0.00  -0.00  -0.00     0.00  -0.00  -0.00
   2   6     0.00  -0.00  -0.00    -0.00  -0.00   0.00     0.00   0.00  -0.00
   3   6     0.00   0.00  -0.00    -0.00  -0.00  -0.00    -0.00   0.00   0.00
   4   6    -0.00  -0.00  -0.00     0.00   0.00   0.00    -0.01  -0.00  -0.00
   5   6     0.00   0.00   0.00    -0.00  -0.00  -0.00    -0.07   0.15   0.09
   6   6     0.00   0.00   0.00     0.00   0.00   0.00    -0.13  -0.12  -0.07
   7   6    -0.00  -0.00  -0.00     0.00   0.00   0.00    -0.01   0.00   0.00
   8   6     0.00   0.00   0.00    -0.00   0.00   0.00    -0.00   0.00   0.00
   9   6     0.00   0.00   0.00    -0.00  -0.00  -0.00     0.00   0.00   0.00
  10   6     0.00  -0.00  -0.00    -0.00   0.01   0.01    -0.00   0.00   0.00
  11   6     0.00  -0.00  -0.01    -0.04   0.08   0.14    -0.00   0.00   0.00
  12   6     0.00   0.00   0.00    -0.00  -0.00  -0.00     0.00   0.00   0.00
  13   6    -0.00  -0.00   0.00     0.00  -0.00  -0.00    -0.00   0.00   0.00
  14   6    -0.00   0.00  -0.00    -0.00  -0.00   0.00     0.00  -0.00   0.00
  15   6    -0.00   0.00  -0.00    -0.00   0.00  -0.00    -0.00   0.00  -0.00
  16   6     0.00   0.00   0.00    -0.00   0.00   0.00    -0.00   0.00  -0.00
  17   6    -0.00   0.00   0.00     0.00   0.00   0.00     0.00  -0.00  -0.00
  18   6    -0.00  -0.01  -0.00    -0.00  -0.00  -0.00     0.00   0.00   0.00
  19   6    -0.03  -0.10  -0.13    -0.00  -0.00  -0.01    -0.00  -0.00  -0.00
  20   6    -0.00   0.00   0.00    -0.00   0.00   0.00    -0.00   0.00   0.00
  21   6     0.00  -0.00   0.00    -0.00  -0.00  -0.00     0.00   0.00   0.00
  22  16    -0.00  -0.00  -0.00    -0.00   0.00   0.00     0.00  -0.00  -0.00
  23   6    -0.00  -0.00   0.00     0.00  -0.00   0.00    -0.00  -0.00   0.00
  24   7    -0.00   0.00  -0.00     0.00   0.00   0.00    -0.00   0.00  -0.00
  25  16    -0.00  -0.00   0.00    -0.00   0.00  -0.00     0.00   0.00  -0.00
  26   7     0.00  -0.00  -0.00    -0.00  -0.00   0.00     0.00  -0.00   0.00
  27   6     0.00   0.00  -0.00    -0.00   0.00  -0.00     0.00   0.00   0.00
  28  16    -0.00  -0.00  -0.00    -0.00   0.00   0.00     0.00   0.00   0.00
  29  16    -0.00   0.00   0.00    -0.00   0.00   0.00     0.00  -0.00  -0.00
  30  17    -0.00  -0.00  -0.00     0.00   0.00   0.00     0.00  -0.00  -0.00
  31   1     0.00  -0.00  -0.00    -0.00   0.00   0.00    -0.00   0.00  -0.00
  32   1     0.00   0.00   0.00     0.00  -0.00  -0.00     0.00  -0.00   0.00
  33   1    -0.00  -0.00  -0.00     0.00  -0.00   0.00    -0.00  -0.00   0.00
  34   1    -0.00   0.00   0.00    -0.00  -0.00   0.00    -0.00  -0.00  -0.00
  35   1    -0.00  -0.00   0.00     0.00   0.00  -0.00    -0.00   0.00   0.00
  36   1    -0.00  -0.00   0.00    -0.00  -0.00   0.00     0.00   0.00  -0.00
  37   1     0.00  -0.00   0.00    -0.00   0.00  -0.00     0.00  -0.01  -0.00
  38   1    -0.00   0.00   0.00     0.00  -0.00  -0.00     0.27  -0.55  -0.30
  39   1    -0.00  -0.00  -0.00    -0.00  -0.00  -0.00     0.46   0.44   0.24
  40   1    -0.00  -0.00  -0.00     0.01   0.01   0.00    -0.00  -0.00  -0.00
  41   1    -0.02  -0.01   0.01     0.55   0.15  -0.23     0.00   0.00  -0.00
  42   1     0.02   0.01   0.02    -0.45  -0.21  -0.50    -0.00  -0.00  -0.00
  43   1    -0.00   0.01  -0.01     0.03  -0.22   0.22    -0.00  -0.00   0.00
  44   1    -0.00  -0.00  -0.00     0.00   0.00  -0.00     0.00   0.00  -0.00
  45   1     0.00  -0.00   0.00     0.00  -0.00   0.00     0.00  -0.00   0.00
  46   1     0.04   0.20  -0.26     0.00   0.01  -0.01     0.00   0.00  -0.00
  47   1    -0.50   0.21   0.37    -0.02   0.01   0.01    -0.00   0.00   0.00
  48   1     0.55  -0.05   0.35     0.02  -0.00   0.01     0.00  -0.00   0.00
  49   1     0.01  -0.01  -0.00     0.00  -0.00  -0.00     0.01  -0.01  -0.00
  50   1    -0.00  -0.00  -0.00     0.00   0.00   0.00    -0.00  -0.00  -0.00
                    136                    137                    138
                        a                      a                      a 
 Frequencies --  3087.7485              3097.2864              3105.1335
 Red. masses --     1.8442                 1.8990                 1.8487
 Frc consts  --     0.0000                 0.0000                 0.0000
 IR Inten    --    39.6363                96.8237                27.9371
 Raman Activ --     0.0000                 0.0000                 0.0000
 Depolar     --     0.0000                 0.0000                 0.0000
 Atom AN      X      Y      Z        X      Y      Z        X      Y      Z
   1   7    -0.00  -0.00  -0.00     0.00   0.00   0.00     0.00  -0.00  -0.00
   2   6    -0.00  -0.00   0.00     0.00   0.00   0.00    -0.00  -0.00   0.00
   3   6     0.00   0.00  -0.00     0.00  -0.00  -0.00    -0.00   0.00  -0.00
   4   6    -0.00  -0.00  -0.00     0.01   0.00   0.00    -0.00  -0.00  -0.00
   5   6    -0.00   0.00   0.00     0.08  -0.16  -0.09    -0.00   0.01   0.00
   6   6    -0.00  -0.00  -0.00    -0.13  -0.13  -0.07     0.01   0.01   0.00
   7   6    -0.00   0.00   0.00    -0.01   0.00   0.00     0.00   0.00   0.00
   8   6     0.00   0.00   0.00    -0.00  -0.00  -0.00     0.01  -0.00  -0.00
   9   6     0.00   0.00   0.00     0.01   0.01   0.00     0.18   0.18   0.10
  10   6    -0.00  -0.00  -0.00    -0.00   0.00   0.00    -0.00   0.01   0.00
  11   6     0.00   0.00   0.00    -0.00   0.00   0.00     0.00   0.00   0.00
  12   6     0.00   0.00   0.00     0.00   0.00   0.00    -0.00  -0.00  -0.00
  13   6    -0.00   0.00   0.00    -0.00   0.00   0.00     0.00   0.00   0.00
  14   6     0.00   0.00  -0.00     0.00   0.00  -0.00     0.00   0.00  -0.00
  15   6     0.00  -0.00   0.00    -0.00   0.00  -0.00     0.00  -0.00   0.00
  16   6    -0.00  -0.00  -0.00    -0.00   0.00  -0.00    -0.00  -0.00   0.00
  17   6    -0.00   0.00   0.00     0.00  -0.00  -0.00     0.00  -0.00  -0.00
  18   6    -0.00  -0.01  -0.00    -0.00   0.00  -0.00    -0.00   0.00   0.00
  19   6     0.00  -0.00  -0.00    -0.00  -0.00   0.00     0.00   0.00   0.00
  20   6     0.21  -0.17  -0.04     0.00  -0.00  -0.00    -0.00   0.00   0.00
  21   6    -0.02  -0.01  -0.00    -0.00  -0.00  -0.00    -0.00  -0.00  -0.00
  22  16    -0.00   0.00   0.00    -0.00  -0.00  -0.00    -0.00  -0.00  -0.00
  23   6     0.00  -0.00   0.00    -0.00  -0.00   0.00     0.00  -0.00  -0.00
  24   7     0.00   0.00  -0.00     0.00   0.00   0.00     0.00  -0.00   0.00
  25  16    -0.00  -0.00   0.00     0.00   0.00  -0.00    -0.00   0.00  -0.00
  26   7     0.00   0.00  -0.00     0.00  -0.00   0.00     0.00  -0.00   0.00
  27   6     0.00   0.00   0.00     0.00   0.00   0.00     0.00  -0.00   0.00
  28  16    -0.00   0.00  -0.00     0.00  -0.00  -0.00    -0.00  -0.00  -0.00
  29  16    -0.00   0.00   0.00    -0.00   0.00   0.00    -0.00   0.00   0.00
  30  17     0.00   0.00  -0.00     0.00  -0.00   0.00     0.00   0.00   0.00
  31   1     0.00  -0.00   0.00    -0.00   0.00   0.00    -0.00  -0.00  -0.00
  32   1     0.00   0.00   0.00    -0.00  -0.00  -0.00     0.00   0.00   0.00
  33   1     0.00  -0.00  -0.00    -0.00  -0.00   0.00     0.00  -0.00  -0.00
  34   1     0.00   0.00   0.00    -0.00  -0.00  -0.00     0.00   0.00   0.00
  35   1     0.00   0.00  -0.00     0.00  -0.00   0.00     0.00   0.00  -0.00
  36   1     0.00   0.00   0.00    -0.00  -0.00   0.00    -0.00  -0.00   0.00
  37   1     0.00  -0.00   0.00    -0.00   0.01  -0.00     0.00  -0.00  -0.00
  38   1     0.00  -0.01  -0.00    -0.27   0.54   0.30     0.01  -0.02  -0.01
  39   1     0.00   0.00   0.00     0.46   0.44   0.24    -0.02  -0.02  -0.01
  40   1    -0.00  -0.00  -0.00    -0.03  -0.02  -0.01    -0.65  -0.62  -0.35
  41   1    -0.00  -0.00   0.00     0.00   0.00  -0.00    -0.00  -0.00   0.00
  42   1    -0.00  -0.00  -0.00    -0.00  -0.00  -0.00    -0.01  -0.00  -0.01
  43   1    -0.00  -0.00   0.00    -0.00  -0.00   0.00     0.00  -0.00   0.00
  44   1    -0.00  -0.00   0.00    -0.00  -0.00   0.00    -0.00  -0.00   0.00
  45   1    -0.00   0.00  -0.00     0.00  -0.00   0.00    -0.00   0.00  -0.00
  46   1     0.00   0.00  -0.01     0.00   0.00  -0.00    -0.00  -0.00   0.00
  47   1    -0.01   0.01   0.01    -0.00   0.00   0.00     0.00  -0.00  -0.00
  48   1     0.00   0.00  -0.00     0.00  -0.00   0.00    -0.00   0.00  -0.00
  49   1    -0.74   0.59   0.15    -0.00   0.00   0.00     0.00  -0.00  -0.00
  50   1     0.10   0.05   0.03     0.00   0.00   0.00     0.00   0.00   0.00
                    139                    140                    141
                        a                      a                      a 
 Frequencies --  3127.6541              3138.7793              3143.7277
 Red. masses --     1.7809                 1.8613                 1.8918
 Frc consts  --     0.0000                 0.0000                 0.0000
 IR Inten    --    19.0550                31.8101                 3.3715
 Raman Activ --     0.0000                 0.0000                 0.0000
 Depolar     --     0.0000                 0.0000                 0.0000
 Atom AN      X      Y      Z        X      Y      Z        X      Y      Z
   1   7     0.00  -0.00   0.00     0.00   0.00   0.00     0.00  -0.00  -0.00
   2   6     0.00   0.00  -0.00     0.00   0.00  -0.00     0.00  -0.00   0.00
   3   6     0.00   0.00  -0.00    -0.00   0.00   0.00    -0.00   0.00  -0.00
   4   6    -0.00   0.00   0.00    -0.00   0.00   0.00     0.00  -0.00  -0.00
   5   6     0.00  -0.00  -0.00    -0.00   0.00   0.00    -0.00   0.00   0.00
   6   6    -0.00  -0.00  -0.00     0.00   0.00   0.00    -0.00  -0.00  -0.00
   7   6    -0.00   0.00  -0.00     0.00   0.00   0.00     0.00   0.00  -0.00
   8   6    -0.00   0.00   0.00    -0.00  -0.00  -0.00    -0.00  -0.00  -0.00
   9   6     0.00   0.00   0.00     0.00   0.00   0.00     0.00   0.00   0.00
  10   6     0.00   0.00   0.00    -0.00   0.00  -0.00     0.00   0.00   0.00
  11   6     0.00  -0.00   0.00    -0.00   0.00  -0.00    -0.00   0.00  -0.00
  12   6    -0.00  -0.00  -0.00    -0.00   0.00   0.00    -0.00  -0.00  -0.00
  13   6    -0.01  -0.00   0.00     0.00  -0.00   0.00     0.00  -0.00   0.00
  14   6    -0.11  -0.19   0.07     0.07   0.12  -0.04     0.00   0.00  -0.00
  15   6    -0.07   0.10  -0.05    -0.12   0.19  -0.09    -0.00   0.01  -0.00
  16   6    -0.00   0.00  -0.00    -0.01  -0.00  -0.00    -0.00   0.00   0.00
  17   6    -0.00  -0.00   0.00    -0.00   0.00   0.00    -0.00  -0.00  -0.00
  18   6     0.00  -0.00  -0.00     0.00  -0.00  -0.00    -0.00  -0.00  -0.00
  19   6     0.00  -0.00   0.00     0.00  -0.00   0.00     0.00   0.00   0.00
  20   6     0.00  -0.00  -0.00    -0.00   0.00   0.00     0.03  -0.03  -0.01
  21   6    -0.00  -0.00  -0.00    -0.01  -0.00  -0.00     0.23   0.13   0.07
  22  16     0.00   0.00   0.00     0.00   0.00  -0.00    -0.00   0.00   0.00
  23   6     0.00  -0.00   0.00     0.00  -0.00   0.00     0.00  -0.00   0.00
  24   7    -0.00   0.00  -0.00    -0.00   0.00  -0.00     0.00   0.00  -0.00
  25  16     0.00  -0.00   0.00     0.00  -0.00  -0.00    -0.00   0.00  -0.00
  26   7    -0.00  -0.00   0.00     0.00   0.00  -0.00    -0.00   0.00  -0.00
  27   6     0.00   0.00  -0.00    -0.00  -0.00   0.00    -0.00  -0.00   0.00
  28  16     0.00  -0.00  -0.00     0.00   0.00   0.00    -0.00  -0.00   0.00
  29  16     0.00  -0.00  -0.00     0.00  -0.00   0.00    -0.00  -0.00  -0.00
  30  17     0.00  -0.00  -0.00    -0.00   0.00   0.00    -0.00   0.00   0.00
  31   1    -0.00   0.00   0.00    -0.00   0.00   0.00    -0.00  -0.00  -0.00
  32   1    -0.00  -0.00  -0.00    -0.00  -0.00  -0.00     0.00   0.00   0.00
  33   1     0.00   0.00  -0.00    -0.00  -0.00   0.00     0.00   0.00  -0.00
  34   1    -0.00  -0.00   0.00    -0.00  -0.00  -0.00    -0.00  -0.00  -0.00
  35   1     0.00  -0.00   0.00    -0.00  -0.00   0.00     0.00  -0.00  -0.00
  36   1    -0.00  -0.00   0.00     0.00   0.00  -0.00    -0.00  -0.00   0.00
  37   1    -0.00   0.00   0.00     0.00  -0.00  -0.00     0.00  -0.00  -0.00
  38   1    -0.00   0.00   0.00     0.00  -0.00  -0.00     0.00  -0.00  -0.00
  39   1     0.00   0.00   0.00    -0.00  -0.00  -0.00     0.00   0.00   0.00
  40   1    -0.00  -0.00  -0.00    -0.00  -0.00  -0.00    -0.00  -0.00  -0.00
  41   1    -0.01  -0.00   0.00     0.00   0.00  -0.00     0.00   0.00  -0.00
  42   1    -0.00  -0.00  -0.00     0.00   0.00   0.00    -0.00  -0.00  -0.00
  43   1    -0.00   0.00  -0.00     0.00  -0.00   0.00     0.00  -0.00   0.00
  44   1     0.38   0.69  -0.25    -0.22  -0.41   0.15    -0.01  -0.01   0.00
  45   1     0.25  -0.39   0.18     0.42  -0.65   0.30     0.01  -0.02   0.01
  46   1    -0.00  -0.00   0.00    -0.00  -0.00   0.00    -0.00  -0.00   0.00
  47   1    -0.00   0.00   0.00    -0.01   0.00   0.00     0.00  -0.00  -0.00
  48   1    -0.00  -0.00  -0.00    -0.00   0.00  -0.00    -0.00   0.00  -0.00
  49   1    -0.00   0.00   0.00     0.00  -0.00  -0.00    -0.08   0.06   0.02
  50   1     0.00   0.00   0.00     0.02   0.01   0.01    -0.82  -0.43  -0.24
                    142                    143                    144
                        a                      a                      a 
 Frequencies --  3238.5054              3249.2365              3271.6198
 Red. masses --     2.0421                 2.0554                 1.2868
 Frc consts  --     0.0000                 0.0000                 0.0000
 IR Inten    --   383.6850               190.2668                56.0342
 Raman Activ --     0.0000                 0.0000                 0.0000
 Depolar     --     0.0000                 0.0000                 0.0000
 Atom AN      X      Y      Z        X      Y      Z        X      Y      Z
   1   7    -0.28  -0.05  -0.04    -0.03   0.00   0.28     0.01  -0.14   0.02
   2   6    -0.01   0.00   0.00    -0.00  -0.00   0.01     0.00  -0.01   0.00
   3   6     0.00   0.00  -0.00    -0.00  -0.00   0.00     0.00   0.00  -0.00
   4   6     0.00   0.00  -0.00    -0.00  -0.00   0.00    -0.00  -0.00   0.00
   5   6     0.00  -0.00  -0.00    -0.00   0.00   0.00     0.00  -0.00  -0.00
   6   6    -0.00  -0.00  -0.00     0.00   0.00   0.00     0.00  -0.00  -0.00
   7   6    -0.00  -0.00  -0.00    -0.00  -0.00  -0.00     0.00   0.00   0.00
   8   6     0.00   0.00   0.00     0.00   0.00  -0.00    -0.00   0.00  -0.00
   9   6     0.00   0.00   0.00     0.00   0.00   0.00    -0.00  -0.00  -0.00
  10   6     0.00   0.00   0.00    -0.00  -0.00   0.00    -0.00  -0.00  -0.00
  11   6     0.00  -0.00  -0.00     0.00   0.00  -0.00    -0.00  -0.00   0.00
  12   6     0.00  -0.00  -0.00     0.00   0.00  -0.00     0.00   0.00  -0.00
  13   6    -0.00  -0.00  -0.00    -0.00  -0.00   0.00    -0.00   0.00   0.00
  14   6     0.00   0.00  -0.00     0.00   0.00   0.00     0.00   0.00  -0.00
  15   6    -0.00   0.00  -0.00     0.00  -0.00   0.00    -0.00   0.00  -0.00
  16   6    -0.00   0.00  -0.00    -0.00   0.00   0.00     0.00  -0.00   0.00
  17   6     0.00  -0.00  -0.00     0.00   0.00   0.00     0.00  -0.00  -0.00
  18   6    -0.00   0.00   0.00    -0.00  -0.00   0.00    -0.00  -0.00  -0.00
  19   6     0.00   0.00  -0.00     0.00   0.00  -0.00    -0.00   0.00   0.00
  20   6    -0.00   0.00   0.00     0.00   0.00  -0.00    -0.00   0.00  -0.00
  21   6     0.00  -0.00   0.00     0.00   0.00  -0.00    -0.00  -0.00  -0.00
  22  16    -0.00  -0.00  -0.00     0.00   0.00   0.00     0.00   0.00   0.00
  23   6     0.00  -0.00   0.00    -0.00  -0.00  -0.00    -0.00  -0.00  -0.00
  24   7     0.00  -0.00  -0.00     0.00   0.00   0.00     0.00   0.00   0.00
  25  16    -0.00  -0.00   0.00    -0.00  -0.00  -0.00    -0.00   0.00  -0.00
  26   7     0.00  -0.00  -0.00     0.00   0.00   0.00     0.00  -0.00   0.00
  27   6    -0.00   0.00  -0.00    -0.00  -0.00  -0.00    -0.00  -0.00  -0.00
  28  16    -0.00  -0.00  -0.00    -0.00  -0.00   0.00     0.00   0.00   0.00
  29  16    -0.00  -0.00  -0.00    -0.00  -0.00  -0.00     0.00   0.00   0.00
  30  17     0.00   0.00   0.00     0.00   0.00  -0.00    -0.00  -0.00   0.00
  31   1     0.80  -0.12   0.04     0.09  -0.01   0.03    -0.52   0.07  -0.03
  32   1     0.12   0.17   0.35    -0.25  -0.29  -0.57     0.19   0.21   0.46
  33   1     0.12   0.14  -0.26     0.29   0.29  -0.51     0.28   0.27  -0.51
  34   1     0.02  -0.00  -0.00     0.00   0.00  -0.00    -0.02   0.00  -0.00
  35   1     0.00   0.00  -0.00     0.01   0.01  -0.01     0.01   0.01  -0.01
  36   1    -0.00  -0.00   0.00     0.00   0.00  -0.00    -0.00  -0.00   0.00
  37   1    -0.00  -0.00  -0.00     0.00  -0.00  -0.00    -0.00   0.01   0.00
  38   1    -0.00   0.00   0.00     0.00  -0.00  -0.00    -0.00   0.00   0.00
  39   1     0.00   0.00   0.00     0.00   0.00  -0.00     0.00   0.00   0.00
  40   1    -0.00  -0.00   0.00    -0.00  -0.00  -0.00     0.00   0.00   0.00
  41   1    -0.00   0.00   0.00    -0.00  -0.00   0.00     0.00   0.00  -0.00
  42   1    -0.00  -0.00  -0.00    -0.00  -0.00  -0.00     0.00   0.00   0.00
  43   1    -0.00  -0.00   0.00     0.00  -0.00   0.00    -0.00   0.00  -0.00
  44   1    -0.00  -0.00   0.00    -0.00   0.00   0.00    -0.00  -0.00   0.00
  45   1     0.00  -0.00   0.00    -0.00   0.00  -0.00     0.00  -0.00   0.00
  46   1    -0.00  -0.00   0.00    -0.00  -0.00   0.00     0.00  -0.00  -0.00
  47   1     0.00  -0.00  -0.00    -0.00   0.00   0.00     0.00  -0.00  -0.00
  48   1    -0.00  -0.00  -0.00     0.00  -0.00   0.00    -0.00  -0.00  -0.00
  49   1     0.00  -0.00  -0.00    -0.00   0.00   0.00     0.00  -0.00  -0.00
  50   1    -0.00  -0.00  -0.00    -0.00  -0.00  -0.00     0.00   0.00   0.00
