40
 energy: -67.136639310738 gnorm: 0.000549203482 xtb: 6.5.1 (fef0646)
N            3.14620782922459       -0.20955123482361        0.43950714210600
C            2.75132973584350        0.97761430405241        1.18265831691691
C            3.86719351268231        1.56944915805481        2.06904345470309
C            5.01790627867121        2.05355985866711        1.25718027514780
C            5.22426229427872        3.29610904243554        0.73744217323985
C            6.39910642436719        3.39685140120833       -0.02828081007303
C            7.10102497722473        2.22169882510763       -0.10406032362430
C            8.32360773254929        1.95498319564245       -0.78294389057999
C            9.03022118618448        0.77688001547681       -0.83717091248628
C           10.20033493349064        0.86500980865468       -1.59555324570967
C           10.40915718335478        2.11239791218501       -2.13642785666004
C           11.48493264879696        2.54938195044203       -2.95621414497028
C           11.68841022496111        3.79331289583067       -3.50699520366148
C           12.85566067596584        3.87921264799641       -4.27007653297907
C           13.56705544339878        2.70358408688024       -4.31648538097292
C           14.78996972760235        2.43726404102198       -4.99711910069219
C           15.50704077638347        1.26821815331050       -5.03525002006115
C           16.67558200865066        1.36252796386478       -5.81213800528083
C           16.84412234535860        2.59472091804764       -6.36036141408811
S           15.57585658002146        3.67465168665597       -5.93916559391572
S           12.77279458888898        1.45937280552459       -3.39307017126707
S            9.12576513791054        3.20452198574005       -1.69408074109765
S            6.29147576626543        0.96519447075912        0.79092008664036
Cl           0.84612611964219       -1.21711780904761       -1.09603992285193
H            1.91608423513949       -0.75413253340886       -0.39305341667663
H            3.45313084103586       -0.94445915048782        1.06884672445866
H            3.90755792829008       -0.00027209167620       -0.19869014876817
H            1.90068627146418        0.70857690753447        1.81221481764444
H            2.42290399139562        1.72825073797621        0.46090726231175
H            4.20470451458182        0.80450266397474        2.77279251196668
H            3.45315731416229        2.40379751817740        2.63761474325011
H            4.55437556103496        4.12035492191725        0.90687787151715
H            6.73027181512072        4.29923977019514       -0.51049034637777
H            8.70227235055388       -0.11849602269587       -0.33856135522386
H           10.88168204085422        0.04740295406203       -1.75135343400579
H           11.00458622897808        4.61002103869727       -3.35578014992610
H           13.17995320587169        4.77024932108003       -4.77802720134965
H           15.19447257224745        0.37842711251365       -4.51801912598176
H           17.36243337640735        0.54809539260352       -5.95729944886928
H           17.63859362122888        2.94199337596752       -6.99022748189052
