      -----------------------------------------------------------      
     |                   =====================                   |     
     |                           x T B                           |     
     |                   =====================                   |     
     |                         S. Grimme                         |     
     |          Mulliken Center for Theoretical Chemistry        |     
     |                    University of Bonn                     |     
      -----------------------------------------------------------      

   * xtb version 6.5.1 (fef0646) compiled by 'conda@b96dff2e9fd6' on 2023-01-04

   xtb is free software: you can redistribute it and/or modify it under
   the terms of the GNU Lesser General Public License as published by
   the Free Software Foundation, either version 3 of the License, or
   (at your option) any later version.
   
   xtb is distributed in the hope that it will be useful,
   but WITHOUT ANY WARRANTY; without even the implied warranty of
   MERCHANTABILITY or FITNESS FOR A PARTICULAR PURPOSE.  See the
   GNU Lesser General Public License for more details.
   
   Cite this work as:
   * C. Bannwarth, E. Caldeweyher, S. Ehlert, A. Hansen, P. Pracht,
     J. Seibert, S. Spicher, S. Grimme, WIREs Comput. Mol. Sci., 2020, 11,
     e01493. DOI: 10.1002/wcms.1493
   
   for GFN2-xTB:
   * C. Bannwarth, S. Ehlert and S. Grimme., J. Chem. Theory Comput., 2019,
     15, 1652-1671. DOI: 10.1021/acs.jctc.8b01176
   for GFN1-xTB:
   * S. Grimme, C. Bannwarth, P. Shushkov, J. Chem. Theory Comput., 2017,
     13, 1989-2009. DOI: 10.1021/acs.jctc.7b00118
   for GFN0-xTB:
   * P. Pracht, E. Caldeweyher, S. Ehlert, S. Grimme, ChemRxiv, 2019, preprint.
     DOI: 10.26434/chemrxiv.8326202.v1
   for GFN-FF:
   * S. Spicher and S. Grimme, Angew. Chem. Int. Ed., 2020, 59, 15665-15673.
     DOI: 10.1002/anie.202004239
   
   for ALPB and GBSA implicit solvation:
   * S. Ehlert, M. Stahn, S. Spicher, S. Grimme, J. Chem. Theory Comput.,
     2021, 17, 4250-4261. DOI: 10.1021/acs.jctc.1c00471
   
   for DFT-D4:
   * E. Caldeweyher, C. Bannwarth and S. Grimme, J. Chem. Phys., 2017,
     147, 034112. DOI: 10.1063/1.4993215
   * E. Caldeweyher, S. Ehlert, A. Hansen, H. Neugebauer, S. Spicher,
     C. Bannwarth and S. Grimme, J. Chem. Phys., 2019, 150, 154122.
     DOI: 10.1063/1.5090222
   * E. Caldeweyher, J.-M. Mewes, S. Ehlert and S. Grimme, Phys. Chem. Chem. Phys.
     2020, 22, 8499-8512. DOI: 10.1039/D0CP00502A
   
   for sTDA-xTB:
   * S. Grimme and C. Bannwarth, J. Chem. Phys., 2016, 145, 054103.
     DOI: 10.1063/1.4959605
   
   in the mass-spec context:
   * V. Asgeirsson, C. Bauer and S. Grimme, Chem. Sci., 2017, 8, 4879.
     DOI: 10.1039/c7sc00601b
   * J. Koopman and S. Grimme, ACS Omega 2019, 4, 12, 15120-15133.
     DOI: 10.1021/acsomega.9b02011
   
   for metadynamics refer to:
   * S. Grimme, J. Chem. Theory Comput., 2019, 155, 2847-2862
     DOI: 10.1021/acs.jctc.9b00143
   
   for SPH calculations refer to:
   * S. Spicher and S. Grimme, J. Chem. Theory Comput., 2021, 17, 1701-1714
     DOI: 10.1021/acs.jctc.0c01306
   
   with help from (in alphabetical order)
   P. Atkinson, C. Bannwarth, F. Bohle, G. Brandenburg, E. Caldeweyher
   M. Checinski, S. Dohm, S. Ehlert, S. Ehrlich, I. Gerasimov, C. Hölzer
   A. Katbashev, J. Koopman, C. Lavigne, S. Lehtola, F. März, M. Müller,
   F. Musil, H. Neugebauer, J. Pisarek, C. Plett, P. Pracht, F. Pultar,
   J. Seibert, P. Shushkov, S. Spicher, M. Stahn, M. Steiner, T. Strunk,
   J. Stückrath, T. Rose, and J. Unsleber
   
 * started run on 2023/01/24 at 14:58:12.816     

           -------------------------------------------------
          |                Calculation Setup                |
           -------------------------------------------------

          program call               : xtb init.xyz --opt -c 1 -u 0 -P 16 --alpb water
          hostname                   : gpg-woodward
          coordinate file            : init.xyz
          omp threads                :                    16

   ID    Z sym.   atoms
    1    7 N      1
    2    6 C      2, 3, 5-14
    3    8 O      4
    4    1 H      15-28

           -------------------------------------------------
          |                 G F N 2 - x T B                 |
           -------------------------------------------------

        Reference                      10.1021/acs.jctc.8b01176
      * Hamiltonian:
        H0-scaling (s, p, d)           1.850000    2.230000    2.230000
        zeta-weighting                 0.500000
      * Dispersion:
        s8                             2.700000
        a1                             0.520000
        a2                             5.000000
        s9                             5.000000
      * Repulsion:
        kExp                           1.500000    1.000000
        rExp                           1.000000
      * Coulomb:
        alpha                          2.000000
        third order                    shell-resolved
        anisotropic                    true
        a3                             3.000000
        a5                             4.000000
        cn-shift                       1.200000
        cn-exp                         4.000000
        max-rad                        5.000000

      * Solvation model:               ALPB
        Solvent                        water
        Parameter file                 internal GFN2-xTB/ALPB
        Dielectric constant                8.0200E+01
        Reference state                gsolv [1 M gas/solution]
        Free energy shift                  1.0808E-03 Eh       6.7819E-01 kcal/mol
        Temperature                        2.9815E+02 K
        Density                            1.0000E+00 kg/L
        Solvent mass                       1.8000E+01 g/mol
        Interaction kernel             P16
        Born radius scaling (c1)           1.4744E+00
        Born radii integrator          GBOBC
        Born offset                        0.0000E+00 a0       0.0000E+00 AA
        H-bond correction              true
        Ion screening                  false
        Surface tension                    1.0000E-05 Eh       1.5569E+01 dyn/cm
        Grid points                               230 per atom

          ...................................................
          :                      SETUP                      :
          :.................................................:
          :  # basis functions                  70          :
          :  # atomic orbitals                  70          :
          :  # shells                           42          :
          :  # electrons                        72          :
          :  max. iterations                   250          :
          :  Hamiltonian                  GFN2-xTB          :
          :  restarted?                      false          :
          :  GBSA solvation                   true          :
          :  PC potential                    false          :
          :  electronic temp.          300.0000000     K    :
          :  accuracy                    1.0000000          :
          :  -> integral cutoff          0.2500000E+02      :
          :  -> integral neglect         0.1000000E-07      :
          :  -> SCF convergence          0.1000000E-05 Eh   :
          :  -> wf. convergence          0.1000000E-03 e    :
          :  Broyden damping             0.4000000          :
          ...................................................

 iter      E             dE          RMSdq      gap      omega  full diag
   1    -40.0124516 -0.400125E+02  0.413E+00    2.82       0.0  T
   2    -40.0911506 -0.786990E-01  0.233E+00    2.83       1.0  T
   3    -40.0910669  0.836697E-04  0.109E+00    2.86       1.0  T
   4    -40.0927834 -0.171649E-02  0.565E-01    2.83       1.0  T
   5    -40.0975892 -0.480578E-02  0.120E-01    2.84       1.0  T
   6    -40.0977602 -0.171064E-03  0.705E-02    2.84       1.0  T
   7    -40.0977809 -0.206966E-04  0.324E-02    2.84       1.0  T
   8    -40.0977905 -0.954673E-05  0.121E-02    2.84       1.6  T
   9    -40.0977913 -0.777779E-06  0.711E-03    2.84       2.7  T
  10    -40.0977916 -0.318554E-06  0.224E-03    2.84       8.4  T
  11    -40.0977916 -0.276690E-07  0.867E-04    2.84      21.8  T
  12    -40.0977916 -0.710966E-08  0.382E-04    2.84      49.5  T

   *** convergence criteria satisfied after 12 iterations ***

         #    Occupation            Energy/Eh            Energy/eV
      -------------------------------------------------------------
         1        2.0000           -0.7248139             -19.7232
       ...           ...                  ...                  ...
        30        2.0000           -0.4465449             -12.1511
        31        2.0000           -0.4441840             -12.0869
        32        2.0000           -0.4206166             -11.4456
        33        2.0000           -0.4163127             -11.3284
        34        2.0000           -0.4119784             -11.2105
        35        2.0000           -0.4029157             -10.9639
        36        2.0000           -0.3662361              -9.9658 (HOMO)
        37                         -0.2619262              -7.1274 (LUMO)
        38                         -0.2278192              -6.1993
        39                         -0.1901825              -5.1751
        40                         -0.1481512              -4.0314
        41                         -0.0658337              -1.7914
       ...                                ...                  ...
        70                          0.6806086              18.5203
      -------------------------------------------------------------
                  HL-Gap            0.1043099 Eh            2.8384 eV
             Fermi-level           -0.3140812 Eh           -8.5466 eV

 SCC (total)                   0 d,  0 h,  0 min,  0.052 sec
 SCC setup                      ...        0 min,  0.001 sec (  1.039%)
 Dispersion                     ...        0 min,  0.001 sec (  1.281%)
 classical contributions        ...        0 min,  0.000 sec (  0.150%)
 integral evaluation            ...        0 min,  0.002 sec (  3.435%)
 iterations                     ...        0 min,  0.045 sec ( 85.226%)
 molecular gradient             ...        0 min,  0.004 sec (  7.013%)
 printout                       ...        0 min,  0.001 sec (  1.176%)

         :::::::::::::::::::::::::::::::::::::::::::::::::::::
         ::                     SUMMARY                     ::
         :::::::::::::::::::::::::::::::::::::::::::::::::::::
         :: total energy             -39.483977276043 Eh    ::
         :: total w/o Gsasa/hb       -39.471845510036 Eh    ::
         :: gradient norm              0.070280381078 Eh/a0 ::
         :: HOMO-LUMO gap              2.838416826725 eV    ::
         ::.................................................::
         :: SCC energy               -40.097791612320 Eh    ::
         :: -> isotropic ES            0.142344637694 Eh    ::
         :: -> anisotropic ES         -0.013552981759 Eh    ::
         :: -> anisotropic XC          0.022511320280 Eh    ::
         :: -> dispersion             -0.024267741674 Eh    ::
         :: -> Gsolv                  -0.123046411990 Eh    ::
         ::    -> Gelec               -0.110914645983 Eh    ::
         ::    -> Gsasa               -0.002106380491 Eh    ::
         ::    -> Ghb                 -0.011106145215 Eh    ::
         ::    -> Gshift               0.001080759698 Eh    ::
         :: repulsion energy           0.613759671541 Eh    ::
         :: add. restraining           0.000000000000 Eh    ::
         :: total charge               1.000000000000 e     ::
         :::::::::::::::::::::::::::::::::::::::::::::::::::::

      ----------------------------------------------------------- 
     |                   =====================                   |
     |                        A N C O P T                        |
     |                   =====================                   |
     |               Approximate Normal Coordinate               |
     |                Rational Function Optimizer                |
      ----------------------------------------------------------- 

          ...................................................
          :                      SETUP                      :
          :.................................................:
          :   optimization level            normal          :
          :   max. optcycles                   200          :
          :   ANC micro-cycles                  20          :
          :   degrees of freedom                78          :
          :.................................................:
          :   RF solver                   davidson          :
          :   write xtbopt.log                true          :
          :   linear?                        false          :
          :   energy convergence         0.5000000E-05 Eh   :
          :   grad. convergence          0.1000000E-02 Eh/α :
          :   maximium RF displ.         1.0000000          :
          :   Hlow (freq-cutoff)         0.1000000E-01      :
          :   Hmax (freq-cutoff)         5.0000000          :
          :   S6 in model hess.         20.0000000          :
          ...................................................

generating ANC from model Hessian ...
Using Lindh-Hessian (1995)
 Shifting diagonal of input Hessian by    9.1801926552293259E-003
 Lowest  eigenvalues of input Hessian
    0.000000    0.000000    0.000000    0.000000    0.000000    0.000000
    0.010000    0.010315    0.011259    0.013122    0.015136    0.016756
    0.017704    0.023575    0.024142    0.026378    0.028498    0.030109
 Highest eigenvalues
    1.786501    1.799247    1.820723    1.927460    2.042241    2.076260


........................................................................
.............................. CYCLE    1 ..............................
........................................................................
   1    -40.0977916 -0.400978E+02  0.186E-04    2.84       0.0  T
   2    -40.0977916 -0.115072E-09  0.121E-04    2.84     156.4  T
   3    -40.0977916 -0.261053E-10  0.788E-05    2.84     240.0  T
     SCC iter.                  ...        0 min,  0.011 sec
     gradient                   ...        0 min,  0.003 sec
 * total energy  :   -39.4839773 Eh     change       -0.1045642E-08 Eh
   gradient norm :     0.0702797 Eh/α   predicted     0.0000000E+00 (-100.00%)
   displ. norm   :     0.1898505 α      lambda       -0.6229800E-02
   maximum displ.:     0.0707991 α      in ANC's #10, #21, #3, ...

........................................................................
.............................. CYCLE    2 ..............................
........................................................................
   1    -40.1233248 -0.401233E+02  0.157E-01    3.01       0.0  T
   2    -40.1233488 -0.240268E-04  0.952E-02    3.01       1.0  T
   3    -40.1233239  0.248566E-04  0.456E-02    3.02       1.0  T
   4    -40.1233599 -0.360180E-04  0.736E-03    3.01       2.6  T
   5    -40.1233608 -0.870886E-06  0.329E-03    3.01       5.8  T
   6    -40.1233609 -0.491920E-07  0.158E-03    3.01      12.0  T
   7    -40.1233609 -0.584534E-08  0.533E-04    3.01      35.5  T
   8    -40.1233609 -0.367747E-08  0.241E-04    3.01      78.6  T
     SCC iter.                  ...        0 min,  0.028 sec
     gradient                   ...        0 min,  0.003 sec
 * total energy  :   -39.4881462 Eh     change       -0.4168913E-02 Eh
   gradient norm :     0.0276948 Eh/α   predicted    -0.3227776E-02 ( -22.58%)
   displ. norm   :     0.1659931 α      lambda       -0.1428222E-02
   maximum displ.:     0.1086187 α      in ANC's #3, #10, #4, ...

........................................................................
.............................. CYCLE    3 ..............................
........................................................................
   1    -40.1337567 -0.401338E+02  0.904E-02    3.12       0.0  T
   2    -40.1337695 -0.128489E-04  0.548E-02    3.11       1.0  T
   3    -40.1337640  0.548901E-05  0.285E-02    3.12       1.0  T
   4    -40.1337752 -0.111280E-04  0.462E-03    3.12       4.1  T
   5    -40.1337755 -0.334131E-06  0.185E-03    3.12      10.2  T
   6    -40.1337755 -0.237343E-07  0.955E-04    3.12      19.8  T
   7    -40.1337755 -0.130890E-08  0.343E-04    3.12      55.0  T
     SCC iter.                  ...        0 min,  0.023 sec
     gradient                   ...        0 min,  0.003 sec
 * total energy  :   -39.4889622 Eh     change       -0.8160178E-03 Eh
   gradient norm :     0.0055541 Eh/α   predicted    -0.7339236E-03 ( -10.06%)
   displ. norm   :     0.1266168 α      lambda       -0.2152791E-03
   maximum displ.:     0.1045232 α      in ANC's #3, #4, #10, ...

........................................................................
.............................. CYCLE    4 ..............................
........................................................................
   1    -40.1334735 -0.401335E+02  0.362E-02    3.13       0.0  T
   2    -40.1334745 -0.955655E-06  0.216E-02    3.13       1.0  T
   3    -40.1334732  0.127592E-05  0.933E-03    3.13       2.0  T
   4    -40.1334749 -0.168586E-05  0.134E-03    3.13      14.1  T
   5    -40.1334749 -0.190053E-07  0.632E-04    3.13      29.9  T
   6    -40.1334749 -0.387508E-08  0.313E-04    3.13      60.4  T
     SCC iter.                  ...        0 min,  0.020 sec
     gradient                   ...        0 min,  0.003 sec
 * total energy  :   -39.4891323 Eh     change       -0.1701130E-03 Eh
   gradient norm :     0.0038765 Eh/α   predicted    -0.1093664E-03 ( -35.71%)
   displ. norm   :     0.1707995 α      lambda       -0.1925127E-03
   maximum displ.:     0.1366890 α      in ANC's #3, #4, #7, ...

........................................................................
.............................. CYCLE    5 ..............................
........................................................................
   1    -40.1318099 -0.401318E+02  0.402E-02    3.12       0.0  T
   2    -40.1318105 -0.535710E-06  0.240E-02    3.12       1.0  T
   3    -40.1318096  0.842583E-06  0.683E-03    3.12       2.8  T
   4    -40.1318107 -0.104451E-05  0.118E-03    3.12      15.9  T
   5    -40.1318107 -0.100837E-07  0.584E-04    3.12      32.3  T
   6    -40.1318107 -0.285343E-08  0.300E-04    3.12      63.1  T
     SCC iter.                  ...        0 min,  0.020 sec
     gradient                   ...        0 min,  0.003 sec
 * total energy  :   -39.4892745 Eh     change       -0.1422244E-03 Eh
   gradient norm :     0.0031021 Eh/α   predicted    -0.9906859E-04 ( -30.34%)
   displ. norm   :     0.1360636 α      lambda       -0.9407222E-04
   maximum displ.:     0.1071910 α      in ANC's #3, #4, #7, ...

........................................................................
.............................. CYCLE    6 ..............................
........................................................................
   1    -40.1313204 -0.401313E+02  0.277E-02    3.12       0.0  T
   2    -40.1313206 -0.155718E-06  0.164E-02    3.12       1.1  T
   3    -40.1313205  0.845546E-07  0.254E-03    3.12       7.4  T
   4    -40.1313206 -0.130127E-06  0.773E-04    3.12      24.4  T
   5    -40.1313206 -0.452957E-08  0.376E-04    3.12      50.3  T
     SCC iter.                  ...        0 min,  0.015 sec
     gradient                   ...        0 min,  0.003 sec
 * total energy  :   -39.4893505 Eh     change       -0.7593900E-04 Eh
   gradient norm :     0.0033648 Eh/α   predicted    -0.4791239E-04 ( -36.91%)
   displ. norm   :     0.1308781 α      lambda       -0.7887039E-04
   maximum displ.:     0.1016209 α      in ANC's #3, #4, #7, ...

........................................................................
.............................. CYCLE    7 ..............................
........................................................................
   1    -40.1315713 -0.401316E+02  0.272E-02    3.12       0.0  T
   2    -40.1315714 -0.166817E-06  0.161E-02    3.12       1.2  T
   3    -40.1315714 -0.661636E-09  0.153E-03    3.12      12.3  T
   4    -40.1315715 -0.333318E-07  0.658E-04    3.12      28.7  T
   5    -40.1315715 -0.296902E-08  0.353E-04    3.12      53.5  T
     SCC iter.                  ...        0 min,  0.015 sec
     gradient                   ...        0 min,  0.002 sec
 * total energy  :   -39.4894142 Eh     change       -0.6375981E-04 Eh
   gradient norm :     0.0028590 Eh/α   predicted    -0.4011221E-04 ( -37.09%)
   displ. norm   :     0.1388653 α      lambda       -0.6777210E-04
   maximum displ.:     0.1096436 α      in ANC's #3, #4, #7, ...

........................................................................
.............................. CYCLE    8 ..............................
........................................................................
   1    -40.1321259 -0.401321E+02  0.315E-02    3.12       0.0  T
   2    -40.1321261 -0.201064E-06  0.186E-02    3.12       1.0  T
   3    -40.1321261  0.893951E-08  0.177E-03    3.12      10.7  T
   4    -40.1321262 -0.529667E-07  0.728E-04    3.12      25.9  T
   5    -40.1321262 -0.375771E-08  0.387E-04    3.12      48.8  T
     SCC iter.                  ...        0 min,  0.014 sec
     gradient                   ...        0 min,  0.003 sec
 * total energy  :   -39.4894646 Eh     change       -0.5032724E-04 Eh
   gradient norm :     0.0020195 Eh/α   predicted    -0.3454175E-04 ( -31.37%)
   displ. norm   :     0.1175600 α      lambda       -0.3966247E-04
   maximum displ.:     0.0956033 α      in ANC's #3, #4, #7, ...

........................................................................
.............................. CYCLE    9 ..............................
........................................................................
   1    -40.1326233 -0.401326E+02  0.304E-02    3.11       0.0  T
   2    -40.1326234 -0.125318E-06  0.180E-02    3.11       1.1  T
   3    -40.1326234  0.699380E-08  0.150E-03    3.11      12.6  T
   4    -40.1326235 -0.423088E-07  0.639E-04    3.11      29.6  T
   5    -40.1326235 -0.231409E-08  0.328E-04    3.11      57.6  T
     SCC iter.                  ...        0 min,  0.014 sec
     gradient                   ...        0 min,  0.003 sec
 * total energy  :   -39.4894934 Eh     change       -0.2885662E-04 Eh
   gradient norm :     0.0015207 Eh/α   predicted    -0.2010620E-04 ( -30.32%)
   displ. norm   :     0.1553439 α      lambda       -0.2596021E-04
   maximum displ.:     0.1252803 α      in ANC's #3, #7, #2, ...

........................................................................
.............................. CYCLE   10 ..............................
........................................................................
   1    -40.1330397 -0.401330E+02  0.477E-02    3.11       0.0  T
   2    -40.1330399 -0.182148E-06  0.282E-02    3.11       1.0  T
   3    -40.1330399 -0.165360E-07  0.177E-03    3.11      10.7  T
   4    -40.1330399 -0.487751E-07  0.838E-04    3.11      22.6  T
   5    -40.1330399 -0.270747E-08  0.332E-04    3.11      57.0  T
     SCC iter.                  ...        0 min,  0.014 sec
     gradient                   ...        0 min,  0.003 sec
 * total energy  :   -39.4895164 Eh     change       -0.2299630E-04 Eh
   gradient norm :     0.0016762 Eh/α   predicted    -0.1311975E-04 ( -42.95%)
   displ. norm   :     0.0629863 α      lambda       -0.1290753E-04
   maximum displ.:     0.0372590 α      in ANC's #2, #3, #1, ...

........................................................................
.............................. CYCLE   11 ..............................
........................................................................
   1    -40.1334736 -0.401335E+02  0.275E-02    3.11       0.0  T
   2    -40.1334737 -0.496877E-07  0.163E-02    3.11       1.2  T
   3    -40.1334737  0.170823E-07  0.128E-03    3.11      14.8  T
   4    -40.1334737 -0.325259E-07  0.468E-04    3.11      40.4  T
   5    -40.1334737 -0.163748E-08  0.202E-04    3.11      93.7  T
     SCC iter.                  ...        0 min,  0.015 sec
     gradient                   ...        0 min,  0.003 sec
 * total energy  :   -39.4895306 Eh     change       -0.1414069E-04 Eh
   gradient norm :     0.0012977 Eh/α   predicted    -0.6468640E-05 ( -54.26%)
   displ. norm   :     0.1350840 α      lambda       -0.1801008E-04
   maximum displ.:     0.0760474 α      in ANC's #3, #2, #7, ...

........................................................................
.............................. CYCLE   12 ..............................
........................................................................
   1    -40.1324278 -0.401324E+02  0.535E-02    3.12       0.0  T
   2    -40.1324279 -0.157433E-06  0.316E-02    3.12       1.0  T
   3    -40.1324279  0.575522E-07  0.250E-03    3.12       7.5  T
   4    -40.1324280 -0.129746E-06  0.936E-04    3.12      20.2  T
   5    -40.1324280 -0.278164E-08  0.398E-04    3.12      47.5  T
     SCC iter.                  ...        0 min,  0.014 sec
     gradient                   ...        0 min,  0.002 sec
 * total energy  :   -39.4895404 Eh     change       -0.9787185E-05 Eh
   gradient norm :     0.0016216 Eh/α   predicted    -0.9079366E-05 (  -7.23%)
   displ. norm   :     0.0483458 α      lambda       -0.7849775E-05
   maximum displ.:     0.0348902 α      in ANC's #3, #4, #7, ...

........................................................................
.............................. CYCLE   13 ..............................
........................................................................
   1    -40.1330817 -0.401331E+02  0.102E-02    3.12       0.0  T
   2    -40.1330818 -0.324851E-07  0.602E-03    3.12       3.1  T
   3    -40.1330817  0.148802E-07  0.108E-03    3.12      17.5  T
   4    -40.1330818 -0.242243E-07  0.376E-04    3.12      50.3  T
   5    -40.1330818 -0.113882E-08  0.168E-04    3.12     112.5  T
     SCC iter.                  ...        0 min,  0.014 sec
     gradient                   ...        0 min,  0.003 sec
 * total energy  :   -39.4895461 Eh     change       -0.5755349E-05 Eh
   gradient norm :     0.0005726 Eh/α   predicted    -0.3931622E-05 ( -31.69%)
   displ. norm   :     0.0120320 α      lambda       -0.1039153E-05
   maximum displ.:     0.0109163 α      in ANC's #2, #3, #4, ...

........................................................................
.............................. CYCLE   14 ..............................
........................................................................
   1    -40.1330621 -0.401331E+02  0.432E-03    3.12       0.0  T
   2    -40.1330621 -0.367225E-08  0.252E-03    3.12       7.5  T
   3    -40.1330621  0.196187E-08  0.388E-04    3.12      48.7  T
   4    -40.1330621 -0.308754E-08  0.985E-05    3.12     191.9  T
     SCC iter.                  ...        0 min,  0.011 sec
     gradient                   ...        0 min,  0.002 sec
 * total energy  :   -39.4895474 Eh     change       -0.1307500E-05 Eh
   gradient norm :     0.0002936 Eh/α   predicted    -0.5217989E-06 ( -60.09%)
   displ. norm   :     0.0179432 α      lambda       -0.1175394E-05
   maximum displ.:     0.0135748 α      in ANC's #2, #4, #3, ...

   *** GEOMETRY OPTIMIZATION CONVERGED AFTER 14 ITERATIONS ***

------------------------------------------------------------------------
 total energy gain   :        -0.0055701 Eh       -3.4953 kcal/mol
 total RMSD          :         0.2322352 a0        0.1229 Å
 total power (kW/mol):        -1.0445999 (step)  -46.4611 (real)
------------------------------------------------------------------------

 ANCopt (total)                0 d,  0 h,  0 min,  0.315 sec
 optimizer setup                ...        0 min,  0.000 sec (  0.034%)
 model hessian                  ...        0 min,  0.007 sec (  2.253%)
 ANC generation                 ...        0 min,  0.003 sec (  1.049%)
 coordinate transformation      ...        0 min,  0.000 sec (  0.132%)
 single point calculation       ...        0 min,  0.299 sec ( 94.958%)
 optimization log               ...        0 min,  0.002 sec (  0.485%)
 hessian update                 ...        0 min,  0.001 sec (  0.179%)
 rational function              ...        0 min,  0.001 sec (  0.400%)

================
 final structure:
================
28
 xtb: 6.5.1 (fef0646)
N            3.86137321736402        0.10625191521946        1.54646460290186
C            2.83248933725883        0.49332615377351        0.55466504374741
C            3.34451017628184        1.67364482998796       -0.26309235074929
O            4.53922375252740        1.21900531830488       -0.89432779844361
C            5.20194992639506        2.05034711084077       -1.74501979650556
C            4.84951220921546        3.35397161076687       -1.98869325406357
C            5.61994174673587        4.14360327148425       -2.85630400519236
C            6.73045806397877        3.63890847231781       -3.46775898688694
C            7.11607672631889        2.29888429346021       -3.24859114312809
C            8.25122111246896        1.73865240760500       -3.87039852974616
C            8.60006185229514        0.43420769754957       -3.65489725420846
C            7.82331319230395       -0.37399030940598       -2.81229203494268
C            6.71926362120694        0.14009113226342       -2.19054641807664
C            6.34294843860962        1.48405728362278       -2.38442843835610
H            3.61786169475417       -0.77482010657953        2.01198310423227
H            3.98153417808432        0.83830499272601        2.25641286812405
H            4.75417206456070       -0.00742838673264        1.04849261321494
H            1.90384325247996        0.76464206448493        1.05374337321880
H            2.65185144412314       -0.34535553461237       -0.11755955002240
H            3.56308789015369        2.53686943389295        0.37599447681113
H            2.60029017492457        1.96588028838981       -1.01002356559053
H            3.98442411047212        3.80184438215813       -1.52800325999527
H            5.32038261026653        5.16643570886910       -3.02952802506401
H            7.32591999232526        4.25135378846143       -4.12858130211298
H            8.84076906747652        2.36367301855526       -4.52611409002923
H            9.47181651509939        0.01765705036505       -4.13795127023488
H            8.10528157123203       -1.40526959138605       -2.66320874787440
H            6.11182206108685       -0.48511829638254       -1.55763626102750

 Bond Distances (Angstroems)
 ---------------------------
N1-C2=1.4806         N1-H15=1.0258        N1-H16=1.0268        N1-H17=1.0286        C2-N1=1.4806         C2-C3=1.5245         
C2-H18=1.0886        C2-H19=1.0899        C3-C2=1.5245         C3-O4=1.4257         C3-H20=1.0961        C3-H21=1.0942        
O4-C3=1.4257         O4-C5=1.3616         C5-O4=1.3616         C5-C6=1.3722         C5-C14=1.4253        C6-C5=1.3722         
C6-C7=1.4035         C6-H22=1.0776        C7-C6=1.4035         C7-C8=1.3645         C7-H23=1.0798        C8-C7=1.3645         
C8-C9=1.4115         C8-H24=1.0800        C9-C8=1.4115         C9-C10=1.4103        C9-C14=1.4172        C10-C9=1.4103        
C10-C11=1.3674       C10-H25=1.0808       C11-C10=1.3674       C11-C12=1.4023       C11-H26=1.0802       C12-C11=1.4023       
C12-C13=1.3674       C12-H27=1.0795       C13-C12=1.3674       C13-C14=1.4091       C13-H28=1.0772       C14-C5=1.4253        
C14-C9=1.4172        C14-C13=1.4091       H15-N1=1.0258        H16-N1=1.0268        H17-N1=1.0286        H18-C2=1.0886        
H19-C2=1.0899        H20-C3=1.0961        H21-C3=1.0942        H22-C6=1.0776        H23-C7=1.0798        H24-C8=1.0800        
H25-C10=1.0808       H26-C11=1.0802       H27-C12=1.0795       H28-C13=1.0772       
 C  H  Rav=1.0840 sigma=0.0065  Rmin=1.0772  Rmax=1.0961    11
 C  C  Rav=1.4063 sigma=0.0413  Rmin=1.3645  Rmax=1.5245    12
 N  H  Rav=1.0271 sigma=0.0011  Rmin=1.0258  Rmax=1.0286     3
 N  C  Rav=1.4806 sigma=0.0000  Rmin=1.4806  Rmax=1.4806     1
 O  C  Rav=1.3936 sigma=0.0320  Rmin=1.3616  Rmax=1.4257     2

 selected bond angles (degree)
 --------------------
H15-N1-C2=111.32               H16-N1-C2=110.98               H16-N1-H15=109.05              H17-N1-C2=107.92               
H17-N1-H15=109.32              H17-N1-H16=108.18              C3-C2-N1=109.17                H18-C2-N1=110.54               
H18-C2-C3=109.84               H19-C2-N1=109.10               H19-C2-C3=108.70               H19-C2-H18=109.46              
O4-C3-C2=105.79                H20-C3-C2=111.34               H20-C3-O4=110.01               H21-C3-C2=110.15               
H21-C3-O4=110.67               H21-C3-H20=108.86              C5-O4-C3=119.33                C6-C5-O4=124.47                
C14-C5-O4=115.30               C14-C5-C6=120.23               C7-C6-C5=120.22                H22-C6-C5=121.68               
H22-C6-C7=118.11               C8-C7-C6=121.04                H23-C7-C6=118.67               H23-C7-C8=120.28               
C9-C8-C7=120.26                H24-C8-C7=120.88               H24-C8-C9=118.86               C10-C9-C8=121.91               
C14-C9-C8=119.44               C14-C9-C10=118.66              C11-C10-C9=120.98              H25-C10-C9=118.48              
H25-C10-C11=120.54             

 selected dihedral angles (degree)
 ---------------------------------
C3-C2-N1-H15=189.13           C3-C2-N1-H16= 67.47           C3-C2-N1-H17=309.09           H18-C2-N1-H15= 68.19          
H18-C2-N1-H16=306.53          H18-C2-N1-H17=188.16          H19-C2-N1-H15=307.78          H19-C2-N1-H16=186.12          
H19-C2-N1-H17= 67.75          O4-C3-C2-N1= 59.71            O4-C3-C2-H18=181.07           O4-C3-C2-H19=300.81           
H20-C3-C2-N1=300.22           H20-C3-C2-H18= 61.57          H20-C3-C2-H19=181.32          H21-C3-C2-N1=179.34           
H21-C3-C2-H18=300.70          H21-C3-C2-H19= 60.44          C5-O4-C3-C2=177.37            C5-O4-C3-H20=297.73           
C5-O4-C3-H21= 58.08           C6-C5-O4-C3=  4.28            C14-C5-O4-C3=183.32           C7-C6-C5-O4=178.20            
C7-C6-C5-C14=359.20           H22-C6-C5-O4=358.19           H22-C6-C5-C14=179.20          C8-C7-C6-C5=359.73            
C8-C7-C6-H22=179.74           H23-C7-C6-C5=180.05           H23-C7-C6-H22=  0.05          C9-C8-C7-C6=  0.78            
C9-C8-C7-H23=180.46           H24-C8-C7-C6=180.50           H24-C8-C7-H23=  0.18          C10-C9-C8-C7=179.51           
C10-C9-C8-H24=359.78          C14-C9-C8-C7=359.77           C14-C9-C8-H24=180.04          C11-C10-C9-C8=180.65          
C11-C10-C9-C14=  0.40         H25-C10-C9-C8=  0.47          H25-C10-C9-C14=180.22         
           -------------------------------------------------
          |                Final Singlepoint                |
           -------------------------------------------------

          ...................................................
          :                      SETUP                      :
          :.................................................:
          :  # basis functions                  70          :
          :  # atomic orbitals                  70          :
          :  # shells                           42          :
          :  # electrons                        72          :
          :  max. iterations                   250          :
          :  Hamiltonian                  GFN2-xTB          :
          :  restarted?                      false          :
          :  GBSA solvation                   true          :
          :  PC potential                    false          :
          :  electronic temp.          300.0000000     K    :
          :  accuracy                    1.0000000          :
          :  -> integral cutoff          0.2500000E+02      :
          :  -> integral neglect         0.1000000E-07      :
          :  -> SCF convergence          0.1000000E-05 Eh   :
          :  -> wf. convergence          0.1000000E-03 e    :
          :  Broyden damping             0.4000000          :
          ...................................................

 iter      E             dE          RMSdq      gap      omega  full diag
   1    -40.1330621 -0.401331E+02  0.500E-05    3.12       0.0  T
   2    -40.1330621 -0.753175E-11  0.320E-05    3.12     591.5  T
   3    -40.1330621 -0.353850E-11  0.208E-05    3.12     906.5  T

   *** convergence criteria satisfied after 3 iterations ***

         #    Occupation            Energy/Eh            Energy/eV
      -------------------------------------------------------------
         1        2.0000           -0.7284210             -19.8213
       ...           ...                  ...                  ...
        30        2.0000           -0.4464645             -12.1489
        31        2.0000           -0.4453294             -12.1180
        32        2.0000           -0.4191476             -11.4056
        33        2.0000           -0.4157463             -11.3130
        34        2.0000           -0.4129204             -11.2361
        35        2.0000           -0.4009966             -10.9117
        36        2.0000           -0.3694557             -10.0534 (HOMO)
        37                         -0.2549385              -6.9372 (LUMO)
        38                         -0.2290076              -6.2316
        39                         -0.1860920              -5.0638
        40                         -0.1427889              -3.8855
        41                         -0.0563169              -1.5325
       ...                                ...                  ...
        70                          0.6966284              18.9562
      -------------------------------------------------------------
                  HL-Gap            0.1145173 Eh            3.1162 eV
             Fermi-level           -0.3121971 Eh           -8.4953 eV

 SCC (total)                   0 d,  0 h,  0 min,  0.013 sec
 SCC setup                      ...        0 min,  0.000 sec (  1.623%)
 Dispersion                     ...        0 min,  0.000 sec (  1.870%)
 classical contributions        ...        0 min,  0.000 sec (  0.221%)
 integral evaluation            ...        0 min,  0.001 sec (  6.715%)
 iterations                     ...        0 min,  0.008 sec ( 65.660%)
 molecular gradient             ...        0 min,  0.002 sec ( 19.124%)
 printout                       ...        0 min,  0.000 sec (  3.563%)

         :::::::::::::::::::::::::::::::::::::::::::::::::::::
         ::                     SUMMARY                     ::
         :::::::::::::::::::::::::::::::::::::::::::::::::::::
         :: total energy             -39.489547415182 Eh    ::
         :: total w/o Gsasa/hb       -39.477296526097 Eh    ::
         :: gradient norm              0.000294141812 Eh/a0 ::
         :: HOMO-LUMO gap              3.116173645242 eV    ::
         ::.................................................::
         :: SCC energy               -40.133062114041 Eh    ::
         :: -> isotropic ES            0.142700719131 Eh    ::
         :: -> anisotropic ES         -0.015222356449 Eh    ::
         :: -> anisotropic XC          0.021473235968 Eh    ::
         :: -> dispersion             -0.024484339700 Eh    ::
         :: -> Gsolv                  -0.123658808771 Eh    ::
         ::    -> Gelec               -0.111407919686 Eh    ::
         ::    -> Gsasa               -0.002194173068 Eh    ::
         ::    -> Ghb                 -0.011137475715 Eh    ::
         ::    -> Gshift               0.001080759698 Eh    ::
         :: repulsion energy           0.643449258554 Eh    ::
         :: add. restraining           0.000000000000 Eh    ::
         :: total charge               1.000000000000 e     ::
         :::::::::::::::::::::::::::::::::::::::::::::::::::::

           -------------------------------------------------
          |                Property Printout                |
           -------------------------------------------------

    * Orbital Energies and Occupations

         #    Occupation            Energy/Eh            Energy/eV
      -------------------------------------------------------------
         1        2.0000           -0.7284210             -19.8213
       ...           ...                  ...                  ...
        24        2.0000           -0.4850223             -13.1981
        25        2.0000           -0.4808587             -13.0848
        26        2.0000           -0.4793346             -13.0434
        27        2.0000           -0.4692772             -12.7697
        28        2.0000           -0.4636994             -12.6179
        29        2.0000           -0.4556787             -12.3996
        30        2.0000           -0.4464645             -12.1489
        31        2.0000           -0.4453294             -12.1180
        32        2.0000           -0.4191476             -11.4056
        33        2.0000           -0.4157463             -11.3130
        34        2.0000           -0.4129204             -11.2361
        35        2.0000           -0.4009966             -10.9117
        36        2.0000           -0.3694557             -10.0534 (HOMO)
        37                         -0.2549385              -6.9372 (LUMO)
        38                         -0.2290076              -6.2316
        39                         -0.1860920              -5.0638
        40                         -0.1427889              -3.8855
        41                         -0.0563169              -1.5325
        42                         -0.0539187              -1.4672
        43                          0.0050924               0.1386
        44                          0.0541078               1.4723
        45                          0.0673463               1.8326
        46                          0.1059965               2.8843
        47                          0.1124860               3.0609
       ...                                ...                  ...
        70                          0.6966284              18.9562
      -------------------------------------------------------------
                  HL-Gap            0.1145173 Eh            3.1162 eV
             Fermi-level           -0.3121971 Eh           -8.4953 eV

     #   Z          covCN         q      C6AA      α(0)
     1   7 N        3.486    -0.154    24.325     7.325
     2   6 C        3.731    -0.045    21.471     6.614
     3   6 C        3.689     0.050    19.924     6.388
     4   8 O        1.704    -0.275    18.554     5.816
     5   6 C        2.858     0.129    25.176     8.224
     6   6 C        2.913    -0.081    30.021     8.985
     7   6 C        2.917    -0.038    28.957     8.824
     8   6 C        2.916    -0.052    29.299     8.876
     9   6 C        2.987     0.008    27.831     8.654
    10   6 C        2.920    -0.039    28.976     8.827
    11   6 C        2.916    -0.034    28.857     8.809
    12   6 C        2.916    -0.038    28.950     8.823
    13   6 C        2.918    -0.040    29.002     8.831
    14   6 C        2.987    -0.009    28.236     8.716
    15   1 H        0.859     0.324     0.647     1.260
    16   1 H        0.859     0.314     0.674     1.286
    17   1 H        0.859     0.307     0.694     1.305
    18   1 H        0.925     0.131     1.531     1.935
    19   1 H        0.925     0.131     1.525     1.931
    20   1 H        0.924     0.077     2.012     2.218
    21   1 H        0.924     0.074     2.040     2.233
    22   1 H        0.926     0.050     2.319     2.381
    23   1 H        0.926     0.032     2.564     2.504
    24   1 H        0.926     0.024     2.681     2.560
    25   1 H        0.926     0.025     2.660     2.550
    26   1 H        0.926     0.027     2.635     2.538
    27   1 H        0.926     0.040     2.455     2.450
    28   1 H        0.926     0.067     2.119     2.276

 Mol. C6AA /au·bohr⁶  :       8176.422697
 Mol. C8AA /au·bohr⁸  :     196642.501900
 Mol. α(0) /au        :        143.142673


Wiberg/Mayer (AO) data.
largest (>0.10) Wiberg bond orders for each atom

 ---------------------------------------------------------------------------
     #   Z sym  total        # sym  WBO       # sym  WBO       # sym  WBO
 ---------------------------------------------------------------------------
     1   7 N    3.654 --     2 C    0.976    17 H    0.887    16 H    0.887
                            15 H    0.883
     2   6 C    3.928 --     3 C    1.008     1 N    0.976    18 H    0.961
                            19 H    0.960
     3   6 C    3.933 --     2 C    1.008    21 H    0.962    20 H    0.961
                             4 O    0.955
     4   8 O    2.224 --     5 C    1.065     3 C    0.955
     5   6 C    3.946 --     6 C    1.482    14 C    1.209     4 O    1.065
                             8 C    0.101
     6   6 C    3.986 --     5 C    1.482     7 C    1.319    22 H    0.964
     7   6 C    3.992 --     8 C    1.560     6 C    1.319    23 H    0.971
     8   6 C    3.992 --     7 C    1.560     9 C    1.269    24 H    0.969
                             5 C    0.101
     9   6 C    3.990 --    10 C    1.283     8 C    1.269    14 C    1.262
    10   6 C    3.992 --    11 C    1.553     9 C    1.283    25 H    0.969
                            13 C    0.118
    11   6 C    3.992 --    10 C    1.553    12 C    1.328    26 H    0.971
    12   6 C    3.991 --    13 C    1.547    11 C    1.328    27 H    0.970
    13   6 C    3.989 --    12 C    1.547    14 C    1.295    28 H    0.964
                            10 C    0.118
    14   6 C    3.988 --    13 C    1.295     9 C    1.262     5 C    1.209
    15   1 H    0.895 --     1 N    0.883
    16   1 H    0.902 --     1 N    0.887
    17   1 H    0.906 --     1 N    0.887
    18   1 H    0.982 --     2 C    0.961
    19   1 H    0.983 --     2 C    0.960
    20   1 H    0.994 --     3 C    0.961
    21   1 H    0.994 --     3 C    0.962
    22   1 H    0.997 --     6 C    0.964
    23   1 H    0.999 --     7 C    0.971
    24   1 H    0.999 --     8 C    0.969
    25   1 H    0.999 --    10 C    0.969
    26   1 H    0.999 --    11 C    0.971
    27   1 H    0.998 --    12 C    0.970
    28   1 H    0.995 --    13 C    0.964
 ---------------------------------------------------------------------------

Topologies differ in total number of bonds
Writing topology from bond orders to xtbtopo.mol

molecular dipole:
                 x           y           z       tot (Debye)
 q only:        6.425       0.214       3.250
   full:        6.648       0.461       3.051      18.629
molecular quadrupole (traceless):
                xx          xy          yy          xz          yz          zz
 q only:       36.588      -2.952     -21.814      37.617       2.956     -14.774
  q+dip:       38.659      -0.194     -20.694      29.974      -0.040     -17.966
   full:       38.900       0.853     -22.629      32.419       0.733     -16.271

           -------------------------------------------------
          |                Geometry Summary                 |
           -------------------------------------------------

      molecular mass/u    :      188.2461094
   center of mass at/Å    :        5.7450645       1.5562787      -1.8282165
  moments of inertia/u·Å² :        0.4205556E+03   0.1107247E+04   0.1485487E+04
rotational constants/cm⁻¹ :        0.4008419E-01   0.1522482E-01   0.1134822E-01

 * 29 selected distances

     #   Z          #   Z                                           value/Å
     1   7 N        2   6 C                                       1.4805726
     2   6 C        3   6 C                                       1.5244819 (max)
     3   6 C        4   8 O                                       1.4256564
     4   8 O        5   6 C                                       1.3616212
     5   6 C        6   6 C                                       1.3722340
     6   6 C        7   6 C                                       1.4035058
     7   6 C        8   6 C                                       1.3644929
     8   6 C        9   6 C                                       1.4115245
     9   6 C       10   6 C                                       1.4103394
    10   6 C       11   6 C                                       1.3673723
    11   6 C       12   6 C                                       1.4023218
    12   6 C       13   6 C                                       1.3673965
     5   6 C       14   6 C                                       1.4252739
     9   6 C       14   6 C                                       1.4171972
    13   6 C       14   6 C                                       1.4090595
     1   7 N       15   1 H                                       1.0258136 (min)
     1   7 N       16   1 H                                       1.0268238
     1   7 N       17   1 H                                       1.0285861
     2   6 C       18   1 H                                       1.0886116
     2   6 C       19   1 H                                       1.0899097
     3   6 C       20   1 H                                       1.0960680
     3   6 C       21   1 H                                       1.0941533
     6   6 C       22   1 H                                       1.0775913
     7   6 C       23   1 H                                       1.0797818
     8   6 C       24   1 H                                       1.0799771
    10   6 C       25   1 H                                       1.0808241
    11   6 C       26   1 H                                       1.0801907
    12   6 C       27   1 H                                       1.0794763
    13   6 C       28   1 H                                       1.0772407

 * 5 distinct bonds (by element types)

   Z      Z             #   av. dist./Å        max./Å        min./Å
   1 H    6 C          11     1.0839841     1.0960680     1.0772407
   6 C    6 C          12     1.4062667     1.5244819     1.3644929
   1 H    7 N           3     1.0270745     1.0285861     1.0258136
   6 C    7 N           1     1.4805726     1.4805726     1.4805726
   6 C    8 O           2     1.3936388     1.4256564     1.3616212


optimized geometry written to: xtbopt.xyz


           -------------------------------------------------
          | TOTAL ENERGY              -39.489547415182 Eh   |
          | GRADIENT NORM               0.000294141812 Eh/α |
          | HOMO-LUMO GAP               3.116173645242 eV   |
           -------------------------------------------------

------------------------------------------------------------------------
 * finished run on 2023/01/24 at 14:58:13.223     
------------------------------------------------------------------------
 total:
 * wall-time:     0 d,  0 h,  0 min,  0.407 sec
 *  cpu-time:     0 d,  0 h,  0 min, 43.008 sec
 * ratio c/w:   105.608 speedup
 SCF:
 * wall-time:     0 d,  0 h,  0 min,  0.053 sec
 *  cpu-time:     0 d,  0 h,  0 min,  7.426 sec
 * ratio c/w:   141.138 speedup
 ANC optimizer:
 * wall-time:     0 d,  0 h,  0 min,  0.329 sec
 *  cpu-time:     0 d,  0 h,  0 min, 32.187 sec
 * ratio c/w:    97.960 speedup

