 Entering Gaussian System
 *********************************************
 Gaussian 98:
 frequency output generated by the xtb code
 *********************************************
                         Standard orientation:
 --------------------------------------------------------------------
  Center     Atomic     Atomic              Coordinates (Angstroms)
  Number     Number      Type              X           Y           Z
 --------------------------------------------------------------------
    1          7             0       -2.887016   -0.776046   -0.530029
    2          6             0       -1.513087   -0.529564   -1.056204
    3          6             0       -0.478712   -0.481567    0.059263
    4          6             0        0.947648   -0.146176   -0.418613
    5          6             0        1.545149   -1.252161   -1.322323
    6          6             0        2.967479   -0.895699   -1.788859
    7          6             0        3.892695   -0.623561   -0.590503
    8          6             0        3.312894    0.478713    0.311498
    9          6             0        1.893894    0.117041    0.779153
   10         17             0       -3.559075    1.686992    1.833860
   11          1             0       -3.151360   -0.045843    0.155871
   12          1             0       -2.939099   -1.685855   -0.041467
   13          1             0       -3.600689   -0.779383   -1.279236
   14          1             0       -1.496254    0.411055   -1.616286
   15          1             0       -1.254473   -1.308857   -1.783314
   16          1             0       -0.463536   -1.439277    0.592214
   17          1             0       -0.793236    0.256316    0.807062
   18          1             0        0.899141    0.779794   -1.014265
   19          1             0        0.891245   -1.441839   -2.182901
   20          1             0        1.566216   -2.192480   -0.759112
   21          1             0        2.926862   -0.002910   -2.425940
   22          1             0        3.378933   -1.690632   -2.426769
   23          1             0        4.904285   -0.359937   -0.929247
   24          1             0        4.011362   -1.545391   -0.006781
   25          1             0        3.281527    1.424193   -0.244974
   26          1             0        3.971198    0.667571    1.171215
   27          1             0        1.478810    0.901095    1.426123
   28          1             0        1.930071   -0.784758    1.401655
 --------------------------------------------------------------------
     1 basis functions        1 primitive gaussians
     1 alpha electrons        1 beta electrons

 Harmonic frequencies (cm**-1), IR intensities (km*mol⁻¹),
 Raman scattering activities (A**4/amu), Raman depolarization ratios,
 reduced masses (AMU), force constants (mDyne/A) and normal coordinates:
                      1                      2                      3
                        a                      a                      a 
 Frequencies --  -133.9892                62.3556                74.0690
 Red. masses --    22.4564                25.1429                12.2668
 Frc consts  --     0.0000                 0.0000                 0.0000
 IR Inten    --   143.2584                18.9809                 6.1489
 Raman Activ --     0.0000                 0.0000                 0.0000
 Depolar     --     0.0000                 0.0000                 0.0000
 Atom AN      X      Y      Z        X      Y      Z        X      Y      Z
   1   7    -0.08   0.44   0.37    -0.09  -0.14  -0.14    -0.01  -0.03   0.15
   2   6    -0.10   0.12   0.17    -0.07  -0.19  -0.12     0.04  -0.33   0.11
   3   6     0.00   0.04   0.08    -0.15  -0.02  -0.06     0.03  -0.22   0.11
   4   6    -0.01   0.02   0.03    -0.14   0.03   0.00    -0.00  -0.06   0.11
   5   6    -0.04   0.02   0.02    -0.08   0.06   0.02    -0.00   0.18  -0.18
   6   6    -0.04  -0.00  -0.01    -0.06   0.09   0.09    -0.03   0.34  -0.15
   7   6    -0.02  -0.01  -0.02    -0.13   0.10   0.14     0.01   0.10  -0.13
   8   6     0.02  -0.01  -0.01    -0.20   0.09   0.12     0.00  -0.13   0.15
   9   6     0.02   0.01   0.01    -0.21   0.05   0.05     0.04  -0.29   0.13
  10  17     0.18  -0.47  -0.47     0.77  -0.04  -0.05    -0.06   0.29  -0.21
  11   1     0.03   0.15   0.12     0.01  -0.04  -0.03     0.00   0.07  -0.04
  12   1    -0.05   0.13   0.11    -0.04  -0.04  -0.04    -0.03   0.04   0.13
  13   1    -0.05   0.14   0.12    -0.03  -0.02  -0.03     0.01  -0.06   0.03
  14   1     0.00   0.02   0.03    -0.02  -0.07  -0.07     0.05  -0.13  -0.03
  15   1    -0.08   0.01   0.06    -0.01  -0.08  -0.00    -0.02  -0.15   0.08
  16   1     0.00   0.01   0.01    -0.03   0.01   0.01     0.04  -0.06   0.04
  17   1     0.02   0.01   0.04    -0.07   0.01  -0.04    -0.01  -0.07   0.03
  18   1    -0.00   0.01   0.01    -0.04   0.01   0.00    -0.02   0.02   0.09
  19   1    -0.02   0.01   0.01    -0.01   0.02  -0.01    -0.01   0.11  -0.06
  20   1    -0.01   0.00   0.00    -0.03   0.01   0.00     0.02   0.01  -0.12
  21   1    -0.01   0.00  -0.00    -0.02   0.03   0.03    -0.03   0.14   0.01
  22   1    -0.02  -0.00  -0.00    -0.01   0.03   0.03    -0.01   0.14  -0.10
  23   1    -0.01  -0.01  -0.01    -0.03   0.04   0.05    -0.00   0.06  -0.03
  24   1    -0.01  -0.00  -0.01    -0.04   0.03   0.04     0.02  -0.01  -0.10
  25   1     0.01  -0.00  -0.00    -0.06   0.03   0.03    -0.02  -0.00   0.10
  26   1     0.01  -0.00  -0.01    -0.07   0.03   0.04     0.01  -0.08   0.04
  27   1     0.01   0.00   0.01    -0.08   0.01   0.01     0.01  -0.13   0.09
  28   1     0.01   0.00   0.00    -0.06   0.01   0.01     0.03  -0.12  -0.02
                      4                      5                      6
                        a                      a                      a 
 Frequencies --   103.4321               132.1541               164.6713
 Red. masses --     9.2845                10.6965                 8.7939
 Frc consts  --     0.0000                 0.0000                 0.0000
 IR Inten    --     2.1267                 4.3933                11.3238
 Raman Activ --     0.0000                 0.0000                 0.0000
 Depolar     --     0.0000                 0.0000                 0.0000
 Atom AN      X      Y      Z        X      Y      Z        X      Y      Z
   1   7     0.08  -0.25   0.06    -0.08   0.25   0.21     0.00   0.34  -0.30
   2   6     0.04  -0.12   0.03    -0.08  -0.32  -0.11     0.18  -0.33  -0.11
   3   6    -0.00   0.44   0.04     0.04  -0.08  -0.24    -0.04   0.17   0.08
   4   6     0.01   0.31  -0.02     0.01   0.02  -0.26     0.02  -0.02   0.13
   5   6    -0.17   0.27  -0.09     0.14   0.04  -0.21    -0.05  -0.12   0.21
   6   6    -0.07  -0.01  -0.01     0.26  -0.04   0.07    -0.14  -0.06  -0.01
   7   6    -0.06  -0.30   0.04     0.05  -0.08   0.24     0.00   0.10  -0.15
   8   6     0.16  -0.20   0.05    -0.03   0.02   0.05     0.02   0.06  -0.08
   9   6     0.06   0.10  -0.01    -0.12   0.11  -0.17     0.09  -0.02   0.07
  10  17    -0.04  -0.12  -0.07    -0.12   0.03   0.24    -0.07  -0.11   0.14
  11   1    -0.01  -0.04  -0.03     0.07   0.12   0.04     0.06   0.12  -0.09
  12   1     0.05  -0.04   0.06    -0.08   0.10   0.10    -0.12   0.11  -0.06
  13   1     0.03  -0.13   0.01    -0.06   0.09   0.09     0.03   0.16  -0.11
  14   1    -0.04  -0.09  -0.08     0.02  -0.16  -0.15     0.15  -0.20  -0.21
  15   1     0.06  -0.09   0.09    -0.10  -0.20   0.05     0.04  -0.24   0.13
  16   1     0.01   0.19   0.12     0.05  -0.00  -0.03    -0.03   0.12   0.15
  17   1    -0.03   0.20  -0.07     0.00  -0.01  -0.09    -0.05   0.14  -0.08
  18   1     0.03   0.10   0.01    -0.01   0.00  -0.08     0.03  -0.02   0.02
  19   1    -0.04   0.14  -0.04     0.08   0.04  -0.09    -0.04  -0.07   0.08
  20   1    -0.12   0.06  -0.05    -0.01   0.00  -0.07     0.02  -0.01   0.09
  21   1     0.04   0.01   0.02     0.13  -0.01   0.02    -0.09  -0.03  -0.02
  22   1    -0.07  -0.02  -0.02     0.09  -0.02   0.04    -0.05  -0.02   0.00
  23   1     0.01  -0.15   0.03     0.04  -0.06   0.12    -0.02   0.06  -0.09
  24   1    -0.09  -0.10   0.00    -0.04  -0.02   0.09     0.06   0.04  -0.04
  25   1     0.11  -0.05   0.02     0.03  -0.01  -0.01    -0.03   0.02  -0.02
  26   1     0.05  -0.10   0.02    -0.05   0.02   0.05     0.03   0.02  -0.04
  27   1     0.06   0.05   0.00    -0.06   0.05  -0.08     0.03  -0.02   0.04
  28   1    -0.04   0.02  -0.01    -0.07   0.05  -0.02     0.05  -0.01   0.01
                      7                      8                      9
                        a                      a                      a 
 Frequencies --   209.8954               256.6374               295.5657
 Red. masses --     8.0998                 6.4122                 9.5909
 Frc consts  --     0.0000                 0.0000                 0.0000
 IR Inten    --     2.9356                 0.2609                10.5228
 Raman Activ --     0.0000                 0.0000                 0.0000
 Depolar     --     0.0000                 0.0000                 0.0000
 Atom AN      X      Y      Z        X      Y      Z        X      Y      Z
   1   7    -0.01  -0.10   0.22    -0.05  -0.01   0.01    -0.52  -0.10  -0.15
   2   6    -0.16   0.10  -0.13    -0.06  -0.03  -0.04    -0.30  -0.07   0.17
   3   6    -0.07   0.41  -0.22    -0.01  -0.06  -0.07    -0.14   0.04   0.10
   4   6     0.06  -0.07  -0.13    -0.01  -0.03  -0.07    -0.05   0.05   0.03
   5   6     0.11  -0.21   0.07     0.14  -0.18   0.23     0.11   0.12   0.03
   6   6     0.06  -0.00   0.01    -0.12   0.30  -0.10     0.20  -0.00   0.06
   7   6     0.12   0.23  -0.08     0.00  -0.10  -0.11     0.33   0.01  -0.04
   8   6    -0.07  -0.06   0.17     0.18  -0.23   0.18     0.21  -0.04  -0.05
   9   6    -0.05  -0.31   0.01    -0.07   0.31  -0.07     0.16  -0.03  -0.06
  10  17    -0.00   0.02   0.01    -0.00   0.01  -0.00     0.03   0.02  -0.03
  11   1    -0.00  -0.00   0.03     0.00  -0.00   0.01    -0.10  -0.12   0.08
  12   1     0.08  -0.00   0.11    -0.02  -0.01  -0.01    -0.24  -0.11  -0.21
  13   1    -0.05  -0.11   0.10    -0.02   0.01   0.01    -0.10   0.17  -0.08
  14   1    -0.12   0.00  -0.08    -0.02  -0.01  -0.01    -0.09  -0.02   0.05
  15   1    -0.03   0.01  -0.01    -0.03  -0.01  -0.02    -0.07  -0.02   0.05
  16   1    -0.08   0.18   0.05     0.00  -0.02  -0.03    -0.03   0.03   0.05
  17   1     0.01   0.22  -0.15    -0.00  -0.03  -0.01    -0.02   0.03   0.02
  18   1     0.11  -0.03  -0.06    -0.02  -0.05  -0.09    -0.03   0.02   0.02
  19   1     0.04  -0.13   0.03     0.00  -0.22   0.13     0.05   0.03  -0.01
  20   1     0.07  -0.03   0.07     0.19   0.01   0.17     0.02   0.03   0.01
  21   1    -0.04  -0.02  -0.01    -0.13   0.17   0.09     0.08  -0.01   0.00
  22   1     0.05   0.01   0.01    -0.03   0.19  -0.16     0.02  -0.02   0.03
  23   1    -0.01   0.17  -0.06     0.01  -0.03  -0.02     0.08   0.04  -0.04
  24   1     0.15   0.06  -0.05    -0.02  -0.08  -0.11     0.14   0.01  -0.01
  25   1    -0.05   0.02   0.12     0.19  -0.01   0.13     0.07  -0.01  -0.01
  26   1    -0.03  -0.06   0.07     0.03  -0.21   0.10     0.04  -0.01   0.00
  27   1    -0.04  -0.15   0.06     0.01   0.21  -0.14     0.08  -0.02   0.01
  28   1    -0.01  -0.14  -0.07    -0.13   0.17   0.10     0.05  -0.02  -0.04
                     10                     11                     12
                        a                      a                      a 
 Frequencies --   327.7957               336.2747               356.7507
 Red. masses --     4.1036                 6.3407                 7.3615
 Frc consts  --     0.0000                 0.0000                 0.0000
 IR Inten    --     0.6176                 2.1784                 1.7750
 Raman Activ --     0.0000                 0.0000                 0.0000
 Depolar     --     0.0000                 0.0000                 0.0000
 Atom AN      X      Y      Z        X      Y      Z        X      Y      Z
   1   7     0.13  -0.05   0.06    -0.15   0.03  -0.15    -0.02   0.04  -0.13
   2   6     0.13  -0.02   0.14    -0.01   0.09   0.20     0.14   0.03   0.30
   3   6     0.09   0.14   0.13    -0.02   0.16   0.21     0.12   0.02   0.26
   4   6     0.04  -0.14  -0.10     0.00  -0.25  -0.07    -0.05  -0.02  -0.21
   5   6     0.02  -0.13  -0.15     0.12  -0.19  -0.11    -0.09  -0.08  -0.21
   6   6    -0.02   0.13  -0.06     0.08   0.24   0.01     0.02  -0.20  -0.02
   7   6    -0.15  -0.02   0.08    -0.04  -0.13   0.18     0.03   0.22  -0.08
   8   6    -0.12   0.04   0.02    -0.05   0.11  -0.15    -0.03  -0.08   0.28
   9   6    -0.07  -0.07  -0.05     0.02  -0.07  -0.13    -0.19   0.11  -0.17
  10  17    -0.04   0.06  -0.05     0.04  -0.05   0.02     0.02  -0.02   0.00
  11   1     0.19  -0.25   0.33    -0.19   0.13  -0.23    -0.10   0.04  -0.11
  12   1    -0.10  -0.22  -0.39    -0.00   0.12   0.17    -0.04   0.04   0.02
  13   1    -0.01   0.44   0.06     0.06  -0.24  -0.13     0.08  -0.06  -0.12
  14   1     0.04  -0.01   0.03     0.01   0.02   0.04     0.07   0.01   0.09
  15   1     0.06  -0.01   0.05     0.05   0.02   0.08     0.08   0.02   0.09
  16   1    -0.00   0.09   0.13    -0.07   0.09   0.14     0.06   0.02   0.09
  17   1     0.07   0.12  -0.03     0.06   0.13   0.00     0.08   0.02   0.08
  18   1     0.03  -0.05  -0.04     0.00  -0.09  -0.05    -0.05  -0.02  -0.08
  19   1     0.01  -0.03  -0.05     0.05  -0.06  -0.04     0.01   0.02  -0.10
  20   1     0.03  -0.05  -0.06     0.09  -0.07  -0.06    -0.09  -0.03  -0.08
  21   1    -0.03   0.07   0.04    -0.02   0.16   0.13     0.02  -0.13  -0.10
  22   1     0.04   0.09  -0.06     0.06   0.18  -0.11     0.04  -0.12   0.09
  23   1    -0.02  -0.05   0.07     0.04  -0.14   0.12    -0.04   0.18  -0.08
  24   1    -0.11  -0.01   0.03    -0.15  -0.04   0.08     0.15   0.06  -0.05
  25   1    -0.04   0.00  -0.01    -0.05  -0.02  -0.13     0.10   0.06   0.21
  26   1    -0.04   0.03   0.00    -0.03   0.13  -0.05    -0.05  -0.19   0.15
  27   1    -0.06  -0.03  -0.03    -0.03  -0.03  -0.04    -0.08   0.07  -0.11
  28   1    -0.01  -0.01  -0.01     0.06  -0.01  -0.03    -0.14   0.06  -0.00
                     13                     14                     15
                        a                      a                      a 
 Frequencies --   431.7974               442.7296               469.8185
 Red. masses --     9.2471                 8.3110                 7.5953
 Frc consts  --     0.0000                 0.0000                 0.0000
 IR Inten    --     0.0249                 0.5265                 1.9305
 Raman Activ --     0.0000                 0.0000                 0.0000
 Depolar     --     0.0000                 0.0000                 0.0000
 Atom AN      X      Y      Z        X      Y      Z        X      Y      Z
   1   7    -0.02   0.01  -0.02    -0.16  -0.04   0.00    -0.23  -0.03  -0.06
   2   6     0.03   0.01   0.10    -0.14   0.01  -0.08    -0.06  -0.06   0.15
   3   6     0.02   0.07   0.08    -0.01   0.05  -0.10     0.30  -0.00  -0.13
   4   6     0.01   0.11   0.09     0.26  -0.29   0.23     0.24   0.25  -0.17
   5   6     0.33   0.18   0.10     0.03  -0.11  -0.24     0.06  -0.02   0.10
   6   6     0.28  -0.07  -0.33     0.03  -0.10  -0.20    -0.09  -0.06  -0.15
   7   6    -0.02  -0.10  -0.14    -0.19   0.08  -0.05    -0.35   0.03   0.04
   8   6    -0.37  -0.23  -0.13     0.09   0.11   0.13     0.03   0.17   0.13
   9   6    -0.28   0.03   0.23     0.12   0.21   0.35     0.11  -0.09   0.02
  10  17     0.00  -0.01   0.00     0.01  -0.00   0.00     0.01  -0.00  -0.00
  11   1    -0.03   0.00  -0.02    -0.05  -0.01  -0.00    -0.11   0.00  -0.05
  12   1    -0.02   0.01   0.00    -0.03  -0.01   0.01    -0.12  -0.00  -0.01
  13   1     0.02  -0.01  -0.03    -0.05  -0.03   0.01     0.01  -0.00  -0.08
  14   1     0.01  -0.00   0.02    -0.06  -0.00  -0.03    -0.03  -0.01   0.04
  15   1     0.03  -0.00   0.04    -0.06  -0.00  -0.02    -0.04  -0.01   0.03
  16   1     0.01   0.03   0.04    -0.09   0.05   0.03     0.20  -0.03  -0.10
  17   1     0.01   0.03   0.01     0.02   0.08  -0.08     0.09  -0.07   0.03
  18   1     0.01   0.04   0.04     0.12  -0.07   0.06     0.10   0.07  -0.04
  19   1     0.04  -0.06   0.09    -0.04   0.16  -0.07    -0.04  -0.15   0.11
  20   1     0.18   0.09   0.10    -0.04  -0.13  -0.22     0.09   0.08   0.16
  21   1     0.13  -0.06  -0.15     0.02  -0.06  -0.11    -0.02  -0.06  -0.10
  22   1     0.03  -0.09  -0.03     0.06  -0.06   0.01     0.01  -0.06   0.03
  23   1     0.01   0.04   0.07    -0.03  -0.02   0.01    -0.04  -0.13   0.08
  24   1    -0.02  -0.05  -0.07    -0.10   0.02  -0.01    -0.25   0.01   0.04
  25   1    -0.18  -0.10  -0.09     0.03   0.05   0.07     0.03   0.08   0.10
  26   1    -0.06   0.02  -0.09     0.09  -0.02  -0.00     0.04  -0.04   0.03
  27   1    -0.03   0.07   0.02    -0.01   0.16  -0.05    -0.01  -0.15   0.13
  28   1    -0.14   0.04   0.11     0.04   0.17   0.26     0.08  -0.13  -0.14
                     16                     17                     18
                        a                      a                      a 
 Frequencies --   573.6861               789.7767               818.0382
 Red. masses --     6.5595                 3.3707                 5.3958
 Frc consts  --     0.0000                 0.0000                 0.0000
 IR Inten    --     2.9392                17.1536                 5.4756
 Raman Activ --     0.0000                 0.0000                 0.0000
 Depolar     --     0.0000                 0.0000                 0.0000
 Atom AN      X      Y      Z        X      Y      Z        X      Y      Z
   1   7    -0.15  -0.02  -0.02    -0.02  -0.01   0.01     0.03  -0.02  -0.01
   2   6    -0.01  -0.03   0.11     0.04  -0.19  -0.01     0.01  -0.10  -0.02
   3   6     0.35   0.05  -0.19     0.15  -0.18  -0.11    -0.09  -0.01   0.07
   4   6     0.27   0.09  -0.08     0.06  -0.11   0.01    -0.05   0.23   0.03
   5   6    -0.13  -0.08  -0.00     0.03   0.20   0.13     0.08  -0.23  -0.06
   6   6    -0.16   0.03   0.23    -0.08   0.05   0.10     0.15  -0.25  -0.16
   7   6     0.13  -0.06   0.01    -0.04   0.01  -0.02     0.03  -0.14  -0.04
   8   6    -0.17  -0.15  -0.08    -0.03  -0.03  -0.05    -0.06   0.14   0.02
   9   6    -0.08   0.02   0.17    -0.02  -0.03  -0.10    -0.09   0.25   0.17
  10  17     0.01  -0.00  -0.00    -0.01  -0.00   0.01    -0.01   0.00   0.00
  11   1    -0.08  -0.00  -0.03     0.08   0.10  -0.07     0.12   0.08  -0.05
  12   1    -0.09  -0.01  -0.02    -0.16   0.05   0.08    -0.09   0.03   0.06
  13   1     0.02   0.01  -0.07     0.02   0.05  -0.02    -0.02   0.05   0.03
  14   1    -0.03  -0.01   0.02    -0.01   0.18   0.38    -0.03   0.07   0.16
  15   1    -0.03  -0.01   0.02    -0.08   0.23  -0.34     0.02   0.11  -0.14
  16   1     0.18  -0.01  -0.10    -0.03   0.17   0.36     0.04   0.02   0.06
  17   1     0.11  -0.04   0.00     0.03   0.26  -0.33    -0.11   0.00  -0.02
  18   1     0.16   0.03  -0.03    -0.03  -0.02   0.02    -0.04   0.02  -0.05
  19   1    -0.02   0.11  -0.04    -0.00   0.09   0.04     0.02   0.06  -0.05
  20   1    -0.15  -0.06  -0.06    -0.01   0.04   0.01    -0.12  -0.09  -0.06
  21   1    -0.12   0.11   0.21     0.02  -0.03  -0.03    -0.11   0.12   0.23
  22   1    -0.04   0.14  -0.09    -0.07  -0.06   0.08     0.09   0.18  -0.31
  23   1    -0.05   0.16  -0.11    -0.01  -0.01  -0.01    -0.02   0.06  -0.02
  24   1     0.25  -0.01  -0.03    -0.02   0.00  -0.01     0.11   0.00   0.03
  25   1    -0.18  -0.12  -0.16     0.03   0.01   0.02     0.10   0.07   0.05
  26   1    -0.02   0.15  -0.09    -0.03  -0.05   0.01     0.01  -0.08   0.02
  27   1    -0.01   0.09  -0.05    -0.01   0.00  -0.05    -0.03  -0.15   0.31
  28   1    -0.10   0.06   0.13     0.01   0.01  -0.00     0.10  -0.11  -0.21
                     19                     20                     21
                        a                      a                      a 
 Frequencies --   821.7568               874.8178               882.5887
 Red. masses --     5.8412                 3.4373                 7.3202
 Frc consts  --     0.0000                 0.0000                 0.0000
 IR Inten    --     3.2068                10.8490                 6.4844
 Raman Activ --     0.0000                 0.0000                 0.0000
 Depolar     --     0.0000                 0.0000                 0.0000
 Atom AN      X      Y      Z        X      Y      Z        X      Y      Z
   1   7    -0.03  -0.00   0.03    -0.03   0.12   0.04     0.05   0.05   0.04
   2   6     0.00   0.08   0.01    -0.01   0.11   0.01     0.01   0.01   0.09
   3   6     0.09   0.04  -0.06     0.08  -0.19  -0.07     0.06  -0.05  -0.14
   4   6     0.10  -0.11   0.18     0.02  -0.09   0.00    -0.06  -0.04  -0.01
   5   6     0.18   0.07   0.32     0.07   0.15  -0.05    -0.20  -0.01   0.12
   6   6     0.06  -0.02   0.16    -0.07  -0.07  -0.03    -0.02  -0.04  -0.23
   7   6    -0.07   0.05  -0.15    -0.12  -0.18   0.08     0.50  -0.02  -0.10
   8   6    -0.20  -0.03  -0.26    -0.01   0.07   0.07     0.08   0.23   0.13
   9   6    -0.11   0.02  -0.21    -0.01   0.16  -0.00    -0.25  -0.06   0.09
  10  17     0.00   0.00  -0.00     0.01   0.00  -0.00     0.01   0.00  -0.00
  11   1    -0.09  -0.04   0.02    -0.33  -0.19   0.12    -0.18  -0.07   0.03
  12   1     0.04  -0.03  -0.04     0.29  -0.08  -0.16     0.05  -0.04  -0.08
  13   1     0.02  -0.02  -0.02     0.05  -0.14  -0.05     0.12  -0.03  -0.09
  14   1    -0.00  -0.05  -0.13     0.18  -0.05  -0.12     0.06  -0.01   0.00
  15   1    -0.00  -0.08   0.11    -0.19  -0.12   0.09    -0.10  -0.03   0.02
  16   1    -0.01  -0.03  -0.09    -0.12   0.05   0.17     0.01   0.03   0.03
  17   1     0.06  -0.03   0.04     0.09   0.13  -0.17     0.02   0.04  -0.09
  18   1     0.06  -0.07  -0.01    -0.11  -0.02   0.01     0.01  -0.01  -0.01
  19   1     0.08   0.37  -0.01    -0.05  -0.03   0.05    -0.10   0.06   0.05
  20   1    -0.16  -0.13  -0.16     0.11   0.07   0.03    -0.11  -0.02   0.01
  21   1    -0.08   0.02   0.08     0.08   0.04   0.07    -0.08  -0.01  -0.06
  22   1    -0.03   0.03  -0.02    -0.06   0.00  -0.06    -0.11  -0.02  -0.12
  23   1     0.03  -0.07   0.04    -0.14   0.18  -0.13     0.26  -0.29   0.12
  24   1    -0.14   0.04   0.03     0.26  -0.03  -0.02    -0.19  -0.01   0.03
  25   1     0.16   0.14   0.17     0.10  -0.02  -0.06    -0.05   0.07   0.05
  26   1    -0.12  -0.34   0.05    -0.01   0.02   0.02    -0.04   0.12   0.07
  27   1    -0.01  -0.04   0.01    -0.07  -0.11   0.13    -0.13  -0.03   0.00
  28   1     0.07  -0.02  -0.10     0.13  -0.05  -0.14    -0.09  -0.01   0.03
                     22                     23                     24
                        a                      a                      a 
 Frequencies --   919.2040               925.9818               930.9416
 Red. masses --     6.0701                 5.3997                 4.3952
 Frc consts  --     0.0000                 0.0000                 0.0000
 IR Inten    --     6.3543                19.2388                 7.3495
 Raman Activ --     0.0000                 0.0000                 0.0000
 Depolar     --     0.0000                 0.0000                 0.0000
 Atom AN      X      Y      Z        X      Y      Z        X      Y      Z
   1   7     0.11   0.12   0.05    -0.24   0.04  -0.06     0.21  -0.01   0.09
   2   6    -0.04  -0.05   0.09     0.07   0.02  -0.19    -0.05  -0.04   0.16
   3   6    -0.11  -0.11  -0.08     0.10  -0.09   0.21    -0.07   0.06  -0.21
   4   6    -0.16   0.22  -0.14     0.12   0.14   0.06    -0.06  -0.05   0.10
   5   6     0.08  -0.18  -0.06    -0.16  -0.02  -0.05    -0.13   0.08  -0.17
   6   6     0.11   0.04   0.22     0.11  -0.15  -0.12     0.07  -0.12   0.00
   7   6    -0.14   0.21  -0.13     0.06   0.12   0.08    -0.01  -0.01   0.07
   8   6     0.09  -0.18  -0.13    -0.15  -0.03  -0.07    -0.10   0.08  -0.19
   9   6     0.07  -0.02   0.21     0.14  -0.16  -0.13     0.08  -0.12   0.02
  10  17     0.01   0.00  -0.00    -0.00   0.00  -0.00     0.00  -0.00   0.00
  11   1    -0.25  -0.11   0.06     0.01  -0.07   0.09    -0.11   0.02  -0.06
  12   1     0.15  -0.05  -0.12     0.26  -0.00  -0.01    -0.21  -0.02  -0.03
  13   1     0.15  -0.06  -0.11    -0.28  -0.12   0.19     0.30   0.09  -0.21
  14   1     0.12   0.01   0.07     0.18   0.03  -0.01    -0.12  -0.01   0.03
  15   1    -0.15  -0.02  -0.03    -0.07   0.00  -0.08    -0.02  -0.00   0.03
  16   1     0.03   0.04   0.10     0.07   0.03   0.15    -0.05  -0.01  -0.10
  17   1    -0.11   0.04  -0.12    -0.03   0.04  -0.02    -0.04  -0.02  -0.03
  18   1    -0.05   0.05  -0.04     0.03   0.11   0.13     0.04   0.09   0.18
  19   1     0.15  -0.02  -0.12    -0.09  -0.10   0.04    -0.07  -0.23   0.03
  20   1    -0.14  -0.04   0.00    -0.08   0.08   0.13     0.10   0.14   0.15
  21   1    -0.11  -0.02   0.02    -0.05   0.07   0.13     0.11   0.09   0.17
  22   1     0.18   0.06   0.10     0.08   0.11  -0.18     0.00   0.07  -0.13
  23   1     0.02  -0.09   0.03     0.05  -0.00   0.11    -0.03   0.04  -0.03
  24   1    -0.20   0.05  -0.01    -0.05   0.09   0.14     0.09   0.11   0.18
  25   1    -0.11  -0.02   0.03    -0.05   0.08   0.13     0.10   0.14   0.16
  26   1     0.17  -0.08  -0.14    -0.09  -0.11   0.04    -0.06  -0.24   0.03
  27   1     0.17   0.07   0.06     0.09   0.11  -0.19     0.02   0.07  -0.12
  28   1    -0.13  -0.01   0.05    -0.04   0.07   0.13     0.10   0.09   0.18
                     25                     26                     27
                        a                      a                      a 
 Frequencies --   951.0723               968.9049              1011.0520
 Red. masses --     6.7366                 7.2874                 9.7254
 Frc consts  --     0.0000                 0.0000                 0.0000
 IR Inten    --     4.9062                13.6871                 8.8653
 Raman Activ --     0.0000                 0.0000                 0.0000
 Depolar     --     0.0000                 0.0000                 0.0000
 Atom AN      X      Y      Z        X      Y      Z        X      Y      Z
   1   7     0.08   0.04   0.07    -0.16  -0.02   0.01    -0.37  -0.10   0.33
   2   6    -0.02  -0.06   0.01     0.13   0.03  -0.07     0.61   0.11  -0.23
   3   6    -0.03   0.03  -0.06     0.19   0.04  -0.02    -0.02   0.03  -0.05
   4   6     0.06   0.08   0.20    -0.09  -0.04   0.05    -0.09   0.03   0.08
   5   6    -0.21  -0.19   0.09    -0.23  -0.15  -0.22     0.05  -0.02  -0.02
   6   6     0.09   0.13  -0.26    -0.01   0.25   0.16     0.02  -0.04   0.00
   7   6     0.03   0.11   0.26     0.20   0.00  -0.02    -0.06   0.00  -0.03
   8   6    -0.15  -0.22   0.03    -0.11  -0.08  -0.28     0.07   0.02   0.06
   9   6     0.19   0.12  -0.24    -0.12   0.20   0.25    -0.03  -0.03  -0.07
  10  17     0.00   0.00   0.00    -0.00  -0.00  -0.00     0.01  -0.00  -0.00
  11   1    -0.14  -0.03  -0.00     0.02  -0.01   0.02    -0.25  -0.01   0.02
  12   1    -0.05  -0.03  -0.05     0.02   0.00   0.02    -0.28  -0.04   0.03
  13   1     0.17   0.01  -0.12    -0.12  -0.03   0.07     0.09   0.03  -0.09
  14   1    -0.02   0.01   0.05     0.06   0.01  -0.01     0.08   0.03  -0.06
  15   1    -0.11   0.01  -0.06     0.02   0.01  -0.02     0.12   0.02  -0.06
  16   1     0.03   0.00  -0.03     0.09   0.01   0.00    -0.10  -0.02  -0.06
  17   1    -0.14  -0.03  -0.03     0.05   0.01  -0.01    -0.12  -0.01  -0.04
  18   1     0.04  -0.04  -0.04     0.01  -0.01   0.01    -0.07   0.02   0.05
  19   1    -0.18   0.08   0.09    -0.05  -0.23  -0.02     0.07  -0.02  -0.04
  20   1    -0.04  -0.11  -0.08     0.14   0.00   0.01    -0.02   0.00   0.01
  21   1    -0.02  -0.05  -0.18     0.15  -0.05  -0.13    -0.04   0.00   0.02
  22   1     0.13  -0.01   0.05    -0.00  -0.09   0.23     0.04   0.02  -0.02
  23   1     0.02   0.21   0.25     0.09  -0.05   0.05    -0.02  -0.01  -0.04
  24   1     0.03  -0.07  -0.10    -0.03  -0.01  -0.00    -0.01  -0.01  -0.03
  25   1     0.04  -0.14  -0.13     0.19   0.05   0.04    -0.03  -0.02  -0.03
  26   1    -0.16   0.06   0.07    -0.06  -0.24   0.00     0.03   0.07  -0.00
  27   1     0.15   0.00   0.03    -0.01  -0.08   0.25    -0.01   0.01  -0.04
  28   1     0.09  -0.01  -0.13     0.16  -0.04  -0.07    -0.06  -0.00  -0.00
                     28                     29                     30
                        a                      a                      a 
 Frequencies --  1016.3901              1067.5287              1069.3229
 Red. masses --     4.4018                 7.2197                 2.2923
 Frc consts  --     0.0000                 0.0000                 0.0000
 IR Inten    --     2.1165                 0.7594                 0.3885
 Raman Activ --     0.0000                 0.0000                 0.0000
 Depolar     --     0.0000                 0.0000                 0.0000
 Atom AN      X      Y      Z        X      Y      Z        X      Y      Z
   1   7    -0.00  -0.11  -0.03    -0.01  -0.00  -0.04     0.04   0.00  -0.02
   2   6    -0.02   0.19   0.03     0.00  -0.01   0.04    -0.09   0.02   0.02
   3   6     0.20  -0.16  -0.11     0.08   0.04  -0.05     0.02  -0.05   0.00
   4   6    -0.16  -0.09  -0.09    -0.06  -0.08   0.06     0.07   0.07   0.09
   5   6    -0.13   0.07   0.07    -0.28   0.01   0.18     0.08  -0.04  -0.11
   6   6     0.09  -0.08  -0.08     0.37   0.07  -0.05     0.01  -0.00   0.12
   7   6    -0.00   0.15   0.06    -0.22   0.02   0.00     0.02  -0.07  -0.15
   8   6    -0.02  -0.15   0.01     0.33   0.04  -0.11    -0.09   0.06   0.09
   9   6     0.14   0.11   0.09    -0.30  -0.13  -0.01    -0.02   0.00  -0.06
  10  17    -0.00  -0.00   0.00    -0.00   0.00  -0.00    -0.00  -0.00   0.00
  11   1     0.15   0.07  -0.06     0.04   0.00   0.00     0.02   0.01  -0.01
  12   1    -0.14   0.02   0.07     0.03   0.01   0.01     0.00   0.00   0.00
  13   1    -0.02   0.06   0.01    -0.05  -0.01   0.04     0.01   0.01  -0.00
  14   1    -0.13  -0.06  -0.18     0.03   0.00   0.02    -0.04  -0.01  -0.03
  15   1     0.13  -0.05   0.16    -0.02   0.00   0.00     0.02  -0.01   0.03
  16   1    -0.28  -0.00   0.05     0.08   0.01  -0.02    -0.06   0.01   0.04
  17   1     0.39   0.13  -0.07     0.02  -0.00   0.00     0.03   0.02  -0.02
  18   1    -0.31  -0.02   0.00     0.06   0.01   0.06     0.01   0.20   0.31
  19   1    -0.02  -0.01   0.01    -0.16   0.05   0.10     0.21  -0.12  -0.15
  20   1    -0.17   0.07   0.11    -0.14   0.02   0.08    -0.22   0.11   0.19
  21   1    -0.11   0.01   0.04     0.11   0.05   0.03    -0.30  -0.09  -0.07
  22   1     0.07   0.06  -0.09     0.30   0.09   0.03     0.18   0.05   0.09
  23   1     0.05   0.06   0.18    -0.09   0.11  -0.02     0.03  -0.02   0.03
  24   1    -0.08   0.03   0.01     0.06  -0.02  -0.07    -0.08  -0.21  -0.31
  25   1    -0.08  -0.04  -0.00     0.17  -0.04  -0.13     0.18  -0.07  -0.14
  26   1     0.07  -0.01  -0.06     0.23  -0.02  -0.13    -0.21   0.10   0.15
  27   1     0.17   0.02   0.12    -0.28  -0.07  -0.08    -0.19  -0.04  -0.08
  28   1    -0.02  -0.03  -0.06    -0.03  -0.00   0.04     0.26   0.08   0.08
                     31                     32                     33
                        a                      a                      a 
 Frequencies --  1088.0673              1099.3263              1109.9312
 Red. masses --     6.6371                 8.4778                 8.6815
 Frc consts  --     0.0000                 0.0000                 0.0000
 IR Inten    --     6.7854                 5.4993                 2.6060
 Raman Activ --     0.0000                 0.0000                 0.0000
 Depolar     --     0.0000                 0.0000                 0.0000
 Atom AN      X      Y      Z        X      Y      Z        X      Y      Z
   1   7    -0.10   0.03  -0.03     0.00  -0.05   0.05    -0.03  -0.01  -0.07
   2   6     0.19  -0.06   0.19     0.09   0.07   0.05     0.05   0.03   0.18
   3   6    -0.15   0.09  -0.22    -0.41  -0.19   0.10    -0.05  -0.03  -0.18
   4   6    -0.27  -0.16  -0.29     0.54   0.02  -0.28    -0.02   0.10   0.16
   5   6    -0.01   0.10   0.19    -0.10   0.10  -0.01     0.27  -0.03  -0.13
   6   6     0.01   0.00  -0.13    -0.03   0.03   0.05    -0.33  -0.10  -0.13
   7   6    -0.02  -0.04   0.09     0.07   0.06   0.03     0.05   0.20   0.33
   8   6    -0.08   0.04  -0.00    -0.04  -0.09  -0.10     0.27  -0.11  -0.21
   9   6     0.22  -0.04   0.17    -0.03   0.09   0.08    -0.27  -0.09  -0.01
  10  17    -0.00   0.00  -0.00    -0.00  -0.00   0.00    -0.00  -0.00  -0.00
  11   1     0.02  -0.03   0.05     0.01   0.02  -0.01     0.08   0.01   0.01
  12   1     0.11   0.01   0.01    -0.07  -0.00   0.02     0.05   0.02   0.03
  13   1    -0.12  -0.04   0.08     0.03   0.03  -0.01    -0.08  -0.01   0.06
  14   1     0.18   0.03   0.14     0.06  -0.00  -0.02     0.08  -0.00   0.04
  15   1     0.12   0.03   0.03     0.06  -0.02   0.07     0.06  -0.01   0.08
  16   1     0.16   0.01  -0.09    -0.30  -0.05   0.04    -0.03   0.01  -0.01
  17   1    -0.04  -0.03  -0.01    -0.10  -0.01  -0.02     0.01   0.03  -0.07
  18   1     0.10  -0.04  -0.09     0.21  -0.00  -0.09     0.03   0.10   0.16
  19   1     0.17   0.06  -0.09    -0.08  -0.01   0.05     0.02   0.03  -0.01
  20   1    -0.13   0.00   0.02    -0.08   0.09   0.12     0.10  -0.03  -0.07
  21   1    -0.05  -0.01  -0.04    -0.03  -0.00  -0.01    -0.25  -0.06  -0.07
  22   1    -0.18  -0.05  -0.09    -0.03  -0.00   0.02    -0.03  -0.00  -0.03
  23   1     0.00   0.19   0.21     0.05   0.05   0.14     0.01   0.06   0.09
  24   1     0.05  -0.06  -0.07    -0.03   0.01   0.01     0.03   0.10   0.16
  25   1     0.11   0.01  -0.01     0.03  -0.01  -0.01     0.22  -0.07  -0.13
  26   1     0.01  -0.06  -0.00     0.10  -0.10  -0.10     0.01  -0.02  -0.01
  27   1    -0.02   0.02  -0.04    -0.19  -0.07   0.01     0.01   0.00   0.02
  28   1     0.28   0.09   0.17     0.00  -0.03  -0.06    -0.11  -0.03  -0.01
                     34                     35                     36
                        a                      a                      a 
 Frequencies --  1122.8468              1164.3226              1191.3578
 Red. masses --     6.6126                 7.8843                 3.9596
 Frc consts  --     0.0000                 0.0000                 0.0000
 IR Inten    --    12.5992                 2.7978                 1.4897
 Raman Activ --     0.0000                 0.0000                 0.0000
 Depolar     --     0.0000                 0.0000                 0.0000
 Atom AN      X      Y      Z        X      Y      Z        X      Y      Z
   1   7     0.06   0.06   0.11    -0.04   0.08  -0.05     0.01  -0.07  -0.04
   2   6    -0.16  -0.08  -0.37     0.06  -0.16   0.13    -0.04   0.14   0.10
   3   6     0.20   0.11   0.37    -0.02   0.21  -0.15     0.08  -0.09  -0.10
   4   6    -0.04  -0.13  -0.12     0.05  -0.27   0.20     0.01   0.17   0.23
   5   6     0.07   0.11  -0.00    -0.05   0.21  -0.15    -0.03  -0.22  -0.02
   6   6    -0.11  -0.07  -0.05     0.03  -0.22   0.16     0.04   0.08   0.06
   7   6     0.03   0.11   0.13    -0.00   0.23  -0.17    -0.01  -0.09  -0.08
   8   6     0.08  -0.07  -0.08     0.01  -0.24   0.16    -0.02   0.06   0.08
   9   6    -0.06  -0.00   0.09    -0.01   0.24  -0.16     0.04   0.02  -0.18
  10  17     0.00   0.00   0.00    -0.00   0.00  -0.00    -0.00  -0.00   0.00
  11   1    -0.17  -0.02  -0.00    -0.01  -0.03   0.05     0.09   0.03  -0.03
  12   1    -0.06  -0.03  -0.06     0.12   0.00  -0.02    -0.03   0.01   0.04
  13   1     0.15   0.01  -0.11    -0.07  -0.05   0.05    -0.03   0.03   0.02
  14   1    -0.19  -0.00  -0.07     0.03   0.02   0.15     0.05  -0.02  -0.06
  15   1    -0.11   0.03  -0.18     0.03   0.04  -0.05    -0.04  -0.04   0.09
  16   1     0.13  -0.01   0.03     0.05  -0.02  -0.16     0.00   0.03   0.07
  17   1    -0.00  -0.04   0.14    -0.07  -0.06   0.04    -0.13   0.02  -0.12
  18   1    -0.06  -0.02  -0.01    -0.01  -0.07   0.04    -0.04   0.10   0.15
  19   1     0.13  -0.03  -0.08    -0.02  -0.12   0.02     0.17  -0.09  -0.14
  20   1    -0.05   0.05   0.04     0.11   0.12   0.07     0.03  -0.09  -0.07
  21   1    -0.14  -0.02  -0.01    -0.04   0.04   0.18     0.17   0.02   0.01
  22   1    -0.18  -0.03  -0.09    -0.02   0.05  -0.11    -0.36  -0.12  -0.05
  23   1     0.05   0.15   0.25     0.08  -0.07   0.10     0.04   0.20   0.29
  24   1    -0.01   0.02   0.02    -0.19   0.05  -0.01     0.01  -0.04  -0.05
  25   1     0.10  -0.04  -0.06    -0.14  -0.12  -0.07    -0.17   0.05   0.09
  26   1     0.18  -0.08  -0.12     0.09   0.09  -0.07     0.31  -0.07  -0.20
  27   1    -0.18  -0.06  -0.02    -0.10  -0.09   0.07    -0.21  -0.05  -0.12
  28   1     0.07   0.01   0.03     0.07  -0.04  -0.18    -0.06  -0.00  -0.06
                     37                     38                     39
                        a                      a                      a 
 Frequencies --  1206.5573              1235.6245              1241.5673
 Red. masses --     4.2816                 3.2806                 3.2839
 Frc consts  --     0.0000                 0.0000                 0.0000
 IR Inten    --     7.7143                 0.2739                 2.5989
 Raman Activ --     0.0000                 0.0000                 0.0000
 Depolar     --     0.0000                 0.0000                 0.0000
 Atom AN      X      Y      Z        X      Y      Z        X      Y      Z
   1   7     0.05  -0.25   0.02     0.00   0.05   0.03    -0.01   0.05   0.00
   2   6    -0.07   0.33  -0.03    -0.04  -0.01  -0.06    -0.00   0.03  -0.00
   3   6     0.01  -0.07   0.06    -0.03  -0.13   0.04     0.01  -0.10  -0.01
   4   6    -0.13  -0.03  -0.08     0.03   0.08  -0.01    -0.06   0.08  -0.07
   5   6     0.04   0.09  -0.03    -0.12  -0.09   0.07     0.03  -0.09   0.11
   6   6    -0.01  -0.13   0.08     0.12  -0.04   0.01    -0.05   0.10  -0.15
   7   6    -0.01   0.14  -0.07    -0.15   0.22  -0.13     0.05   0.07   0.05
   8   6     0.01  -0.10   0.05     0.12  -0.08   0.03    -0.06  -0.28   0.08
   9   6     0.01   0.01   0.03    -0.11  -0.04   0.03     0.07   0.12  -0.03
  10  17    -0.00  -0.00   0.00     0.00   0.00   0.00     0.00   0.00   0.00
  11   1     0.16   0.09  -0.13    -0.05  -0.01   0.02    -0.03  -0.02   0.03
  12   1    -0.22   0.01   0.10     0.01  -0.01  -0.02     0.02   0.00  -0.01
  13   1     0.04   0.12  -0.02     0.03  -0.02  -0.02    -0.00  -0.02   0.00
  14   1     0.35  -0.01  -0.16    -0.11  -0.01  -0.02    -0.19  -0.02  -0.05
  15   1    -0.36  -0.12   0.08     0.18   0.02   0.03     0.20   0.02   0.06
  16   1     0.28   0.06   0.13    -0.02   0.01   0.08     0.09   0.03   0.08
  17   1    -0.17   0.00  -0.07     0.10   0.04  -0.02    -0.08   0.01  -0.07
  18   1     0.13  -0.04  -0.08     0.23   0.04   0.02    -0.04   0.09   0.09
  19   1    -0.11   0.03   0.08     0.16  -0.07  -0.12     0.04   0.07  -0.02
  20   1     0.14  -0.01  -0.06    -0.01  -0.05  -0.02    -0.07  -0.06  -0.03
  21   1    -0.01   0.02   0.09     0.36   0.11   0.15     0.09   0.01  -0.07
  22   1     0.03   0.03  -0.04    -0.35  -0.08  -0.16     0.07   0.01   0.04
  23   1     0.03  -0.06   0.00    -0.01  -0.01   0.00    -0.03  -0.22  -0.29
  24   1    -0.09   0.02  -0.02    -0.12   0.08   0.01     0.03   0.23   0.35
  25   1     0.06  -0.08  -0.09     0.25  -0.14  -0.22    -0.14  -0.09  -0.00
  26   1    -0.06   0.06   0.04    -0.25   0.17   0.18     0.05   0.00  -0.05
  27   1    -0.05  -0.02  -0.00     0.16   0.04   0.07    -0.35  -0.11  -0.08
  28   1     0.19   0.05   0.06     0.00  -0.00   0.02     0.38   0.08   0.05
                     40                     41                     42
                        a                      a                      a 
 Frequencies --  1248.3818              1267.5408              1276.3681
 Red. masses --     3.1024                 2.7351                 3.1189
 Frc consts  --     0.0000                 0.0000                 0.0000
 IR Inten    --     3.4625                 2.4212                 4.0470
 Raman Activ --     0.0000                 0.0000                 0.0000
 Depolar     --     0.0000                 0.0000                 0.0000
 Atom AN      X      Y      Z        X      Y      Z        X      Y      Z
   1   7     0.02  -0.10   0.01    -0.00  -0.03   0.03    -0.01   0.02   0.11
   2   6    -0.07   0.01  -0.01     0.02  -0.16  -0.06    -0.13   0.01  -0.17
   3   6     0.01   0.13   0.01    -0.07   0.14   0.03    -0.16  -0.15   0.00
   4   6     0.07  -0.20   0.07    -0.08   0.16  -0.13    -0.13  -0.06   0.05
   5   6    -0.02  -0.02   0.05     0.08  -0.16   0.02    -0.04   0.07  -0.00
   6   6     0.05   0.17  -0.18    -0.03   0.00   0.05    -0.03  -0.03   0.00
   7   6    -0.04  -0.05   0.10     0.02   0.04  -0.06     0.04  -0.08   0.02
   8   6     0.04  -0.06  -0.01    -0.04  -0.05   0.07    -0.01   0.03   0.06
   9   6    -0.06   0.13  -0.05     0.00  -0.00  -0.02    -0.10   0.09  -0.15
  10  17    -0.00  -0.00  -0.00     0.00  -0.00  -0.00     0.00  -0.00   0.00
  11   1     0.06   0.04  -0.05     0.00   0.01  -0.01    -0.05   0.02   0.00
  12   1    -0.06  -0.01   0.03    -0.01  -0.02  -0.01    -0.02  -0.03  -0.04
  13   1     0.02   0.04  -0.01     0.03  -0.00  -0.02     0.09  -0.00  -0.07
  14   1     0.35   0.03   0.05     0.30   0.05   0.14     0.10   0.02   0.00
  15   1    -0.25  -0.03  -0.05    -0.22   0.00  -0.15     0.33   0.03   0.06
  16   1    -0.04  -0.02  -0.08    -0.31  -0.07  -0.16     0.26   0.05   0.14
  17   1     0.03  -0.03   0.08     0.47   0.04   0.20     0.33   0.07   0.04
  18   1     0.11   0.02   0.11    -0.03   0.19   0.20     0.50   0.09   0.13
  19   1     0.29  -0.10  -0.20    -0.17   0.12   0.12     0.01  -0.02  -0.00
  20   1    -0.38   0.11   0.23     0.09  -0.11  -0.12     0.10  -0.00  -0.04
  21   1     0.02  -0.01  -0.13     0.13   0.03   0.05    -0.11  -0.03  -0.02
  22   1    -0.09  -0.04  -0.01    -0.06  -0.02   0.01     0.14   0.04   0.03
  23   1    -0.07  -0.07  -0.20     0.03  -0.01   0.03     0.01   0.03   0.05
  24   1     0.09   0.13   0.22    -0.04   0.02   0.01     0.03  -0.04  -0.03
  25   1    -0.09   0.01   0.04     0.01  -0.04  -0.03    -0.17   0.06   0.11
  26   1    -0.02   0.02   0.02     0.07   0.00  -0.05     0.18  -0.02  -0.12
  27   1     0.13   0.01   0.11    -0.09  -0.01  -0.04     0.18   0.03   0.08
  28   1    -0.11  -0.05  -0.13     0.19   0.06   0.06     0.05   0.00  -0.07
                     43                     44                     45
                        a                      a                      a 
 Frequencies --  1311.7393              1323.1643              1339.2465
 Red. masses --     3.6523                 3.0742                 4.0989
 Frc consts  --     0.0000                 0.0000                 0.0000
 IR Inten    --     2.5549                 7.6060                 2.0938
 Raman Activ --     0.0000                 0.0000                 0.0000
 Depolar     --     0.0000                 0.0000                 0.0000
 Atom AN      X      Y      Z        X      Y      Z        X      Y      Z
   1   7    -0.03  -0.02   0.10    -0.04  -0.01   0.11     0.00  -0.01   0.02
   2   6    -0.22  -0.04  -0.10    -0.17   0.02  -0.10    -0.07  -0.02  -0.03
   3   6     0.02   0.01  -0.06    -0.11   0.06  -0.07    -0.00  -0.01  -0.04
   4   6     0.03   0.16   0.19     0.16  -0.15  -0.11     0.04   0.15   0.21
   5   6    -0.16   0.09   0.06     0.14  -0.12  -0.05     0.06  -0.04  -0.14
   6   6    -0.04  -0.06  -0.04    -0.01   0.05   0.04     0.10   0.00   0.00
   7   6     0.00  -0.01  -0.03    -0.01   0.03  -0.00     0.06   0.18   0.26
   8   6     0.00  -0.03  -0.07     0.03   0.00  -0.06    -0.16   0.04   0.07
   9   6     0.20  -0.03   0.09     0.03   0.02   0.05    -0.13  -0.12  -0.08
  10  17     0.00  -0.00   0.00    -0.00  -0.00   0.00    -0.00  -0.00   0.00
  11   1     0.04   0.06  -0.03     0.01   0.06  -0.03    -0.02   0.01  -0.01
  12   1     0.01  -0.05  -0.05     0.01  -0.04  -0.05    -0.01  -0.00   0.00
  13   1     0.10  -0.01  -0.07     0.09   0.01  -0.07     0.01   0.01  -0.00
  14   1     0.37   0.05   0.09     0.25   0.04   0.04     0.11   0.02   0.03
  15   1     0.24   0.03   0.04     0.35   0.04   0.09     0.11   0.01   0.02
  16   1    -0.06   0.00  -0.01     0.34   0.06   0.04    -0.02   0.01   0.01
  17   1     0.15   0.01   0.03    -0.06  -0.02   0.01     0.07   0.00   0.02
  18   1    -0.12  -0.18  -0.29    -0.43   0.11   0.25    -0.07  -0.21  -0.32
  19   1     0.23  -0.11  -0.16    -0.24   0.11   0.17    -0.06  -0.03   0.03
  20   1     0.17  -0.04  -0.10    -0.17   0.03   0.10    -0.15   0.07   0.12
  21   1    -0.04  -0.01  -0.00     0.13   0.04   0.04    -0.03  -0.01  -0.02
  22   1     0.15   0.05   0.01    -0.12  -0.05   0.01    -0.22  -0.05  -0.11
  23   1     0.01   0.01   0.02     0.00   0.02   0.02    -0.04  -0.21  -0.30
  24   1     0.01   0.05   0.07    -0.03  -0.04  -0.07    -0.04  -0.16  -0.25
  25   1     0.06  -0.02  -0.03    -0.00   0.01   0.01     0.08  -0.04  -0.07
  26   1    -0.14   0.00   0.09    -0.08   0.01   0.05     0.25  -0.13  -0.18
  27   1    -0.34  -0.08  -0.14     0.00  -0.00   0.02     0.09   0.04  -0.03
  28   1    -0.17  -0.04  -0.00    -0.11  -0.03  -0.03     0.22   0.06   0.10
                     46                     47                     48
                        a                      a                      a 
 Frequencies --  1341.6003              1353.7277              1354.8598
 Red. masses --     4.0608                 4.5389                 4.6088
 Frc consts  --     0.0000                 0.0000                 0.0000
 IR Inten    --     0.3779                 9.8250                 0.4357
 Raman Activ --     0.0000                 0.0000                 0.0000
 Depolar     --     0.0000                 0.0000                 0.0000
 Atom AN      X      Y      Z        X      Y      Z        X      Y      Z
   1   7    -0.02   0.01   0.00     0.01  -0.01   0.03    -0.01   0.01  -0.00
   2   6     0.01  -0.01  -0.00    -0.12  -0.01   0.00    -0.01   0.01  -0.01
   3   6    -0.00  -0.01  -0.01     0.23   0.04   0.04    -0.05   0.00  -0.02
   4   6    -0.01   0.10   0.14    -0.05  -0.09  -0.13     0.05   0.03   0.10
   5   6     0.17  -0.04  -0.09     0.01   0.03   0.14     0.07  -0.02  -0.09
   6   6    -0.30  -0.04  -0.05    -0.31  -0.12  -0.13    -0.07   0.09   0.04
   7   6    -0.00  -0.03  -0.06     0.13   0.10   0.06     0.02  -0.18  -0.34
   8   6     0.25  -0.07  -0.11    -0.19   0.07   0.08    -0.19   0.11   0.26
   9   6    -0.18  -0.04  -0.03     0.01  -0.00  -0.02    -0.06  -0.12  -0.07
  10  17     0.00   0.00   0.00    -0.00   0.00   0.00    -0.00  -0.00   0.00
  11   1     0.03   0.00   0.01    -0.02   0.06  -0.06     0.02  -0.02   0.04
  12   1     0.01  -0.00  -0.01     0.02  -0.03  -0.05    -0.02   0.01   0.02
  13   1     0.02  -0.02  -0.02    -0.02   0.02   0.02     0.03  -0.02  -0.02
  14   1    -0.01  -0.00   0.00     0.12   0.01   0.02     0.02   0.01   0.01
  15   1    -0.01  -0.00  -0.01     0.13   0.02   0.03     0.03  -0.00   0.01
  16   1    -0.03   0.00   0.01    -0.23  -0.03  -0.04     0.07   0.01   0.01
  17   1     0.05  -0.00   0.02    -0.30  -0.06  -0.06     0.04   0.00   0.01
  18   1     0.01  -0.16  -0.26     0.07   0.09   0.14    -0.09  -0.11  -0.14
  19   1    -0.00   0.02   0.00     0.13   0.02  -0.07    -0.06   0.02   0.03
  20   1    -0.25   0.10   0.17     0.00  -0.03  -0.03    -0.11   0.07   0.10
  21   1     0.35   0.09   0.11     0.37   0.10   0.12    -0.02  -0.02  -0.05
  22   1     0.18   0.04   0.09     0.30   0.08   0.07     0.10   0.02   0.09
  23   1     0.04   0.15   0.23     0.05  -0.08  -0.02     0.07   0.10   0.21
  24   1    -0.01  -0.03  -0.05    -0.04  -0.09  -0.15     0.05   0.27   0.40
  25   1    -0.28   0.10   0.19     0.17  -0.04  -0.09     0.33  -0.14  -0.24
  26   1    -0.13   0.09   0.10     0.19  -0.07  -0.14     0.18  -0.01  -0.10
  27   1     0.00  -0.00   0.02     0.14   0.04   0.03     0.18   0.05   0.01
  28   1     0.28   0.08   0.10    -0.06  -0.02  -0.03     0.04   0.02   0.06
                     49                     50                     51
                        a                      a                      a 
 Frequencies --  1361.2941              1365.7423              1377.1504
 Red. masses --     4.3822                 4.7028                 2.5283
 Frc consts  --     0.0000                 0.0000                 0.0000
 IR Inten    --     2.8710                 2.7252               131.8996
 Raman Activ --     0.0000                 0.0000                 0.0000
 Depolar     --     0.0000                 0.0000                 0.0000
 Atom AN      X      Y      Z        X      Y      Z        X      Y      Z
   1   7     0.04   0.01  -0.06     0.01  -0.01  -0.05    -0.29   0.07   0.11
   2   6     0.14   0.02   0.01     0.14   0.03   0.03     0.09   0.02   0.06
   3   6    -0.17  -0.04  -0.03    -0.31   0.01  -0.04    -0.02  -0.01   0.01
   4   6    -0.16  -0.02   0.12     0.31  -0.01   0.00    -0.02  -0.01  -0.00
   5   6     0.18  -0.05  -0.08    -0.18   0.05   0.17     0.01  -0.00  -0.00
   6   6    -0.16  -0.02  -0.04    -0.11  -0.07  -0.10    -0.00  -0.01  -0.01
   7   6     0.07   0.08   0.05     0.04   0.05   0.06     0.01   0.02   0.03
   8   6    -0.15   0.02  -0.01    -0.03   0.03   0.02    -0.04   0.01   0.01
   9   6     0.31   0.06   0.06    -0.13  -0.04  -0.03     0.02   0.01  -0.00
  10  17     0.00  -0.00  -0.00     0.00  -0.00  -0.00    -0.01  -0.00   0.00
  11   1    -0.06  -0.07   0.04     0.01  -0.06   0.05     0.59   0.18   0.08
  12   1    -0.04   0.05   0.07    -0.03   0.04   0.07     0.22  -0.14  -0.24
  13   1    -0.05   0.02   0.04     0.00   0.01  -0.01     0.32  -0.32  -0.33
  14   1    -0.17  -0.02  -0.04    -0.11  -0.01  -0.04    -0.11  -0.04  -0.07
  15   1    -0.15  -0.02  -0.04    -0.22  -0.03  -0.05    -0.12   0.02  -0.06
  16   1     0.21   0.02   0.04     0.34   0.03   0.01     0.00   0.00   0.01
  17   1     0.26   0.06   0.05     0.23   0.06   0.05    -0.01   0.00  -0.00
  18   1     0.18  -0.03  -0.02    -0.37   0.02   0.07     0.05   0.01   0.01
  19   1    -0.07   0.02   0.05     0.29  -0.08  -0.19    -0.00   0.00   0.00
  20   1    -0.23   0.07   0.13     0.16  -0.08  -0.12    -0.02   0.00   0.01
  21   1     0.23   0.06   0.06     0.13   0.04   0.05     0.01   0.00   0.00
  22   1     0.05   0.02   0.02     0.16   0.04   0.02    -0.01  -0.00  -0.01
  23   1     0.01  -0.05  -0.06     0.01  -0.05  -0.03    -0.00  -0.03  -0.04
  24   1    -0.05  -0.05  -0.09     0.00  -0.05  -0.08    -0.01  -0.02  -0.03
  25   1     0.16  -0.03  -0.08     0.01  -0.00  -0.01     0.03  -0.01  -0.02
  26   1     0.01  -0.06  -0.03     0.07  -0.04  -0.05     0.03  -0.01  -0.02
  27   1    -0.28  -0.08  -0.10     0.12   0.05   0.02    -0.00  -0.00  -0.00
  28   1    -0.38  -0.09  -0.11     0.10   0.01   0.02    -0.03  -0.01  -0.01
                     52                     53                     54
                        a                      a                      a 
 Frequencies --  1407.6214              1454.8211              1487.0448
 Red. masses --     1.6654                 1.9429                 1.8908
 Frc consts  --     0.0000                 0.0000                 0.0000
 IR Inten    --    66.2984                82.4255                 7.3169
 Raman Activ --     0.0000                 0.0000                 0.0000
 Depolar     --     0.0000                 0.0000                 0.0000
 Atom AN      X      Y      Z        X      Y      Z        X      Y      Z
   1   7    -0.00   0.08  -0.16     0.20   0.17   0.03     0.03   0.02   0.01
   2   6    -0.09   0.02  -0.06    -0.00   0.04  -0.02    -0.04  -0.03   0.26
   3   6     0.07   0.01   0.03    -0.01   0.00  -0.02    -0.02   0.00  -0.04
   4   6    -0.02  -0.01  -0.03     0.01  -0.00   0.00     0.01   0.01   0.00
   5   6     0.00   0.01   0.01    -0.00  -0.00   0.00     0.04   0.07   0.01
   6   6     0.00  -0.01  -0.01    -0.00  -0.00  -0.00     0.00   0.00  -0.00
   7   6     0.00   0.01   0.02    -0.00   0.00   0.00     0.01  -0.01  -0.01
   8   6     0.00  -0.01  -0.01     0.00   0.00  -0.00    -0.00  -0.00   0.00
   9   6    -0.00   0.01   0.01     0.00   0.00  -0.00    -0.01  -0.00   0.03
  10  17    -0.00   0.01  -0.01     0.00  -0.00   0.00     0.00   0.00  -0.00
  11   1     0.15  -0.45   0.54     0.01   0.04  -0.01    -0.05  -0.02   0.02
  12   1    -0.26   0.25   0.40    -0.53  -0.17  -0.38    -0.09  -0.01  -0.02
  13   1     0.15  -0.24  -0.16    -0.22  -0.59   0.23    -0.04  -0.06   0.05
  14   1     0.12   0.03   0.03     0.02   0.05   0.06     0.17  -0.32  -0.52
  15   1     0.07  -0.00   0.03    -0.03  -0.07   0.08     0.09   0.45  -0.45
  16   1    -0.05  -0.02  -0.03     0.02   0.01   0.02    -0.01   0.04   0.07
  17   1    -0.07   0.00  -0.03     0.01  -0.01   0.01     0.01  -0.05   0.06
  18   1     0.02   0.02   0.03    -0.02   0.00   0.00    -0.00  -0.00  -0.01
  19   1    -0.01   0.01   0.01     0.01   0.00  -0.01    -0.04  -0.16   0.06
  20   1     0.01  -0.01  -0.02     0.01   0.00   0.00    -0.11  -0.08  -0.13
  21   1     0.00   0.01   0.02     0.00  -0.00  -0.00    -0.01   0.01   0.01
  22   1     0.00  -0.00  -0.00     0.00   0.00  -0.00     0.00  -0.01   0.02
  23   1    -0.00  -0.01  -0.01     0.00  -0.00   0.00    -0.01   0.02  -0.00
  24   1    -0.00  -0.02  -0.03     0.00  -0.00  -0.00    -0.02   0.00   0.01
  25   1    -0.01   0.01   0.02    -0.00  -0.00  -0.00     0.01   0.01   0.01
  26   1    -0.00   0.00  -0.00    -0.00  -0.00   0.00     0.00   0.02  -0.00
  27   1     0.00   0.00   0.00    -0.00  -0.00   0.00     0.01   0.05  -0.05
  28   1     0.00  -0.01  -0.01    -0.00   0.00   0.00     0.03  -0.04  -0.05
                     55                     56                     57
                        a                      a                      a 
 Frequencies --  1501.5874              1507.4958              1510.1150
 Red. masses --     1.9493                 1.8876                 1.9431
 Frc consts  --     0.0000                 0.0000                 0.0000
 IR Inten    --     2.6392                 2.3379                 1.1550
 Raman Activ --     0.0000                 0.0000                 0.0000
 Depolar     --     0.0000                 0.0000                 0.0000
 Atom AN      X      Y      Z        X      Y      Z        X      Y      Z
   1   7    -0.01  -0.01  -0.01     0.00  -0.00   0.01     0.00   0.00   0.00
   2   6     0.04   0.01  -0.06    -0.01   0.00  -0.04    -0.01  -0.00   0.03
   3   6     0.03   0.04  -0.23    -0.01  -0.02   0.13    -0.01  -0.01   0.07
   4   6    -0.01  -0.00  -0.00     0.00   0.02   0.03    -0.02  -0.00   0.01
   5   6     0.02   0.04   0.01     0.07   0.11   0.02    -0.03  -0.08  -0.04
   6   6     0.01   0.00  -0.03     0.04   0.02  -0.11     0.00   0.01  -0.03
   7   6    -0.03   0.01  -0.01     0.02  -0.02  -0.01    -0.19   0.11  -0.05
   8   6    -0.02  -0.03  -0.00    -0.06  -0.11  -0.02     0.02   0.04   0.01
   9   6    -0.03  -0.01   0.13    -0.04  -0.02   0.09    -0.02  -0.00   0.12
  10  17    -0.00   0.00  -0.00    -0.00  -0.00   0.00     0.00  -0.00   0.00
  11   1     0.01  -0.01   0.01     0.00   0.02  -0.03    -0.00   0.01  -0.01
  12   1     0.02   0.01   0.03     0.01  -0.01  -0.02    -0.01  -0.01  -0.01
  13   1     0.01   0.02  -0.01     0.00   0.01   0.00    -0.00  -0.01   0.01
  14   1    -0.06   0.06   0.10    -0.02   0.05   0.09     0.02  -0.03  -0.05
  15   1    -0.04  -0.10   0.08    -0.00  -0.07   0.08     0.01   0.05  -0.04
  16   1    -0.12   0.26   0.46     0.07  -0.15  -0.26     0.04  -0.08  -0.13
  17   1    -0.01  -0.40   0.39     0.01   0.23  -0.22     0.01   0.12  -0.12
  18   1    -0.01   0.00   0.01     0.00  -0.01  -0.01     0.02  -0.00  -0.00
  19   1    -0.01  -0.10   0.03    -0.05  -0.31   0.10     0.02   0.20  -0.06
  20   1    -0.05  -0.05  -0.08    -0.21  -0.13  -0.21     0.11   0.10   0.16
  21   1    -0.04   0.04   0.06    -0.11   0.15   0.21    -0.03   0.05   0.06
  22   1    -0.01  -0.05   0.06    -0.02  -0.18   0.22    -0.02  -0.06   0.06
  23   1     0.02  -0.05   0.03    -0.02   0.05  -0.03     0.20  -0.42   0.25
  24   1     0.06   0.00  -0.01    -0.06   0.00   0.02     0.52   0.01  -0.09
  25   1     0.06   0.04   0.06     0.19   0.13   0.21    -0.07  -0.05  -0.08
  26   1     0.01   0.09  -0.02     0.04   0.29  -0.10    -0.03  -0.11   0.04
  27   1     0.02   0.21  -0.24     0.01   0.16  -0.19     0.01   0.18  -0.22
  28   1     0.11  -0.17  -0.25     0.10  -0.12  -0.18     0.09  -0.15  -0.22
                     58                     59                     60
                        a                      a                      a 
 Frequencies --  1512.7207              1515.4823              1524.2146
 Red. masses --     1.9880                 1.8980                 1.9982
 Frc consts  --     0.0000                 0.0000                 0.0000
 IR Inten    --     0.9267                 1.6268                 0.2757
 Raman Activ --     0.0000                 0.0000                 0.0000
 Depolar     --     0.0000                 0.0000                 0.0000
 Atom AN      X      Y      Z        X      Y      Z        X      Y      Z
   1   7     0.00   0.00  -0.00     0.00   0.00   0.00    -0.00  -0.00  -0.00
   2   6     0.00  -0.00   0.03    -0.01  -0.00   0.02     0.01   0.00  -0.02
   3   6    -0.00   0.01  -0.05    -0.00  -0.00   0.02    -0.00   0.01  -0.02
   4   6    -0.00   0.00   0.00    -0.01  -0.01   0.01     0.02   0.00  -0.01
   5   6    -0.07  -0.11  -0.04    -0.06  -0.11  -0.02     0.06   0.11   0.04
   6   6     0.05   0.01  -0.15    -0.04  -0.01   0.15    -0.04   0.00   0.13
   7   6    -0.03   0.02   0.00     0.04  -0.03   0.02    -0.15   0.07  -0.03
   8   6    -0.08  -0.13  -0.04    -0.07  -0.14  -0.04    -0.06  -0.10  -0.04
   9   6     0.04   0.00  -0.11    -0.03  -0.01   0.10     0.03   0.00  -0.11
  10  17     0.00   0.00  -0.00     0.00  -0.00   0.00    -0.00   0.00  -0.00
  11   1    -0.01  -0.01   0.00    -0.01  -0.00   0.00     0.00   0.00   0.00
  12   1    -0.01   0.00   0.00    -0.01  -0.00  -0.00     0.01   0.00   0.00
  13   1    -0.01  -0.00   0.01    -0.00  -0.00   0.00     0.00   0.00  -0.00
  14   1     0.02  -0.04  -0.07     0.02  -0.03  -0.05    -0.01   0.02   0.04
  15   1     0.00   0.06  -0.06     0.01   0.04  -0.04    -0.01  -0.03   0.03
  16   1    -0.02   0.06   0.10     0.03  -0.03  -0.05    -0.01   0.02   0.03
  17   1     0.01  -0.09   0.09     0.00   0.05  -0.05    -0.00  -0.03   0.03
  18   1    -0.00  -0.01  -0.01    -0.01  -0.01   0.00    -0.02   0.00   0.00
  19   1     0.05   0.27  -0.10     0.04   0.27  -0.08    -0.05  -0.27   0.10
  20   1     0.19   0.13   0.20     0.17   0.12   0.20    -0.18  -0.13  -0.20
  21   1    -0.15   0.19   0.28     0.14  -0.20  -0.29     0.11  -0.15  -0.23
  22   1    -0.04  -0.24   0.27     0.02   0.24  -0.29     0.01   0.19  -0.22
  23   1     0.02  -0.07   0.02    -0.06   0.11  -0.06     0.13  -0.30   0.18
  24   1     0.07  -0.01  -0.02    -0.14  -0.01   0.02     0.38   0.01  -0.06
  25   1     0.23   0.15   0.24     0.23   0.16   0.26     0.16   0.11   0.18
  26   1     0.05   0.33  -0.12     0.05   0.35  -0.11     0.03   0.24  -0.08
  27   1    -0.02  -0.19   0.20     0.01   0.16  -0.20    -0.02  -0.17   0.19
  28   1    -0.11   0.14   0.21     0.09  -0.14  -0.20    -0.09   0.14   0.20
                     61                     62                     63
                        a                      a                      a 
 Frequencies --  2860.3942              2871.2415              2899.1668
 Red. masses --     2.0004                 1.7402                 1.9303
 Frc consts  --     0.0000                 0.0000                 0.0000
 IR Inten    --  1686.8266                35.4757                37.5403
 Raman Activ --     0.0000                 0.0000                 0.0000
 Depolar     --     0.0000                 0.0000                 0.0000
 Atom AN      X      Y      Z        X      Y      Z        X      Y      Z
   1   7     0.05  -0.20  -0.18     0.00  -0.02  -0.01     0.00  -0.00  -0.00
   2   6     0.00   0.03   0.01    -0.00  -0.00   0.00     0.00  -0.00  -0.00
   3   6    -0.00   0.00   0.00     0.00  -0.01  -0.00    -0.00   0.00   0.00
   4   6     0.00  -0.02   0.01    -0.01   0.21  -0.14     0.00  -0.00   0.00
   5   6    -0.01   0.00  -0.01     0.01  -0.01   0.02     0.00   0.01  -0.01
   6   6    -0.00   0.00   0.00     0.00  -0.02   0.00     0.08  -0.26  -0.04
   7   6    -0.00  -0.00   0.00     0.00   0.00  -0.00     0.02   0.03  -0.03
   8   6    -0.00  -0.00  -0.00     0.01  -0.01   0.01    -0.04   0.03  -0.07
   9   6     0.00  -0.00  -0.00     0.00  -0.02  -0.00    -0.00  -0.00   0.00
  10  17    -0.00   0.01   0.01    -0.00   0.00   0.00     0.00   0.00  -0.00
  11   1    -0.23   0.68   0.62    -0.02   0.05   0.05    -0.00   0.00   0.00
  12   1     0.00   0.02  -0.03    -0.00   0.00  -0.00    -0.00   0.00  -0.00
  13   1     0.02  -0.01   0.01     0.00  -0.00   0.00    -0.00  -0.00  -0.00
  14   1     0.00  -0.00   0.01     0.00   0.01  -0.00    -0.00   0.00  -0.00
  15   1     0.02  -0.08  -0.07     0.00  -0.01  -0.01    -0.00   0.01   0.01
  16   1     0.00  -0.00   0.00     0.00   0.05  -0.03     0.00  -0.01   0.00
  17   1     0.00  -0.01  -0.01    -0.00   0.01   0.01     0.00  -0.01  -0.01
  18   1    -0.00   0.06  -0.04     0.04  -0.80   0.51    -0.00   0.03  -0.01
  19   1     0.02   0.00   0.02    -0.04  -0.01  -0.05     0.00   0.00  -0.00
  20   1     0.00  -0.01   0.00    -0.00   0.06  -0.03     0.00  -0.08   0.05
  21   1    -0.00   0.00  -0.00    -0.00   0.03  -0.02    -0.01   0.37  -0.29
  22   1     0.00  -0.01  -0.01    -0.01   0.02   0.02    -0.29   0.55   0.44
  23   1     0.01   0.00  -0.00    -0.01  -0.00   0.00    -0.08  -0.02   0.02
  24   1    -0.00   0.00  -0.00     0.00  -0.01   0.00     0.02  -0.12   0.08
  25   1    -0.00  -0.00   0.00    -0.00   0.03  -0.02     0.00  -0.12   0.07
  26   1     0.01   0.00   0.01    -0.02  -0.01  -0.02     0.13   0.04   0.17
  27   1    -0.00   0.01   0.01    -0.02   0.03   0.03     0.01  -0.01  -0.01
  28   1     0.00  -0.00   0.00    -0.00   0.05  -0.04    -0.00   0.02  -0.01
                     64                     65                     66
                        a                      a                      a 
 Frequencies --  2901.7191              2904.3095              2908.8690
 Red. masses --     1.9241                 1.9115                 1.9081
 Frc consts  --     0.0000                 0.0000                 0.0000
 IR Inten    --    32.3783                20.4438                52.1990
 Raman Activ --     0.0000                 0.0000                 0.0000
 Depolar     --     0.0000                 0.0000                 0.0000
 Atom AN      X      Y      Z        X      Y      Z        X      Y      Z
   1   7    -0.00   0.00   0.00     0.00  -0.00  -0.00    -0.00   0.01   0.01
   2   6     0.00  -0.00   0.00     0.00  -0.00  -0.00    -0.01   0.01   0.01
   3   6     0.00  -0.00  -0.00    -0.00  -0.00  -0.00     0.00  -0.01   0.00
   4   6    -0.00   0.01  -0.00     0.00  -0.00   0.00    -0.00   0.01  -0.02
   5   6     0.00   0.00  -0.00     0.03  -0.02   0.06    -0.13   0.07  -0.22
   6   6    -0.01   0.03   0.00    -0.02   0.07   0.03    -0.02   0.01   0.03
   7   6    -0.10  -0.12   0.09     0.15   0.12  -0.11     0.03   0.02  -0.01
   8   6    -0.10   0.07  -0.19    -0.07   0.02  -0.13    -0.01   0.01  -0.02
   9   6    -0.00  -0.01   0.00     0.00  -0.03   0.00     0.02  -0.08  -0.00
  10  17    -0.00  -0.00  -0.00    -0.00   0.00   0.00     0.00  -0.00  -0.00
  11   1     0.00  -0.01  -0.01    -0.00   0.00   0.00     0.01  -0.02  -0.02
  12   1     0.00  -0.00   0.00     0.00   0.00  -0.00    -0.00  -0.00   0.00
  13   1    -0.00   0.00  -0.00    -0.00  -0.00  -0.00    -0.00   0.00  -0.00
  14   1     0.00   0.00  -0.00    -0.00   0.00  -0.00     0.00  -0.00   0.01
  15   1    -0.00   0.00   0.00    -0.00   0.01   0.01     0.02  -0.05  -0.04
  16   1     0.00  -0.00   0.00     0.00   0.00  -0.00    -0.00   0.03  -0.02
  17   1    -0.00   0.00   0.00    -0.00   0.00   0.00    -0.00   0.01   0.01
  18   1     0.00  -0.04   0.03     0.00   0.00  -0.00     0.00  -0.05   0.04
  19   1    -0.00  -0.00  -0.00    -0.10  -0.03  -0.13     0.46   0.13   0.60
  20   1     0.00  -0.00   0.00    -0.00   0.12  -0.07    -0.00  -0.38   0.21
  21   1     0.00  -0.08   0.06    -0.00  -0.03   0.04    -0.01   0.10  -0.06
  22   1     0.03  -0.05  -0.04     0.10  -0.19  -0.15     0.06  -0.13  -0.09
  23   1     0.38   0.09  -0.12    -0.60  -0.16   0.20    -0.12  -0.03   0.04
  24   1    -0.05   0.34  -0.21     0.05  -0.27   0.17     0.01  -0.03   0.02
  25   1     0.00  -0.39   0.21    -0.01  -0.16   0.08    -0.00  -0.04   0.02
  26   1     0.36   0.11   0.47     0.29   0.08   0.38     0.03   0.01   0.04
  27   1     0.00  -0.00   0.00    -0.01   0.02   0.02    -0.07   0.14   0.12
  28   1    -0.00   0.06  -0.04    -0.00   0.08  -0.05    -0.00   0.14  -0.10
                     67                     68                     69
                        a                      a                      a 
 Frequencies --  2916.8198              2935.2130              2937.0608
 Red. masses --     1.9014                 1.9054                 1.5196
 Frc consts  --     0.0000                 0.0000                 0.0000
 IR Inten    --    29.3785                 6.8484                49.1919
 Raman Activ --     0.0000                 0.0000                 0.0000
 Depolar     --     0.0000                 0.0000                 0.0000
 Atom AN      X      Y      Z        X      Y      Z        X      Y      Z
   1   7    -0.00   0.00   0.00     0.00  -0.01  -0.01     0.00  -0.00  -0.00
   2   6    -0.00   0.00   0.00     0.02  -0.11  -0.04    -0.00  -0.00   0.00
   3   6     0.00  -0.02  -0.00    -0.04   0.25   0.01    -0.00   0.02   0.00
   4   6    -0.00   0.03  -0.01    -0.00   0.02  -0.01    -0.00   0.00  -0.00
   5   6    -0.03   0.01  -0.05    -0.01  -0.02  -0.01    -0.02   0.00  -0.03
   6   6    -0.01   0.00   0.01    -0.01  -0.01   0.03     0.04   0.06  -0.16
   7   6     0.02  -0.00  -0.00     0.01  -0.01   0.01     0.09  -0.06   0.02
   8   6    -0.03  -0.03  -0.02     0.00   0.00   0.00    -0.01  -0.04   0.01
   9   6    -0.08   0.25   0.05    -0.01   0.01   0.01     0.00  -0.02   0.00
  10  17    -0.00   0.00  -0.00     0.00   0.00   0.00     0.00  -0.00   0.00
  11   1     0.00  -0.00   0.00    -0.01   0.03   0.02    -0.00   0.00   0.00
  12   1     0.00  -0.00   0.00    -0.00  -0.01   0.00    -0.00  -0.00  -0.00
  13   1    -0.00  -0.00  -0.00     0.00  -0.00   0.00     0.00   0.00   0.00
  14   1     0.00  -0.00   0.00     0.00   0.16  -0.11     0.00   0.01  -0.00
  15   1     0.00  -0.01  -0.01    -0.09   0.25   0.23     0.00  -0.00  -0.00
  16   1    -0.00   0.04  -0.03     0.01  -0.57   0.33     0.00  -0.05   0.03
  17   1    -0.01   0.02   0.02     0.15  -0.34  -0.37     0.01  -0.03  -0.03
  18   1     0.00  -0.07   0.05     0.00  -0.04   0.02     0.00  -0.01   0.01
  19   1     0.13   0.03   0.17     0.06   0.01   0.08     0.07   0.02   0.10
  20   1    -0.00  -0.06   0.03    -0.00   0.07  -0.05    -0.00  -0.02   0.01
  21   1    -0.00   0.04  -0.02    -0.01   0.09  -0.06     0.04  -0.56   0.36
  22   1     0.02  -0.05  -0.03     0.02  -0.05  -0.03    -0.17   0.35   0.23
  23   1    -0.08  -0.02   0.03    -0.02  -0.01   0.01    -0.31  -0.10   0.12
  24   1     0.00   0.03  -0.02    -0.00   0.05  -0.03    -0.02   0.30  -0.20
  25   1    -0.01   0.11  -0.07     0.00  -0.01   0.01    -0.01   0.13  -0.09
  26   1     0.10   0.02   0.14    -0.01  -0.00  -0.02     0.03   0.00   0.05
  27   1     0.29  -0.54  -0.45     0.02  -0.04  -0.03    -0.01   0.02   0.02
  28   1     0.01  -0.37   0.28    -0.00   0.02  -0.01    -0.00   0.04  -0.03
                     70                     71                     72
                        a                      a                      a 
 Frequencies --  2937.6816              2940.9931              2946.6822
 Red. masses --     1.5180                 1.5777                 1.6008
 Frc consts  --     0.0000                 0.0000                 0.0000
 IR Inten    --    53.0298                52.4557                49.4742
 Raman Activ --     0.0000                 0.0000                 0.0000
 Depolar     --     0.0000                 0.0000                 0.0000
 Atom AN      X      Y      Z        X      Y      Z        X      Y      Z
   1   7     0.00  -0.00  -0.00     0.00  -0.00  -0.00    -0.00   0.01   0.01
   2   6    -0.00   0.01   0.00     0.00  -0.02  -0.01    -0.02   0.10   0.04
   3   6     0.00  -0.02   0.00     0.00  -0.01   0.01    -0.00   0.02  -0.01
   4   6    -0.00   0.00  -0.00     0.00  -0.00   0.00     0.00  -0.01  -0.00
   5   6     0.01   0.00   0.01     0.03   0.06   0.02    -0.05  -0.16   0.02
   6   6    -0.00  -0.03   0.04    -0.01  -0.05   0.08     0.00  -0.04   0.02
   7   6     0.10  -0.07   0.03     0.06  -0.10   0.06     0.01  -0.03   0.02
   8   6     0.06   0.14   0.01    -0.03  -0.12   0.02    -0.01  -0.02  -0.01
   9   6    -0.01   0.03   0.01     0.02  -0.02  -0.05     0.02   0.02  -0.09
  10  17    -0.00   0.00  -0.00     0.00   0.00   0.00     0.00  -0.00  -0.00
  11   1    -0.00   0.01   0.01    -0.00   0.00   0.00     0.01  -0.03  -0.03
  12   1     0.00   0.00  -0.00     0.00   0.00  -0.00    -0.00  -0.00   0.00
  13   1     0.00  -0.00   0.00     0.00   0.00   0.00    -0.00   0.00  -0.00
  14   1    -0.00  -0.01   0.01     0.00   0.01  -0.01    -0.00  -0.09   0.07
  15   1     0.00  -0.01  -0.01    -0.02   0.05   0.05     0.08  -0.25  -0.22
  16   1    -0.00   0.05  -0.03    -0.00   0.04  -0.02     0.00  -0.07   0.04
  17   1    -0.01   0.03   0.03    -0.00   0.00   0.01     0.00  -0.01  -0.01
  18   1    -0.00  -0.00   0.00    -0.00   0.02  -0.01    -0.00   0.02  -0.01
  19   1    -0.04  -0.01  -0.05    -0.14  -0.03  -0.20     0.20   0.02   0.28
  20   1     0.00  -0.00   0.00     0.02  -0.21   0.14    -0.03   0.56  -0.36
  21   1    -0.01   0.16  -0.11    -0.02   0.31  -0.20    -0.01   0.13  -0.09
  22   1     0.02  -0.05  -0.03     0.06  -0.12  -0.07    -0.01   0.01   0.01
  23   1    -0.34  -0.12   0.13    -0.17  -0.07   0.07    -0.03  -0.01   0.01
  24   1    -0.02   0.39  -0.25    -0.03   0.42  -0.27    -0.01   0.10  -0.07
  25   1     0.04  -0.49   0.31    -0.03   0.42  -0.27    -0.00   0.06  -0.04
  26   1    -0.26  -0.04  -0.35     0.13   0.01   0.18     0.04   0.01   0.05
  27   1     0.03  -0.06  -0.05    -0.09   0.18   0.13    -0.11   0.22   0.15
  28   1     0.00  -0.04   0.03     0.01  -0.11   0.06     0.02  -0.28   0.17
                     73                     74                     75
                        a                      a                      a 
 Frequencies --  2949.3693              2953.8428              2966.8068
 Red. masses --     1.6465                 1.7630                 1.5824
 Frc consts  --     0.0000                 0.0000                 0.0000
 IR Inten    --    48.0653                89.1775                16.8554
 Raman Activ --     0.0000                 0.0000                 0.0000
 Depolar     --     0.0000                 0.0000                 0.0000
 Atom AN      X      Y      Z        X      Y      Z        X      Y      Z
   1   7    -0.00   0.01   0.01     0.00  -0.02  -0.01    -0.00   0.01   0.00
   2   6    -0.03   0.12   0.05     0.04  -0.16  -0.07    -0.01   0.09  -0.00
   3   6     0.01   0.04  -0.06     0.01  -0.12   0.02    -0.05   0.04   0.20
   4   6     0.00  -0.01   0.01     0.00  -0.02   0.01    -0.00  -0.01   0.01
   5   6     0.01  -0.02   0.02    -0.03  -0.10   0.01     0.00  -0.00   0.01
   6   6    -0.00  -0.02   0.03     0.00  -0.03   0.02    -0.00  -0.00   0.01
   7   6     0.01  -0.03   0.02     0.01  -0.03   0.02    -0.00  -0.00   0.00
   8   6     0.00  -0.04   0.03    -0.00  -0.03   0.02    -0.00  -0.01   0.00
   9   6    -0.03  -0.07   0.15    -0.01  -0.05   0.07    -0.01  -0.01   0.03
  10  17    -0.00  -0.00  -0.00    -0.00   0.00   0.00     0.00  -0.00  -0.00
  11   1     0.01  -0.03  -0.03    -0.01   0.04   0.04     0.01  -0.02  -0.02
  12   1    -0.00  -0.00   0.00     0.00   0.00  -0.00     0.00   0.01  -0.00
  13   1    -0.00   0.00  -0.00     0.00  -0.00   0.00     0.00  -0.00   0.00
  14   1    -0.01  -0.11   0.08     0.00   0.14  -0.10    -0.00  -0.23   0.13
  15   1     0.10  -0.31  -0.28    -0.14   0.41   0.37     0.03  -0.10  -0.10
  16   1     0.01  -0.24   0.13    -0.01   0.33  -0.18    -0.02   0.43  -0.20
  17   1    -0.03   0.09   0.08    -0.04   0.08   0.10     0.21  -0.55  -0.51
  18   1    -0.00   0.03  -0.02    -0.00   0.05  -0.03    -0.00   0.02  -0.01
  19   1    -0.02  -0.01  -0.03     0.14   0.02   0.19    -0.02  -0.00  -0.02
  20   1    -0.00   0.10  -0.06    -0.02   0.35  -0.23     0.00   0.01  -0.00
  21   1    -0.01   0.12  -0.08    -0.01   0.09  -0.06    -0.00   0.02  -0.01
  22   1     0.02  -0.03  -0.02    -0.00   0.00   0.01     0.00  -0.01  -0.01
  23   1    -0.02  -0.01   0.01    -0.01  -0.01   0.01     0.00   0.00  -0.00
  24   1    -0.01   0.13  -0.08    -0.01   0.10  -0.06    -0.00   0.01  -0.01
  25   1    -0.01   0.16  -0.10    -0.01   0.11  -0.07    -0.00   0.02  -0.01
  26   1     0.00  -0.01   0.01     0.01  -0.00   0.01    -0.00  -0.00  -0.00
  27   1     0.14  -0.29  -0.19     0.05  -0.11  -0.07     0.03  -0.06  -0.04
  28   1    -0.03   0.54  -0.34    -0.02   0.29  -0.18    -0.01   0.11  -0.07
                     76                     77                     78
                        a                      a                      a 
 Frequencies --  2989.1550              3171.2829              3183.8473
 Red. masses --     1.5869                 1.9327                 1.5922
 Frc consts  --     0.0000                 0.0000                 0.0000
 IR Inten    --    12.8622                42.7530                25.0356
 Raman Activ --     0.0000                 0.0000                 0.0000
 Depolar     --     0.0000                 0.0000                 0.0000
 Atom AN      X      Y      Z        X      Y      Z        X      Y      Z
   1   7    -0.01   0.01   0.00    -0.16   0.07  -0.20    -0.06  -0.19   0.06
   2   6    -0.03  -0.13   0.18    -0.00   0.00  -0.00    -0.01  -0.01   0.01
   3   6    -0.01  -0.02   0.05     0.00  -0.00  -0.00     0.00   0.00  -0.00
   4   6    -0.00  -0.01   0.00     0.00  -0.00  -0.00     0.00  -0.00   0.00
   5   6     0.00  -0.00   0.01     0.00   0.00   0.00    -0.00   0.00  -0.00
   6   6     0.00  -0.00   0.00    -0.00  -0.00   0.00    -0.00   0.00   0.00
   7   6     0.00  -0.00   0.00     0.00   0.00  -0.00    -0.00  -0.00   0.00
   8   6     0.00  -0.00   0.00    -0.00   0.00  -0.00     0.00  -0.00   0.00
   9   6    -0.00  -0.00   0.01    -0.00   0.00  -0.00     0.00   0.00  -0.00
  10  17     0.00  -0.00  -0.00    -0.00   0.00   0.00    -0.00   0.00   0.00
  11   1     0.01  -0.02  -0.02    -0.01  -0.01  -0.03     0.01  -0.06  -0.03
  12   1    -0.00  -0.03   0.02    -0.02  -0.26   0.12     0.02   0.81  -0.44
  13   1    -0.00   0.00   0.00     0.62  -0.00   0.68     0.20  -0.03   0.23
  14   1     0.01   0.77  -0.42     0.00  -0.01   0.01    -0.00   0.03  -0.01
  15   1     0.09  -0.29  -0.22     0.00  -0.00   0.00     0.00  -0.01  -0.01
  16   1    -0.01   0.14  -0.07     0.00  -0.00   0.00    -0.00  -0.00   0.00
  17   1     0.03  -0.09  -0.08    -0.00   0.00   0.00     0.00  -0.00  -0.00
  18   1     0.00   0.02  -0.01    -0.00   0.00  -0.00     0.00   0.00  -0.00
  19   1    -0.01  -0.01  -0.02    -0.00   0.00  -0.00     0.00  -0.00   0.00
  20   1    -0.00   0.01  -0.00    -0.00  -0.00  -0.00    -0.00  -0.00   0.00
  21   1    -0.00   0.01  -0.00     0.00   0.00  -0.00     0.00  -0.00   0.00
  22   1     0.00  -0.00  -0.00     0.00  -0.00  -0.00     0.00  -0.00  -0.00
  23   1     0.00   0.00  -0.00    -0.00  -0.00   0.00     0.00   0.00  -0.00
  24   1    -0.00   0.00  -0.00     0.00  -0.00   0.00     0.00  -0.00   0.00
  25   1    -0.00   0.01  -0.00     0.00  -0.00   0.00    -0.00   0.00  -0.00
  26   1    -0.00  -0.00  -0.00     0.00  -0.00   0.00     0.00   0.00  -0.00
  27   1     0.00  -0.01  -0.01    -0.00   0.00   0.00    -0.00   0.00   0.00
  28   1    -0.00   0.02  -0.01     0.00  -0.00   0.00     0.00  -0.00   0.00
