      -----------------------------------------------------------      
     |                   =====================                   |     
     |                           x T B                           |     
     |                   =====================                   |     
     |                         S. Grimme                         |     
     |          Mulliken Center for Theoretical Chemistry        |     
     |                    University of Bonn                     |     
      -----------------------------------------------------------      

   * xtb version 6.5.1 (fef0646) compiled by 'conda@b96dff2e9fd6' on 2023-01-04

   xtb is free software: you can redistribute it and/or modify it under
   the terms of the GNU Lesser General Public License as published by
   the Free Software Foundation, either version 3 of the License, or
   (at your option) any later version.
   
   xtb is distributed in the hope that it will be useful,
   but WITHOUT ANY WARRANTY; without even the implied warranty of
   MERCHANTABILITY or FITNESS FOR A PARTICULAR PURPOSE.  See the
   GNU Lesser General Public License for more details.
   
   Cite this work as:
   * C. Bannwarth, E. Caldeweyher, S. Ehlert, A. Hansen, P. Pracht,
     J. Seibert, S. Spicher, S. Grimme, WIREs Comput. Mol. Sci., 2020, 11,
     e01493. DOI: 10.1002/wcms.1493
   
   for GFN2-xTB:
   * C. Bannwarth, S. Ehlert and S. Grimme., J. Chem. Theory Comput., 2019,
     15, 1652-1671. DOI: 10.1021/acs.jctc.8b01176
   for GFN1-xTB:
   * S. Grimme, C. Bannwarth, P. Shushkov, J. Chem. Theory Comput., 2017,
     13, 1989-2009. DOI: 10.1021/acs.jctc.7b00118
   for GFN0-xTB:
   * P. Pracht, E. Caldeweyher, S. Ehlert, S. Grimme, ChemRxiv, 2019, preprint.
     DOI: 10.26434/chemrxiv.8326202.v1
   for GFN-FF:
   * S. Spicher and S. Grimme, Angew. Chem. Int. Ed., 2020, 59, 15665-15673.
     DOI: 10.1002/anie.202004239
   
   for ALPB and GBSA implicit solvation:
   * S. Ehlert, M. Stahn, S. Spicher, S. Grimme, J. Chem. Theory Comput.,
     2021, 17, 4250-4261. DOI: 10.1021/acs.jctc.1c00471
   
   for DFT-D4:
   * E. Caldeweyher, C. Bannwarth and S. Grimme, J. Chem. Phys., 2017,
     147, 034112. DOI: 10.1063/1.4993215
   * E. Caldeweyher, S. Ehlert, A. Hansen, H. Neugebauer, S. Spicher,
     C. Bannwarth and S. Grimme, J. Chem. Phys., 2019, 150, 154122.
     DOI: 10.1063/1.5090222
   * E. Caldeweyher, J.-M. Mewes, S. Ehlert and S. Grimme, Phys. Chem. Chem. Phys.
     2020, 22, 8499-8512. DOI: 10.1039/D0CP00502A
   
   for sTDA-xTB:
   * S. Grimme and C. Bannwarth, J. Chem. Phys., 2016, 145, 054103.
     DOI: 10.1063/1.4959605
   
   in the mass-spec context:
   * V. Asgeirsson, C. Bauer and S. Grimme, Chem. Sci., 2017, 8, 4879.
     DOI: 10.1039/c7sc00601b
   * J. Koopman and S. Grimme, ACS Omega 2019, 4, 12, 15120-15133.
     DOI: 10.1021/acsomega.9b02011
   
   for metadynamics refer to:
   * S. Grimme, J. Chem. Theory Comput., 2019, 155, 2847-2862
     DOI: 10.1021/acs.jctc.9b00143
   
   for SPH calculations refer to:
   * S. Spicher and S. Grimme, J. Chem. Theory Comput., 2021, 17, 1701-1714
     DOI: 10.1021/acs.jctc.0c01306
   
   with help from (in alphabetical order)
   P. Atkinson, C. Bannwarth, F. Bohle, G. Brandenburg, E. Caldeweyher
   M. Checinski, S. Dohm, S. Ehlert, S. Ehrlich, I. Gerasimov, C. Hölzer
   A. Katbashev, J. Koopman, C. Lavigne, S. Lehtola, F. März, M. Müller,
   F. Musil, H. Neugebauer, J. Pisarek, C. Plett, P. Pracht, F. Pultar,
   J. Seibert, P. Shushkov, S. Spicher, M. Stahn, M. Steiner, T. Strunk,
   J. Stückrath, T. Rose, and J. Unsleber
   
 * started run on 2023/01/24 at 14:57:54.324     

           -------------------------------------------------
          |                Calculation Setup                |
           -------------------------------------------------

          program call               : xtb init.xyz --opt -c 0 -u 0 -P 16 --alpb water
          hostname                   : gpg-woodward
          coordinate file            : init.xyz
          omp threads                :                    16

   ID    Z sym.   atoms
    1    7 N      1, 6
    2    6 C      2-5, 7-18
    3   17 Cl     19
    4    1 H      20-40

molecular fragmentation (1/2 indicates fragments):
1111111111111111112111111111111111111111
# atoms in fragment 1/2:    39     1
 fragment masses (1/2) :      241.35       35.45
CMA distance (Bohr)    :  19.496
constraining FC (au)   :  0.0500

           -------------------------------------------------
          |                 G F N 2 - x T B                 |
           -------------------------------------------------

        Reference                      10.1021/acs.jctc.8b01176
      * Hamiltonian:
        H0-scaling (s, p, d)           1.850000    2.230000    2.230000
        zeta-weighting                 0.500000
      * Dispersion:
        s8                             2.700000
        a1                             0.520000
        a2                             5.000000
        s9                             5.000000
      * Repulsion:
        kExp                           1.500000    1.000000
        rExp                           1.000000
      * Coulomb:
        alpha                          2.000000
        third order                    shell-resolved
        anisotropic                    true
        a3                             3.000000
        a5                             4.000000
        cn-shift                       1.200000
        cn-exp                         4.000000
        max-rad                        5.000000

      * Solvation model:               ALPB
        Solvent                        water
        Parameter file                 internal GFN2-xTB/ALPB
        Dielectric constant                8.0200E+01
        Reference state                gsolv [1 M gas/solution]
        Free energy shift                  1.0808E-03 Eh       6.7819E-01 kcal/mol
        Temperature                        2.9815E+02 K
        Density                            1.0000E+00 kg/L
        Solvent mass                       1.8000E+01 g/mol
        Interaction kernel             P16
        Born radius scaling (c1)           1.4744E+00
        Born radii integrator          GBOBC
        Born offset                        0.0000E+00 a0       0.0000E+00 AA
        H-bond correction              true
        Ion screening                  false
        Surface tension                    1.0000E-05 Eh       1.5569E+01 dyn/cm
        Grid points                               230 per atom

          ...................................................
          :                      SETUP                      :
          :.................................................:
          :  # basis functions                 103          :
          :  # atomic orbitals                 102          :
          :  # shells                           60          :
          :  # electrons                       102          :
          :  max. iterations                   250          :
          :  Hamiltonian                  GFN2-xTB          :
          :  restarted?                      false          :
          :  GBSA solvation                   true          :
          :  PC potential                    false          :
          :  electronic temp.          300.0000000     K    :
          :  accuracy                    1.0000000          :
          :  -> integral cutoff          0.2500000E+02      :
          :  -> integral neglect         0.1000000E-07      :
          :  -> SCF convergence          0.1000000E-05 Eh   :
          :  -> wf. convergence          0.1000000E-03 e    :
          :  Broyden damping             0.4000000          :
          ...................................................

 iter      E             dE          RMSdq      gap      omega  full diag
   1    -55.8896790 -0.558897E+02  0.391E+00    1.41       0.0  T
   2    -55.9935068 -0.103828E+00  0.234E+00    1.42       1.0  T
   3    -55.9294286  0.640781E-01  0.185E+00    1.59       1.0  T
   4    -55.9689301 -0.395015E-01  0.126E+00    1.47       1.0  T
   5    -56.0067914 -0.378612E-01  0.231E-01    1.40       1.0  T
   6    -56.0080459 -0.125449E-02  0.916E-02    1.40       1.0  T
   7    -56.0080851 -0.391931E-04  0.564E-02    1.40       1.0  T
   8    -56.0080852 -0.171083E-06  0.337E-02    1.40       1.0  T
   9    -56.0081107 -0.254133E-04  0.113E-02    1.40       1.4  T
  10    -56.0081115 -0.837322E-06  0.642E-03    1.40       2.5  T
  11    -56.0081119 -0.374431E-06  0.275E-03    1.40       5.8  T
  12    -56.0081119 -0.770009E-07  0.114E-03    1.40      13.8  T
  13    -56.0081120 -0.107386E-07  0.671E-04    1.40      23.6  T
  14    -56.0081120 -0.317250E-08  0.442E-04    1.40      35.7  T

   *** convergence criteria satisfied after 14 iterations ***

         #    Occupation            Energy/Eh            Energy/eV
      -------------------------------------------------------------
         1        2.0000           -0.9935142             -27.0349
       ...           ...                  ...                  ...
        45        2.0000           -0.3977209             -10.8225
        46        2.0000           -0.3961690             -10.7803
        47        2.0000           -0.3961204             -10.7790
        48        2.0000           -0.3961188             -10.7789
        49        2.0000           -0.3902506             -10.6193
        50        2.0000           -0.3499915              -9.5238
        51        2.0000           -0.3276252              -8.9151 (HOMO)
        52                         -0.2761084              -7.5133 (LUMO)
        53                         -0.2203292              -5.9955
        54                         -0.2193194              -5.9680
        55                         -0.2036475              -5.5415
        56                         -0.0900197              -2.4496
       ...                                ...                  ...
       102                          0.6488792              17.6569
      -------------------------------------------------------------
                  HL-Gap            0.0515167 Eh            1.4018 eV
             Fermi-level           -0.3018668 Eh           -8.2142 eV

 SCC (total)                   0 d,  0 h,  0 min,  0.107 sec
 SCC setup                      ...        0 min,  0.001 sec (  0.520%)
 Dispersion                     ...        0 min,  0.001 sec (  0.669%)
 classical contributions        ...        0 min,  0.000 sec (  0.051%)
 integral evaluation            ...        0 min,  0.003 sec (  2.573%)
 iterations                     ...        0 min,  0.096 sec ( 89.767%)
 molecular gradient             ...        0 min,  0.006 sec (  5.451%)
 printout                       ...        0 min,  0.001 sec (  0.652%)

         :::::::::::::::::::::::::::::::::::::::::::::::::::::
         ::                     SUMMARY                     ::
         :::::::::::::::::::::::::::::::::::::::::::::::::::::
         :: total energy             -55.227507545196 Eh    ::
         :: total w/o Gsasa/hb       -55.215677624978 Eh    ::
         :: gradient norm              0.114944438451 Eh/a0 ::
         :: HOMO-LUMO gap              1.401842041282 eV    ::
         ::.................................................::
         :: SCC energy               -56.008111957894 Eh    ::
         :: -> isotropic ES            0.259563799293 Eh    ::
         :: -> anisotropic ES         -0.014837963568 Eh    ::
         :: -> anisotropic XC          0.034594206890 Eh    ::
         :: -> dispersion             -0.038839709354 Eh    ::
         :: -> Gsolv                  -0.200308428516 Eh    ::
         ::    -> Gelec               -0.188478508299 Eh    ::
         ::    -> Gsasa               -0.002591686136 Eh    ::
         ::    -> Ghb                 -0.010318993780 Eh    ::
         ::    -> Gshift               0.001080759698 Eh    ::
         :: repulsion energy           0.779711039960 Eh    ::
         :: add. restraining           0.000000000000 Eh    ::
         :: total charge               0.000000000000 e     ::
         :::::::::::::::::::::::::::::::::::::::::::::::::::::

      ----------------------------------------------------------- 
     |                   =====================                   |
     |                        A N C O P T                        |
     |                   =====================                   |
     |               Approximate Normal Coordinate               |
     |                Rational Function Optimizer                |
      ----------------------------------------------------------- 

          ...................................................
          :                      SETUP                      :
          :.................................................:
          :   optimization level            normal          :
          :   max. optcycles                   200          :
          :   ANC micro-cycles                  20          :
          :   degrees of freedom               114          :
          :.................................................:
          :   RF solver                   davidson          :
          :   write xtbopt.log                true          :
          :   linear?                        false          :
          :   energy convergence         0.5000000E-05 Eh   :
          :   grad. convergence          0.1000000E-02 Eh/α :
          :   maximium RF displ.         1.0000000          :
          :   Hlow (freq-cutoff)         0.1000000E-01      :
          :   Hmax (freq-cutoff)         5.0000000          :
          :   S6 in model hess.         20.0000000          :
          ...................................................

generating ANC from model Hessian ...
Using Lindh-Hessian (1995)
 Shifting diagonal of input Hessian by    9.9991476708700122E-003
 Lowest  eigenvalues of input Hessian
    0.000000    0.000000    0.000000    0.000000    0.000000    0.000000
    0.010000    0.010005    0.010008    0.010337    0.010539    0.011091
    0.011523    0.011971    0.013199    0.013986    0.015632    0.016275
 Highest eigenvalues
    1.667604    1.697474    1.754882    1.869166    1.997296    2.018429


........................................................................
.............................. CYCLE    1 ..............................
........................................................................
   1    -56.0081120 -0.560081E+02  0.163E-04    1.40       0.0  T
   2    -56.0081120 -0.114490E-09  0.125E-04    1.40     126.4  T
   3    -56.0081120  0.810303E-10  0.109E-04    1.40     145.7  T
     SCC iter.                  ...        0 min,  0.022 sec
     gradient                   ...        0 min,  0.006 sec
 * total energy  :   -55.2275075 Eh     change       -0.2242579E-08 Eh
   gradient norm :     0.1149438 Eh/α   predicted     0.0000000E+00 (-100.00%)
   displ. norm   :     0.5321190 α      lambda       -0.3488234E-01
   maximum displ.:     0.1713976 α      in ANC's #45, #11, #13, ...

........................................................................
.............................. CYCLE    2 ..............................
........................................................................
   1    -56.0482875 -0.560483E+02  0.400E-01    1.72       0.0  T
   2    -56.0461512  0.213625E-02  0.374E-01    1.73       1.0  T
   3    -56.0482777 -0.212648E-02  0.248E-01    1.73       1.0  T
   4    -56.0491844 -0.906729E-03  0.751E-02    1.73       1.0  T
   5    -56.0493673 -0.182863E-03  0.157E-02    1.73       1.0  T
   6    -56.0493723 -0.496655E-05  0.644E-03    1.73       2.5  T
   7    -56.0493726 -0.297501E-06  0.346E-03    1.73       4.6  T
   8    -56.0493727 -0.157742E-06  0.584E-04    1.73      27.1  T
   9    -56.0493727 -0.193629E-08  0.361E-04    1.73      43.7  T
     SCC iter.                  ...        0 min,  0.062 sec
     gradient                   ...        0 min,  0.006 sec
 * total energy  :   -55.2528124 Eh     change       -0.2530488E-01 Eh
   gradient norm :     0.0508820 Eh/α   predicted    -0.2239076E-01 ( -11.52%)
   displ. norm   :     0.5551279 α      lambda       -0.1606598E-01
   maximum displ.:     0.2304350 α      in ANC's #11, #13, #14, ...

........................................................................
.............................. CYCLE    3 ..............................
........................................................................
   1    -56.0731969 -0.560732E+02  0.288E-01    1.88       0.0  T
   2    -56.0723450  0.851959E-03  0.262E-01    1.89       1.0  T
   3    -56.0733902 -0.104518E-02  0.170E-01    1.89       1.0  T
   4    -56.0737721 -0.381924E-03  0.540E-02    1.89       1.0  T
   5    -56.0738619 -0.898209E-04  0.156E-02    1.89       1.0  T
   6    -56.0738674 -0.550883E-05  0.539E-03    1.89       2.9  T
   7    -56.0738676 -0.224279E-06  0.330E-03    1.89       4.8  T
   8    -56.0738678 -0.133800E-06  0.556E-04    1.89      28.4  T
   9    -56.0738678 -0.323975E-08  0.299E-04    1.89      52.8  T
     SCC iter.                  ...        0 min,  0.054 sec
     gradient                   ...        0 min,  0.005 sec
 * total energy  :   -55.2639195 Eh     change       -0.1110710E-01 Eh
   gradient norm :     0.0215653 Eh/α   predicted    -0.1050850E-01 (  -5.39%)
   displ. norm   :     0.5305173 α      lambda       -0.6334903E-02
   maximum displ.:     0.2909332 α      in ANC's #11, #13, #14, ...

........................................................................
.............................. CYCLE    4 ..............................
........................................................................
   1    -56.0809540 -0.560810E+02  0.184E-01    1.95       0.0  T
   2    -56.0807707  0.183304E-03  0.149E-01    1.95       1.0  T
   3    -56.0808576 -0.868905E-04  0.114E-01    1.96       1.0  T
   4    -56.0811014 -0.243750E-03  0.278E-02    1.95       1.0  T
   5    -56.0811248 -0.234249E-04  0.798E-03    1.95       2.0  T
   6    -56.0811264 -0.156698E-05  0.265E-03    1.95       6.0  T
   7    -56.0811264 -0.565144E-07  0.152E-03    1.95      10.4  T
   8    -56.0811264 -0.235478E-07  0.334E-04    1.95      47.3  T
   9    -56.0811264 -0.969536E-09  0.171E-04    1.95      92.4  T
     SCC iter.                  ...        0 min,  0.054 sec
     gradient                   ...        0 min,  0.005 sec
 * total energy  :   -55.2686122 Eh     change       -0.4692660E-02 Eh
   gradient norm :     0.0195576 Eh/α   predicted    -0.4058951E-02 ( -13.50%)
   displ. norm   :     0.5261760 α      lambda       -0.3768644E-02
   maximum displ.:     0.2896756 α      in ANC's #11, #9, #13, ...

........................................................................
.............................. CYCLE    5 ..............................
........................................................................
   1    -56.0841211 -0.560841E+02  0.146E-01    1.98       0.0  T
   2    -56.0841217 -0.649481E-06  0.899E-02    1.98       1.0  T
   3    -56.0838673  0.254454E-03  0.919E-02    1.98       1.0  T
   4    -56.0841387 -0.271436E-03  0.118E-02    1.98       1.3  T
   5    -56.0841427 -0.396282E-05  0.403E-03    1.98       3.9  T
   6    -56.0841430 -0.374649E-06  0.152E-03    1.98      10.4  T
   7    -56.0841430 -0.797784E-08  0.865E-04    1.98      18.3  T
   8    -56.0841431 -0.990261E-08  0.256E-04    1.98      61.7  T
     SCC iter.                  ...        0 min,  0.048 sec
     gradient                   ...        0 min,  0.005 sec
 * total energy  :   -55.2714566 Eh     change       -0.2844420E-02 Eh
   gradient norm :     0.0150551 Eh/α   predicted    -0.2406030E-02 ( -15.41%)
   displ. norm   :     0.5255872 α      lambda       -0.2425252E-02
   maximum displ.:     0.2567629 α      in ANC's #11, #9, #8, ...

........................................................................
.............................. CYCLE    6 ..............................
........................................................................
   1    -56.0855450 -0.560855E+02  0.145E-01    2.00       0.0  T
   2    -56.0855395  0.548332E-05  0.861E-02    2.00       1.0  T
   3    -56.0852979  0.241542E-03  0.904E-02    2.00       1.0  T
   4    -56.0855551 -0.257158E-03  0.567E-03    2.00       2.8  T
   5    -56.0855559 -0.844905E-06  0.223E-03    2.00       7.1  T
   6    -56.0855560 -0.301963E-07  0.126E-03    2.00      12.5  T
   7    -56.0855560 -0.104456E-07  0.551E-04    2.00      28.7  T
   8    -56.0855560 -0.667305E-08  0.214E-04    2.00      73.7  T
     SCC iter.                  ...        0 min,  0.048 sec
     gradient                   ...        0 min,  0.005 sec
 * total energy  :   -55.2733007 Eh     change       -0.1844084E-02 Eh
   gradient norm :     0.0094517 Eh/α   predicted    -0.1547621E-02 ( -16.08%)
   displ. norm   :     0.5264206 α      lambda       -0.1616327E-02
   maximum displ.:     0.2812377 α      in ANC's #9, #8, #11, ...

........................................................................
.............................. CYCLE    7 ..............................
........................................................................
   1    -56.0859113 -0.560859E+02  0.156E-01    2.00       0.0  T
   2    -56.0858986  0.127159E-04  0.938E-02    2.00       1.0  T
   3    -56.0855701  0.328497E-03  0.108E-01    2.00       1.0  T
   4    -56.0859260 -0.355960E-03  0.729E-03    2.00       2.2  T
   5    -56.0859275 -0.149075E-05  0.250E-03    2.00       6.3  T
   6    -56.0859276 -0.361195E-07  0.146E-03    2.00      10.8  T
   7    -56.0859276 -0.881299E-08  0.704E-04    2.00      22.5  T
   8    -56.0859276 -0.116733E-07  0.216E-04    2.00      73.4  T
     SCC iter.                  ...        0 min,  0.048 sec
     gradient                   ...        0 min,  0.005 sec
 * total energy  :   -55.2745347 Eh     change       -0.1234015E-02 Eh
   gradient norm :     0.0083932 Eh/α   predicted    -0.1032130E-02 ( -16.36%)
   displ. norm   :     0.5028836 α      lambda       -0.1138031E-02
   maximum displ.:     0.2873167 α      in ANC's #9, #8, #6, ...

........................................................................
.............................. CYCLE    8 ..............................
........................................................................
   1    -56.0868273 -0.560868E+02  0.163E-01    2.01       0.0  T
   2    -56.0868252  0.208586E-05  0.966E-02    2.01       1.0  T
   3    -56.0866009  0.224280E-03  0.868E-02    2.00       1.0  T
   4    -56.0868365 -0.235600E-03  0.821E-03    2.00       1.9  T
   5    -56.0868383 -0.183636E-05  0.264E-03    2.00       6.0  T
   6    -56.0868384 -0.413305E-07  0.158E-03    2.00      10.0  T
   7    -56.0868384 -0.110058E-07  0.729E-04    2.00      21.7  T
   8    -56.0868384 -0.125537E-07  0.222E-04    2.00      71.1  T
     SCC iter.                  ...        0 min,  0.047 sec
     gradient                   ...        0 min,  0.005 sec
 * total energy  :   -55.2754074 Eh     change       -0.8727365E-03 Eh
   gradient norm :     0.0093534 Eh/α   predicted    -0.7129333E-03 ( -18.31%)
   displ. norm   :     0.4811739 α      lambda       -0.9091822E-03
   maximum displ.:     0.2798989 α      in ANC's #9, #8, #6, ...

........................................................................
.............................. CYCLE    9 ..............................
........................................................................
   1    -56.0884926 -0.560885E+02  0.165E-01    2.00       0.0  T
   2    -56.0884961 -0.354286E-05  0.972E-02    2.00       1.0  T
   3    -56.0884791  0.170176E-04  0.240E-02    2.00       1.0  T
   4    -56.0884960 -0.169581E-04  0.810E-03    2.00       2.0  T
   5    -56.0884979 -0.189200E-05  0.286E-03    2.00       5.5  T
   6    -56.0884980 -0.775073E-07  0.145E-03    2.00      10.9  T
   7    -56.0884980 -0.135070E-07  0.592E-04    2.00      26.7  T
   8    -56.0884980 -0.769865E-08  0.218E-04    2.00      72.4  T
     SCC iter.                  ...        0 min,  0.048 sec
     gradient                   ...        0 min,  0.005 sec
 * total energy  :   -55.2761151 Eh     change       -0.7077022E-03 Eh
   gradient norm :     0.0103437 Eh/α   predicted    -0.5598427E-03 ( -20.89%)
   displ. norm   :     0.4748054 α      lambda       -0.8569503E-03
   maximum displ.:     0.2649194 α      in ANC's #9, #8, #6, ...

........................................................................
.............................. CYCLE   10 ..............................
........................................................................
   1    -56.0904154 -0.560904E+02  0.169E-01    2.00       0.0  T
   2    -56.0904112  0.413230E-05  0.101E-01    2.00       1.0  T
   3    -56.0901584  0.252825E-03  0.906E-02    2.00       1.0  T
   4    -56.0904240 -0.265598E-03  0.491E-03    2.00       3.2  T
   5    -56.0904244 -0.423250E-06  0.261E-03    2.00       6.1  T
   6    -56.0904245 -0.345194E-07  0.114E-03    2.00      13.9  T
   7    -56.0904245 -0.900951E-08  0.338E-04    2.00      46.8  T
   8    -56.0904245 -0.918014E-09  0.215E-04    2.00      73.6  T
     SCC iter.                  ...        0 min,  0.048 sec
     gradient                   ...        0 min,  0.005 sec
 * total energy  :   -55.2767850 Eh     change       -0.6698998E-03 Eh
   gradient norm :     0.0106891 Eh/α   predicted    -0.5250715E-03 ( -21.62%)
   displ. norm   :     0.5034252 α      lambda       -0.9192679E-03
   maximum displ.:     0.2677437 α      in ANC's #9, #8, #6, ...

........................................................................
.............................. CYCLE   11 ..............................
........................................................................
   1    -56.0931470 -0.560931E+02  0.176E-01    1.99       0.0  T
   2    -56.0931121  0.349298E-04  0.112E-01    1.99       1.0  T
   3    -56.0926420  0.470086E-03  0.132E-01    2.00       1.0  T
   4    -56.0931725 -0.530482E-03  0.577E-03    1.99       2.7  T
   5    -56.0931731 -0.614446E-06  0.302E-03    1.99       5.2  T
   6    -56.0931732 -0.471292E-07  0.154E-03    1.99      10.3  T
   7    -56.0931732 -0.207451E-07  0.646E-04    1.99      24.5  T
   8    -56.0931732 -0.785779E-08  0.267E-04    1.99      59.2  T
     SCC iter.                  ...        0 min,  0.051 sec
     gradient                   ...        0 min,  0.005 sec
 * total energy  :   -55.2774256 Eh     change       -0.6405069E-03 Eh
   gradient norm :     0.0125503 Eh/α   predicted    -0.5761240E-03 ( -10.05%)
   displ. norm   :     0.5156828 α      lambda       -0.9410823E-03
   maximum displ.:     0.2534494 α      in ANC's #9, #8, #6, ...

........................................................................
.............................. CYCLE   12 ..............................
........................................................................
   1    -56.0911354 -0.560911E+02  0.180E-01    2.00       0.0  T
   2    -56.0911155  0.199148E-04  0.111E-01    2.00       1.0  T
   3    -56.0906774  0.438136E-03  0.125E-01    2.00       1.0  T
   4    -56.0911552 -0.477823E-03  0.814E-03    2.00       1.9  T
   5    -56.0911568 -0.154571E-05  0.321E-03    2.00       4.9  T
   6    -56.0911568 -0.593732E-07  0.196E-03    2.00       8.1  T
   7    -56.0911569 -0.410247E-07  0.623E-04    2.00      25.4  T
   8    -56.0911569 -0.620729E-08  0.273E-04    2.00      57.9  T
     SCC iter.                  ...        0 min,  0.052 sec
     gradient                   ...        0 min,  0.005 sec
 * total energy  :   -55.2780128 Eh     change       -0.5872532E-03 Eh
   gradient norm :     0.0129474 Eh/α   predicted    -0.5956781E-03 (   1.43%)
   displ. norm   :     0.3645028 α      lambda       -0.6087613E-03
   maximum displ.:     0.1675563 α      in ANC's #9, #4, #8, ...

........................................................................
.............................. CYCLE   13 ..............................
........................................................................
   1    -56.0937564 -0.560938E+02  0.115E-01    2.00       0.0  T
   2    -56.0937509  0.544665E-05  0.715E-02    2.00       1.0  T
   3    -56.0935961  0.154767E-03  0.759E-02    2.00       1.0  T
   4    -56.0937657 -0.169517E-03  0.892E-03    2.00       1.8  T
   5    -56.0937682 -0.249854E-05  0.269E-03    2.00       5.9  T
   6    -56.0937683 -0.937465E-07  0.134E-03    2.00      11.8  T
   7    -56.0937683 -0.552834E-08  0.623E-04    2.00      25.4  T
   8    -56.0937683 -0.606158E-08  0.193E-04    2.00      81.8  T
     SCC iter.                  ...        0 min,  0.048 sec
     gradient                   ...        0 min,  0.004 sec
 * total energy  :   -55.2784580 Eh     change       -0.4451777E-03 Eh
   gradient norm :     0.0090118 Eh/α   predicted    -0.3448466E-03 ( -22.54%)
   displ. norm   :     0.5506625 α      lambda       -0.6277775E-03
   maximum displ.:     0.2863191 α      in ANC's #9, #8, #6, ...

........................................................................
.............................. CYCLE   14 ..............................
........................................................................
   1    -56.0864446 -0.560864E+02  0.183E-01    1.98       0.0  T
   2    -56.0864517 -0.709859E-05  0.110E-01    1.98       1.0  T
   3    -56.0862600  0.191640E-03  0.787E-02    1.98       1.0  T
   4    -56.0864591 -0.199091E-03  0.118E-02    1.98       1.3  T
   5    -56.0864628 -0.366444E-05  0.352E-03    1.98       4.5  T
   6    -56.0864630 -0.171961E-06  0.203E-03    1.98       7.8  T
   7    -56.0864630 -0.142643E-07  0.911E-04    1.98      17.4  T
   8    -56.0864630 -0.157351E-07  0.283E-04    1.98      55.9  T
     SCC iter.                  ...        0 min,  0.047 sec
     gradient                   ...        0 min,  0.005 sec
 * total energy  :   -55.2786776 Eh     change       -0.2196326E-03 Eh
   gradient norm :     0.0144436 Eh/α   predicted    -0.4090722E-03 (  86.25%)
   displ. norm   :     0.2531960 α      lambda       -0.9024296E-03
   maximum displ.:     0.1196701 α      in ANC's #7, #5, #4, ...

........................................................................
.............................. CYCLE   15 ..............................
........................................................................
   1    -56.0979620 -0.560980E+02  0.770E-02    1.99       0.0  T
   2    -56.0979645 -0.249954E-05  0.459E-02    2.00       1.0  T
   3    -56.0979456  0.189163E-04  0.303E-02    1.99       1.0  T
   4    -56.0979693 -0.236714E-04  0.393E-03    2.00       4.0  T
   5    -56.0979695 -0.249572E-06  0.255E-03    2.00       6.2  T
   6    -56.0979697 -0.155295E-06  0.973E-04    2.00      16.2  T
   7    -56.0979697 -0.497631E-08  0.311E-04    2.00      50.8  T
     SCC iter.                  ...        0 min,  0.042 sec
     gradient                   ...        0 min,  0.005 sec
 * total energy  :   -55.2789378 Eh     change       -0.2601422E-03 Eh
   gradient norm :     0.0129252 Eh/α   predicted    -0.4801423E-03 (  84.57%)
   displ. norm   :     0.1873834 α      lambda       -0.4828735E-03
   maximum displ.:     0.0908832 α      in ANC's #9, #8, #6, ...

........................................................................
.............................. CYCLE   16 ..............................
........................................................................
   1    -56.0946083 -0.560946E+02  0.666E-02    1.98       0.0  T
   2    -56.0946066  0.168439E-05  0.407E-02    1.98       1.0  T
   3    -56.0945569  0.497897E-04  0.432E-02    1.98       1.0  T
   4    -56.0946112 -0.543887E-04  0.507E-03    1.98       3.1  T
   5    -56.0946120 -0.709332E-06  0.167E-03    1.98       9.5  T
   6    -56.0946120 -0.364763E-07  0.933E-04    1.98      16.9  T
   7    -56.0946120 -0.892913E-08  0.297E-04    1.98      53.2  T
     SCC iter.                  ...        0 min,  0.041 sec
     gradient                   ...        0 min,  0.005 sec
 * total energy  :   -55.2792180 Eh     change       -0.2802761E-03 Eh
   gradient norm :     0.0082962 Eh/α   predicted    -0.2499208E-03 ( -10.83%)
   displ. norm   :     0.2700265 α      lambda       -0.3591914E-03
   maximum displ.:     0.1123943 α      in ANC's #5, #9, #4, ...

........................................................................
.............................. CYCLE   17 ..............................
........................................................................
   1    -56.0923488 -0.560923E+02  0.878E-02    1.93       0.0  T
   2    -56.0923517 -0.287232E-05  0.523E-02    1.93       1.0  T
   3    -56.0923355  0.162077E-04  0.215E-02    1.94       1.0  T
   4    -56.0923511 -0.156214E-04  0.828E-03    1.93       1.9  T
   5    -56.0923529 -0.185608E-05  0.184E-03    1.93       8.6  T
   6    -56.0923530 -0.306428E-07  0.115E-03    1.93      13.7  T
   7    -56.0923530 -0.988727E-08  0.364E-04    1.93      43.4  T
   8    -56.0923530 -0.229328E-08  0.145E-04    1.93     109.0  T
     SCC iter.                  ...        0 min,  0.048 sec
     gradient                   ...        0 min,  0.005 sec
 * total energy  :   -55.2794141 Eh     change       -0.1960790E-03 Eh
   gradient norm :     0.0077475 Eh/α   predicted    -0.1926918E-03 (  -1.73%)
   displ. norm   :     0.2734203 α      lambda       -0.2946903E-03
   maximum displ.:     0.1410473 α      in ANC's #5, #7, #4, ...

........................................................................
.............................. CYCLE   18 ..............................
........................................................................
   1    -56.0922964 -0.560923E+02  0.725E-02    1.92       0.0  T
   2    -56.0922922  0.420508E-05  0.438E-02    1.92       1.0  T
   3    -56.0922257  0.665196E-04  0.520E-02    1.92       1.0  T
   4    -56.0923015 -0.758144E-04  0.556E-03    1.92       2.8  T
   5    -56.0923024 -0.880157E-06  0.161E-03    1.92       9.8  T
   6    -56.0923024 -0.332098E-07  0.899E-04    1.92      17.6  T
   7    -56.0923024 -0.484171E-08  0.376E-04    1.92      42.1  T
     SCC iter.                  ...        0 min,  0.041 sec
     gradient                   ...        0 min,  0.005 sec
 * total energy  :   -55.2796423 Eh     change       -0.2281757E-03 Eh
   gradient norm :     0.0063114 Eh/α   predicted    -0.1583621E-03 ( -30.60%)
   displ. norm   :     0.4238265 α      lambda       -0.4253073E-03
   maximum displ.:     0.2479443 α      in ANC's #5, #7, #4, ...

........................................................................
.............................. CYCLE   19 ..............................
........................................................................
   1    -56.0952827 -0.560953E+02  0.104E-01    1.89       0.0  T
   2    -56.0952564  0.262956E-04  0.664E-02    1.90       1.0  T
   3    -56.0951540  0.102373E-03  0.782E-02    1.89       1.0  T
   4    -56.0953041 -0.150095E-03  0.836E-03    1.90       1.9  T
   5    -56.0953062 -0.206538E-05  0.219E-03    1.90       7.2  T
   6    -56.0953062 -0.548578E-07  0.117E-03    1.90      13.5  T
   7    -56.0953062 -0.536322E-08  0.633E-04    1.90      25.0  T
   8    -56.0953062 -0.670416E-08  0.172E-04    1.90      91.7  T
     SCC iter.                  ...        0 min,  0.047 sec
     gradient                   ...        0 min,  0.005 sec
 * total energy  :   -55.2799058 Eh     change       -0.2635287E-03 Eh
   gradient norm :     0.0057730 Eh/α   predicted    -0.2508560E-03 (  -4.81%)
   displ. norm   :     0.5071583 α      lambda       -0.3094797E-03
   maximum displ.:     0.2858472 α      in ANC's #5, #4, #7, ...

........................................................................
.............................. CYCLE   20 ..............................
........................................................................
   1    -56.0934666 -0.560935E+02  0.132E-01    1.87       0.0  T
   2    -56.0934651  0.147904E-05  0.763E-02    1.88       1.0  T
   3    -56.0932981  0.167025E-03  0.771E-02    1.87       1.0  T
   4    -56.0934752 -0.177121E-03  0.103E-02    1.87       1.5  T
   5    -56.0934782 -0.302858E-05  0.260E-03    1.87       6.1  T
   6    -56.0934783 -0.133863E-06  0.139E-03    1.87      11.3  T
   7    -56.0934784 -0.985341E-08  0.428E-04    1.87      37.0  T
   8    -56.0934784 -0.330549E-08  0.169E-04    1.87      93.4  T
     SCC iter.                  ...        0 min,  0.047 sec
     gradient                   ...        0 min,  0.005 sec
 * total energy  :   -55.2800916 Eh     change       -0.1857385E-03 Eh
   gradient norm :     0.0067926 Eh/α   predicted    -0.1945459E-03 (   4.74%)
   displ. norm   :     0.2966234 α      lambda       -0.1905221E-03
   maximum displ.:     0.1879622 α      in ANC's #5, #6, #4, ...
 * RMSD in coord.:     1.0095012 α      energy gain  -0.5258401E-01 Eh

generating ANC from model Hessian ...
Using Lindh-Hessian (1995)
 Shifting diagonal of input Hessian by    9.9987629146988354E-003
 Lowest  eigenvalues of input Hessian
    0.000000    0.000000    0.000000    0.000000    0.000000    0.000000
    0.010000    0.010007    0.010016    0.010473    0.010565    0.011302
    0.012219    0.013732    0.014008    0.014729    0.015968    0.016520
 Highest eigenvalues
    1.710189    1.768576    1.815149    1.931865    2.029146    2.118394


........................................................................
.............................. CYCLE   21 ..............................
........................................................................
   1    -56.0933186 -0.560933E+02  0.709E-02    1.87       0.0  T
   2    -56.0933194 -0.753214E-06  0.416E-02    1.87       1.0  T
   3    -56.0933155  0.382025E-05  0.117E-02    1.87       1.4  T
   4    -56.0933199 -0.432307E-05  0.162E-03    1.87       9.7  T
   5    -56.0933199 -0.334577E-07  0.110E-03    1.87      14.3  T
   6    -56.0933199 -0.143316E-07  0.746E-04    1.87      21.2  T
   7    -56.0933199 -0.100090E-07  0.194E-04    1.87      81.4  T
     SCC iter.                  ...        0 min,  0.042 sec
     gradient                   ...        0 min,  0.005 sec
 * total energy  :   -55.2802306 Eh     change       -0.1390097E-03 Eh
   gradient norm :     0.0061695 Eh/α   predicted     0.0000000E+00 (-100.00%)
   displ. norm   :     0.0612007 α      lambda       -0.1193523E-03
   maximum displ.:     0.0317088 α      in ANC's #5, #20, #9, ...

........................................................................
.............................. CYCLE   22 ..............................
........................................................................
   1    -56.0949991 -0.560950E+02  0.268E-02    1.89       0.0  T
   2    -56.0949933  0.581396E-05  0.221E-02    1.89       1.0  T
   3    -56.0949976 -0.429815E-05  0.163E-02    1.89       1.0  T
   4    -56.0950026 -0.495531E-05  0.153E-03    1.89      10.3  T
   5    -56.0950026 -0.647882E-07  0.448E-04    1.89      35.3  T
   6    -56.0950026 -0.237738E-08  0.266E-04    1.89      59.4  T
     SCC iter.                  ...        0 min,  0.036 sec
     gradient                   ...        0 min,  0.005 sec
 * total energy  :   -55.2803239 Eh     change       -0.9330941E-04 Eh
   gradient norm :     0.0027965 Eh/α   predicted    -0.5994771E-04 ( -35.75%)
   displ. norm   :     0.1359133 α      lambda       -0.1352920E-03
   maximum displ.:     0.0797440 α      in ANC's #5, #7, #9, ...

........................................................................
.............................. CYCLE   23 ..............................
........................................................................
   1    -56.0964608 -0.560965E+02  0.482E-02    1.92       0.0  T
   2    -56.0964447  0.160807E-04  0.388E-02    1.91       1.0  T
   3    -56.0964536 -0.890255E-05  0.294E-02    1.92       1.0  T
   4    -56.0964705 -0.169427E-04  0.246E-03    1.91       6.4  T
   5    -56.0964707 -0.176976E-06  0.714E-04    1.91      22.1  T
   6    -56.0964707 -0.576485E-08  0.423E-04    1.91      37.4  T
     SCC iter.                  ...        0 min,  0.036 sec
     gradient                   ...        0 min,  0.005 sec
 * total energy  :   -55.2804129 Eh     change       -0.8900847E-04 Eh
   gradient norm :     0.0026346 Eh/α   predicted    -0.6889626E-04 ( -22.60%)
   displ. norm   :     0.1164557 α      lambda       -0.5903162E-04
   maximum displ.:     0.0733314 α      in ANC's #5, #3, #7, ...

........................................................................
.............................. CYCLE   24 ..............................
........................................................................
   1    -56.0965429 -0.560965E+02  0.332E-02    1.93       0.0  T
   2    -56.0965400  0.290287E-05  0.231E-02    1.93       1.0  T
   3    -56.0965304  0.963445E-05  0.233E-02    1.93       1.0  T
   4    -56.0965449 -0.145674E-04  0.123E-03    1.93      12.8  T
   5    -56.0965450 -0.449661E-07  0.390E-04    1.93      40.5  T
   6    -56.0965450 -0.367159E-09  0.243E-04    1.93      65.1  T
     SCC iter.                  ...        0 min,  0.035 sec
     gradient                   ...        0 min,  0.005 sec
 * total energy  :   -55.2804612 Eh     change       -0.4829333E-04 Eh
   gradient norm :     0.0030838 Eh/α   predicted    -0.3004046E-04 ( -37.80%)
   displ. norm   :     0.1719666 α      lambda       -0.7968819E-04
   maximum displ.:     0.1079950 α      in ANC's #5, #3, #7, ...

........................................................................
.............................. CYCLE   25 ..............................
........................................................................
   1    -56.0960312 -0.560960E+02  0.439E-02    1.94       0.0  T
   2    -56.0960311  0.130323E-06  0.265E-02    1.94       1.0  T
   3    -56.0960157  0.154080E-04  0.223E-02    1.94       1.0  T
   4    -56.0960318 -0.161894E-04  0.158E-03    1.94      10.0  T
   5    -56.0960319 -0.669670E-07  0.549E-04    1.94      28.8  T
   6    -56.0960319 -0.900002E-09  0.344E-04    1.94      45.9  T
     SCC iter.                  ...        0 min,  0.036 sec
     gradient                   ...        0 min,  0.005 sec
 * total energy  :   -55.2805249 Eh     change       -0.6370481E-04 Eh
   gradient norm :     0.0024807 Eh/α   predicted    -0.4102285E-04 ( -35.60%)
   displ. norm   :     0.1924920 α      lambda       -0.7216776E-04
   maximum displ.:     0.1232594 α      in ANC's #5, #3, #7, ...

........................................................................
.............................. CYCLE   26 ..............................
........................................................................
   1    -56.0954682 -0.560955E+02  0.471E-02    1.94       0.0  T
   2    -56.0954677  0.513706E-06  0.275E-02    1.94       1.0  T
   3    -56.0954456  0.221198E-04  0.278E-02    1.94       1.0  T
   4    -56.0954692 -0.235966E-04  0.206E-03    1.94       7.7  T
   5    -56.0954693 -0.109908E-06  0.645E-04    1.94      24.5  T
   6    -56.0954693 -0.208565E-08  0.371E-04    1.94      42.6  T
     SCC iter.                  ...        0 min,  0.035 sec
     gradient                   ...        0 min,  0.005 sec
 * total energy  :   -55.2805800 Eh     change       -0.5508456E-04 Eh
   gradient norm :     0.0024062 Eh/α   predicted    -0.3742118E-04 ( -32.07%)
   displ. norm   :     0.1555975 α      lambda       -0.5079530E-04
   maximum displ.:     0.1014774 α      in ANC's #5, #3, #1, ...

........................................................................
.............................. CYCLE   27 ..............................
........................................................................
   1    -56.0954616 -0.560955E+02  0.377E-02    1.93       0.0  T
   2    -56.0954587  0.294021E-05  0.233E-02    1.93       1.0  T
   3    -56.0954428  0.159056E-04  0.287E-02    1.93       1.0  T
   4    -56.0954638 -0.210371E-04  0.215E-03    1.93       7.4  T
   5    -56.0954640 -0.129093E-06  0.569E-04    1.93      27.8  T
   6    -56.0954640 -0.207190E-08  0.332E-04    1.93      47.6  T
     SCC iter.                  ...        0 min,  0.036 sec
     gradient                   ...        0 min,  0.005 sec
 * total energy  :   -55.2806225 Eh     change       -0.4251143E-04 Eh
   gradient norm :     0.0024319 Eh/α   predicted    -0.2602025E-04 ( -38.79%)
   displ. norm   :     0.1772964 α      lambda       -0.6009339E-04
   maximum displ.:     0.1148722 α      in ANC's #5, #3, #1, ...

........................................................................
.............................. CYCLE   28 ..............................
........................................................................
   1    -56.0958083 -0.560958E+02  0.425E-02    1.93       0.0  T
   2    -56.0958037  0.465403E-05  0.266E-02    1.93       1.0  T
   3    -56.0957868  0.168826E-04  0.321E-02    1.93       1.0  T
   4    -56.0958118 -0.250794E-04  0.277E-03    1.93       5.7  T
   5    -56.0958121 -0.222810E-06  0.717E-04    1.93      22.0  T
   6    -56.0958121 -0.460884E-08  0.424E-04    1.93      37.3  T
     SCC iter.                  ...        0 min,  0.036 sec
     gradient                   ...        0 min,  0.005 sec
 * total energy  :   -55.2806736 Eh     change       -0.5112363E-04 Eh
   gradient norm :     0.0021516 Eh/α   predicted    -0.3099151E-04 ( -39.38%)
   displ. norm   :     0.2349305 α      lambda       -0.7236418E-04
   maximum displ.:     0.1499895 α      in ANC's #5, #3, #1, ...

........................................................................
.............................. CYCLE   29 ..............................
........................................................................
   1    -56.0961098 -0.560961E+02  0.535E-02    1.92       0.0  T
   2    -56.0961074  0.236745E-05  0.315E-02    1.92       1.0  T
   3    -56.0960716  0.357807E-04  0.390E-02    1.92       1.0  T
   4    -56.0961127 -0.411085E-04  0.356E-03    1.92       4.4  T
   5    -56.0961131 -0.385508E-06  0.951E-04    1.92      16.6  T
   6    -56.0961131 -0.876383E-08  0.569E-04    1.92      27.8  T
     SCC iter.                  ...        0 min,  0.037 sec
     gradient                   ...        0 min,  0.005 sec
 * total energy  :   -55.2807339 Eh     change       -0.6027849E-04 Eh
   gradient norm :     0.0020204 Eh/α   predicted    -0.3818287E-04 ( -36.66%)
   displ. norm   :     0.2692356 α      lambda       -0.7124795E-04
   maximum displ.:     0.1690947 α      in ANC's #5, #3, #1, ...

........................................................................
.............................. CYCLE   30 ..............................
........................................................................
   1    -56.0962407 -0.560962E+02  0.582E-02    1.91       0.0  T
   2    -56.0962417 -0.100475E-05  0.337E-02    1.91       1.0  T
   3    -56.0962359  0.580034E-05  0.145E-02    1.91       1.1  T
   4    -56.0962414 -0.549661E-05  0.502E-03    1.91       3.1  T
   5    -56.0962422 -0.824826E-06  0.104E-03    1.91      15.2  T
   6    -56.0962422 -0.102221E-07  0.632E-04    1.91      25.0  T
   7    -56.0962422 -0.195097E-08  0.279E-04    1.91      56.6  T
     SCC iter.                  ...        0 min,  0.043 sec
     gradient                   ...        0 min,  0.005 sec
 * total energy  :   -55.2807936 Eh     change       -0.5976759E-04 Eh
   gradient norm :     0.0022825 Eh/α   predicted    -0.3821146E-04 ( -36.07%)
   displ. norm   :     0.2993162 α      lambda       -0.7051406E-04
   maximum displ.:     0.1850572 α      in ANC's #5, #3, #1, ...

........................................................................
.............................. CYCLE   31 ..............................
........................................................................
   1    -56.0962845 -0.560963E+02  0.617E-02    1.90       0.0  T
   2    -56.0962839  0.599512E-06  0.383E-02    1.90       1.0  T
   3    -56.0962404  0.435211E-04  0.373E-02    1.90       1.0  T
   4    -56.0962863 -0.459965E-04  0.274E-03    1.90       5.8  T
   5    -56.0962866 -0.200514E-06  0.111E-03    1.90      14.2  T
   6    -56.0962866 -0.152745E-07  0.656E-04    1.90      24.1  T
   7    -56.0962866 -0.292476E-08  0.225E-04    1.90      70.3  T
     SCC iter.                  ...        0 min,  0.042 sec
     gradient                   ...        0 min,  0.005 sec
 * total energy  :   -55.2808530 Eh     change       -0.5931451E-04 Eh
   gradient norm :     0.0024049 Eh/α   predicted    -0.3841787E-04 ( -35.23%)
   displ. norm   :     0.3261892 α      lambda       -0.6995007E-04
   maximum displ.:     0.1980036 α      in ANC's #5, #3, #1, ...

........................................................................
.............................. CYCLE   32 ..............................
........................................................................
   1    -56.0963247 -0.560963E+02  0.639E-02    1.90       0.0  T
   2    -56.0963199  0.483090E-05  0.425E-02    1.90       1.0  T
   3    -56.0962590  0.608704E-04  0.469E-02    1.90       1.0  T
   4    -56.0963287 -0.696327E-04  0.247E-03    1.90       6.4  T
   5    -56.0963288 -0.161661E-06  0.116E-03    1.90      13.6  T
   6    -56.0963288 -0.178498E-07  0.667E-04    1.90      23.7  T
   7    -56.0963289 -0.293306E-08  0.218E-04    1.90      72.7  T
     SCC iter.                  ...        0 min,  0.042 sec
     gradient                   ...        0 min,  0.005 sec
 * total energy  :   -55.2809118 Eh     change       -0.5887493E-04 Eh
   gradient norm :     0.0020552 Eh/α   predicted    -0.3870024E-04 ( -34.27%)
   displ. norm   :     0.3021098 α      lambda       -0.6276015E-04
   maximum displ.:     0.1894724 α      in ANC's #3, #5, #1, ...

........................................................................
.............................. CYCLE   33 ..............................
........................................................................
   1    -56.0965647 -0.560966E+02  0.549E-02    1.90       0.0  T
   2    -56.0965597  0.499082E-05  0.375E-02    1.90       1.0  T
   3    -56.0965205  0.391382E-04  0.398E-02    1.90       1.0  T
   4    -56.0965683 -0.477919E-04  0.260E-03    1.90       6.1  T
   5    -56.0965685 -0.199337E-06  0.104E-03    1.90      15.2  T
   6    -56.0965685 -0.140939E-07  0.596E-04    1.90      26.6  T
   7    -56.0965685 -0.181460E-08  0.260E-04    1.90      60.9  T
     SCC iter.                  ...        0 min,  0.042 sec
     gradient                   ...        0 min,  0.005 sec
 * total energy  :   -55.2809660 Eh     change       -0.5420603E-04 Eh
   gradient norm :     0.0014826 Eh/α   predicted    -0.3424681E-04 ( -36.82%)
   displ. norm   :     0.4029527 α      lambda       -0.5650088E-04
   maximum displ.:     0.2618954 α      in ANC's #3, #5, #1, ...

........................................................................
.............................. CYCLE   34 ..............................
........................................................................
   1    -56.0968736 -0.560969E+02  0.671E-02    1.90       0.0  T
   2    -56.0968701  0.342977E-05  0.435E-02    1.90       1.0  T
   3    -56.0968077  0.624686E-04  0.471E-02    1.90       1.0  T
   4    -56.0968772 -0.695454E-04  0.438E-03    1.90       3.6  T
   5    -56.0968778 -0.608732E-06  0.135E-03    1.90      11.8  T
   6    -56.0968778 -0.221980E-07  0.793E-04    1.90      19.9  T
   7    -56.0968778 -0.320804E-08  0.395E-04    1.90      40.0  T
     SCC iter.                  ...        0 min,  0.042 sec
     gradient                   ...        0 min,  0.005 sec
 * total energy  :   -55.2810372 Eh     change       -0.7113743E-04 Eh
   gradient norm :     0.0016397 Eh/α   predicted    -0.3029314E-04 ( -57.42%)
   displ. norm   :     0.3239702 α      lambda       -0.4805185E-04
   maximum displ.:     0.2191497 α      in ANC's #3, #5, #1, ...

........................................................................
.............................. CYCLE   35 ..............................
........................................................................
   1    -56.0971939 -0.560972E+02  0.478E-02    1.89       0.0  T
   2    -56.0971945 -0.613172E-06  0.277E-02    1.90       1.0  T
   3    -56.0971890  0.554146E-05  0.138E-02    1.89       1.1  T
   4    -56.0971946 -0.564559E-05  0.411E-03    1.89       3.8  T
   5    -56.0971951 -0.517193E-06  0.115E-03    1.89      13.7  T
   6    -56.0971951 -0.175192E-07  0.647E-04    1.89      24.4  T
   7    -56.0971951 -0.238637E-08  0.313E-04    1.89      50.5  T
     SCC iter.                  ...        0 min,  0.042 sec
     gradient                   ...        0 min,  0.005 sec
 * total energy  :   -55.2811026 Eh     change       -0.6538575E-04 Eh
   gradient norm :     0.0018115 Eh/α   predicted    -0.2514981E-04 ( -61.54%)
   displ. norm   :     0.3265072 α      lambda       -0.5571137E-04
   maximum displ.:     0.2255218 α      in ANC's #3, #1, #5, ...

........................................................................
.............................. CYCLE   36 ..............................
........................................................................
   1    -56.0972729 -0.560973E+02  0.428E-02    1.89       0.0  T
   2    -56.0972714  0.152747E-05  0.254E-02    1.89       1.0  T
   3    -56.0972475  0.238238E-04  0.307E-02    1.89       1.0  T
   4    -56.0972745 -0.269723E-04  0.389E-03    1.89       4.1  T
   5    -56.0972750 -0.449871E-06  0.953E-04    1.89      16.6  T
   6    -56.0972750 -0.563013E-08  0.613E-04    1.89      25.8  T
     SCC iter.                  ...        0 min,  0.036 sec
     gradient                   ...        0 min,  0.005 sec
 * total energy  :   -55.2811784 Eh     change       -0.7585063E-04 Eh
   gradient norm :     0.0016055 Eh/α   predicted    -0.2917657E-04 ( -61.53%)
   displ. norm   :     0.3706666 α      lambda       -0.6503431E-04
   maximum displ.:     0.2575397 α      in ANC's #3, #1, #5, ...

........................................................................
.............................. CYCLE   37 ..............................
........................................................................
   1    -56.0971906 -0.560972E+02  0.429E-02    1.89       0.0  T
   2    -56.0971897  0.908834E-06  0.252E-02    1.89       1.0  T
   3    -56.0971667  0.230601E-04  0.292E-02    1.89       1.0  T
   4    -56.0971920 -0.252901E-04  0.343E-03    1.89       4.6  T
   5    -56.0971923 -0.336394E-06  0.107E-03    1.89      14.7  T
   6    -56.0971923 -0.605851E-08  0.692E-04    1.89      22.8  T
   7    -56.0971923 -0.413893E-08  0.316E-04    1.89      50.0  T
     SCC iter.                  ...        0 min,  0.042 sec
     gradient                   ...        0 min,  0.005 sec
 * total energy  :   -55.2812642 Eh     change       -0.8577483E-04 Eh
   gradient norm :     0.0014753 Eh/α   predicted    -0.3451412E-04 ( -59.76%)
   displ. norm   :     0.3836979 α      lambda       -0.6678544E-04
   maximum displ.:     0.2686351 α      in ANC's #3, #1, #2, ...

........................................................................
.............................. CYCLE   38 ..............................
........................................................................
   1    -56.0965216 -0.560965E+02  0.402E-02    1.90       0.0  T
   2    -56.0965207  0.861950E-06  0.241E-02    1.90       1.0  T
   3    -56.0964989  0.217908E-04  0.278E-02    1.89       1.0  T
   4    -56.0965228 -0.238529E-04  0.258E-03    1.90       6.1  T
   5    -56.0965229 -0.169270E-06  0.108E-03    1.90      14.6  T
   6    -56.0965229 -0.546127E-08  0.658E-04    1.90      24.0  T
   7    -56.0965229 -0.504563E-08  0.297E-04    1.90      53.3  T
     SCC iter.                  ...        0 min,  0.042 sec
     gradient                   ...        0 min,  0.005 sec
 * total energy  :   -55.2813532 Eh     change       -0.8902743E-04 Eh
   gradient norm :     0.0019511 Eh/α   predicted    -0.3557906E-04 ( -60.04%)
   displ. norm   :     0.3834621 α      lambda       -0.7316932E-04
   maximum displ.:     0.2687746 α      in ANC's #3, #1, #2, ...

........................................................................
.............................. CYCLE   39 ..............................
........................................................................
   1    -56.0963994 -0.560964E+02  0.351E-02    1.89       0.0  T
   2    -56.0963993  0.645671E-07  0.212E-02    1.89       1.0  T
   3    -56.0963874  0.119063E-04  0.198E-02    1.89       1.0  T
   4    -56.0964001 -0.126376E-04  0.187E-03    1.89       8.5  T
   5    -56.0964001 -0.756178E-07  0.989E-04    1.89      16.0  T
   6    -56.0964001 -0.461115E-08  0.511E-04    1.89      30.9  T
     SCC iter.                  ...        0 min,  0.036 sec
     gradient                   ...        0 min,  0.005 sec
 * total energy  :   -55.2814503 Eh     change       -0.9710163E-04 Eh
   gradient norm :     0.0029988 Eh/α   predicted    -0.3897723E-04 ( -59.86%)
   displ. norm   :     0.2530728 α      lambda       -0.8409454E-04
   maximum displ.:     0.1786934 α      in ANC's #3, #1, #2, ...

........................................................................
.............................. CYCLE   40 ..............................
........................................................................
   1    -56.0962137 -0.560962E+02  0.219E-02    1.90       0.0  T
   2    -56.0962137 -0.692952E-07  0.130E-02    1.90       1.2  T
   3    -56.0962102  0.355014E-05  0.108E-02    1.90       1.5  T
   4    -56.0962139 -0.375034E-05  0.170E-03    1.90       9.3  T
   5    -56.0962140 -0.713814E-07  0.721E-04    1.90      21.9  T
   6    -56.0962140 -0.168153E-08  0.483E-04    1.90      32.7  T
     SCC iter.                  ...        0 min,  0.036 sec
     gradient                   ...        0 min,  0.005 sec
 * total energy  :   -55.2815282 Eh     change       -0.7790613E-04 Eh
   gradient norm :     0.0024817 Eh/α   predicted    -0.4474047E-04 ( -42.57%)
   displ. norm   :     0.3026416 α      lambda       -0.1136446E-03
   maximum displ.:     0.2133635 α      in ANC's #3, #1, #2, ...

........................................................................
.............................. CYCLE   41 ..............................
........................................................................
   1    -56.0964141 -0.560964E+02  0.269E-02    1.91       0.0  T
   2    -56.0964130  0.105079E-05  0.171E-02    1.90       1.0  T
   3    -56.0964038  0.919198E-05  0.199E-02    1.91       1.0  T
   4    -56.0964151 -0.112811E-04  0.201E-03    1.91       7.9  T
   5    -56.0964152 -0.964445E-07  0.877E-04    1.90      18.0  T
   6    -56.0964152 -0.241015E-08  0.582E-04    1.91      27.2  T
     SCC iter.                  ...        0 min,  0.036 sec
     gradient                   ...        0 min,  0.005 sec
 * total energy  :   -55.2816357 Eh     change       -0.1074597E-03 Eh
   gradient norm :     0.0019639 Eh/α   predicted    -0.6202758E-04 ( -42.28%)
   displ. norm   :     0.6331335 α      lambda       -0.1645010E-03
   maximum displ.:     0.4441736 α      in ANC's #3, #2, #1, ...

........................................................................
.............................. CYCLE   42 ..............................
........................................................................
   1    -56.0964693 -0.560965E+02  0.611E-02    1.92       0.0  T
   2    -56.0964592  0.100281E-04  0.407E-02    1.91       1.0  T
   3    -56.0964257  0.335485E-04  0.444E-02    1.92       1.0  T
   4    -56.0964770 -0.513277E-04  0.475E-03    1.91       3.3  T
   5    -56.0964776 -0.584830E-06  0.187E-03    1.91       8.5  T
   6    -56.0964776 -0.127588E-07  0.125E-03    1.91      12.6  T
   7    -56.0964776 -0.200744E-07  0.559E-04    1.91      28.3  T
   8    -56.0964776 -0.237750E-08  0.346E-04    1.91      45.7  T
     SCC iter.                  ...        0 min,  0.048 sec
     gradient                   ...        0 min,  0.005 sec
 * total energy  :   -55.2818586 Eh     change       -0.2228929E-03 Eh
   gradient norm :     0.0023989 Eh/α   predicted    -0.9690532E-04 ( -56.52%)
   displ. norm   :     0.4725544 α      lambda       -0.1874387E-03
   maximum displ.:     0.3377058 α      in ANC's #3, #2, #1, ...
 * RMSD in coord.:     0.8743210 α      energy gain  -0.1767023E-02 Eh

generating ANC from model Hessian ...
Using Lindh-Hessian (1995)
 Shifting diagonal of input Hessian by    1.0033977112151756E-002
 Lowest  eigenvalues of input Hessian
    0.010000    0.010015    0.000000    0.000000    0.000000    0.000000
    0.000000    0.000000    0.010280    0.010494    0.010616    0.011413
    0.012230    0.013872    0.013961    0.014996    0.015973    0.016830
 Highest eigenvalues
    1.715537    1.771696    1.822836    1.931259    2.029461    2.118525


........................................................................
.............................. CYCLE   43 ..............................
........................................................................
   1    -56.0966934 -0.560967E+02  0.447E-02    1.92       0.0  T
   2    -56.0966888  0.463012E-05  0.293E-02    1.92       1.0  T
   3    -56.0966689  0.199175E-04  0.328E-02    1.92       1.0  T
   4    -56.0966973 -0.284154E-04  0.338E-03    1.92       4.7  T
   5    -56.0966976 -0.312739E-06  0.138E-03    1.92      11.5  T
   6    -56.0966976 -0.561712E-08  0.988E-04    1.92      16.0  T
   7    -56.0966976 -0.128552E-07  0.449E-04    1.92      35.2  T
     SCC iter.                  ...        0 min,  0.043 sec
     gradient                   ...        0 min,  0.005 sec
 * total energy  :   -55.2820351 Eh     change       -0.1764966E-03 Eh
   gradient norm :     0.0018796 Eh/α   predicted     0.0000000E+00 (-100.00%)
   displ. norm   :     0.0815603 α      lambda       -0.4269795E-04
   maximum displ.:     0.0594260 α      in ANC's #3, #11, #4, ...

........................................................................
.............................. CYCLE   44 ..............................
........................................................................
   1    -56.0975841 -0.560976E+02  0.133E-02    1.91       0.0  T
   2    -56.0975843 -0.226948E-06  0.831E-03    1.91       1.9  T
   3    -56.0975830  0.127866E-05  0.731E-03    1.91       2.2  T
   4    -56.0975844 -0.136518E-05  0.273E-03    1.91       5.8  T
   5    -56.0975846 -0.222122E-06  0.556E-04    1.91      28.4  T
   6    -56.0975846 -0.468246E-08  0.333E-04    1.91      47.5  T
     SCC iter.                  ...        0 min,  0.037 sec
     gradient                   ...        0 min,  0.005 sec
 * total energy  :   -55.2820918 Eh     change       -0.5676128E-04 Eh
   gradient norm :     0.0009627 Eh/α   predicted    -0.2145634E-04 ( -62.20%)
   displ. norm   :     0.2449687 α      lambda       -0.1001254E-03
   maximum displ.:     0.1632785 α      in ANC's #3, #11, #4, ...

........................................................................
.............................. CYCLE   45 ..............................
........................................................................
   1    -56.0978247 -0.560978E+02  0.353E-02    1.90       0.0  T
   2    -56.0978269 -0.219328E-05  0.211E-02    1.90       1.0  T
   3    -56.0978246  0.227755E-05  0.110E-02    1.90       1.4  T
   4    -56.0978275 -0.283809E-05  0.352E-03    1.90       4.5  T
   5    -56.0978278 -0.297205E-06  0.183E-03    1.90       8.6  T
   6    -56.0978278 -0.802802E-07  0.851E-04    1.90      18.6  T
   7    -56.0978278 -0.590675E-08  0.513E-04    1.90      30.8  T
     SCC iter.                  ...        0 min,  0.071 sec
     gradient                   ...        0 min,  0.008 sec
 * total energy  :   -55.2822134 Eh     change       -0.1215388E-03 Eh
   gradient norm :     0.0015607 Eh/α   predicted    -0.5141325E-04 ( -57.70%)
   displ. norm   :     0.3192763 α      lambda       -0.9434384E-04
   maximum displ.:     0.2151510 α      in ANC's #3, #11, #4, ...

........................................................................
.............................. CYCLE   46 ..............................
........................................................................
   1    -56.0976072 -0.560976E+02  0.382E-02    1.89       0.0  T
   2    -56.0976078 -0.586907E-06  0.233E-02    1.89       1.0  T
   3    -56.0975953  0.125053E-04  0.256E-02    1.90       1.0  T
   4    -56.0976103 -0.150638E-04  0.587E-03    1.89       2.7  T
   5    -56.0976115 -0.116637E-05  0.158E-03    1.89      10.0  T
   6    -56.0976115 -0.327009E-07  0.103E-03    1.89      15.3  T
   7    -56.0976115 -0.629551E-08  0.678E-04    1.89      23.3  T
   8    -56.0976115 -0.575176E-08  0.336E-04    1.89      47.1  T
     SCC iter.                  ...        0 min,  0.077 sec
     gradient                   ...        0 min,  0.006 sec
 * total energy  :   -55.2823301 Eh     change       -0.1166975E-03 Eh
   gradient norm :     0.0021556 Eh/α   predicted    -0.4930918E-04 ( -57.75%)
   displ. norm   :     0.2105577 α      lambda       -0.8492096E-04
   maximum displ.:     0.1426780 α      in ANC's #3, #2, #4, ...

........................................................................
.............................. CYCLE   47 ..............................
........................................................................
   1    -56.0976109 -0.560976E+02  0.227E-02    1.89       0.0  T
   2    -56.0976090  0.189434E-05  0.154E-02    1.89       1.0  T
   3    -56.0976070  0.201608E-05  0.164E-02    1.89       1.0  T
   4    -56.0976127 -0.571063E-05  0.226E-03    1.89       7.0  T
   5    -56.0976129 -0.170282E-06  0.890E-04    1.89      17.8  T
   6    -56.0976129 -0.496486E-08  0.671E-04    1.89      23.6  T
     SCC iter.                  ...        0 min,  0.044 sec
     gradient                   ...        0 min,  0.005 sec
 * total energy  :   -55.2824090 Eh     change       -0.7888465E-04 Eh
   gradient norm :     0.0021211 Eh/α   predicted    -0.4434321E-04 ( -43.79%)
   displ. norm   :     0.2695116 α      lambda       -0.1172351E-03
   maximum displ.:     0.1790795 α      in ANC's #3, #2, #4, ...

........................................................................
.............................. CYCLE   48 ..............................
........................................................................
   1    -56.0975040 -0.560975E+02  0.300E-02    1.89       0.0  T
   2    -56.0974998  0.421650E-05  0.207E-02    1.89       1.0  T
   3    -56.0974969  0.294315E-05  0.217E-02    1.89       1.0  T
   4    -56.0975071 -0.102178E-04  0.247E-03    1.89       6.4  T
   5    -56.0975073 -0.185297E-06  0.118E-03    1.89      13.4  T
   6    -56.0975073 -0.688365E-08  0.790E-04    1.89      20.0  T
   7    -56.0975073 -0.554105E-08  0.422E-04    1.89      37.5  T
     SCC iter.                  ...        0 min,  0.041 sec
     gradient                   ...        0 min,  0.005 sec
 * total energy  :   -55.2825171 Eh     change       -0.1080997E-03 Eh
   gradient norm :     0.0016852 Eh/α   predicted    -0.6287653E-04 ( -41.83%)
   displ. norm   :     0.5416179 α      lambda       -0.1540395E-03
   maximum displ.:     0.3564889 α      in ANC's #3, #2, #4, ...

........................................................................
.............................. CYCLE   49 ..............................
........................................................................
   1    -56.0969602 -0.560970E+02  0.651E-02    1.89       0.0  T
   2    -56.0969418  0.183996E-04  0.444E-02    1.89       1.0  T
   3    -56.0969229  0.188925E-04  0.473E-02    1.90       1.0  T
   4    -56.0969730 -0.501401E-04  0.524E-03    1.89       3.0  T
   5    -56.0969738 -0.776106E-06  0.251E-03    1.89       6.3  T
   6    -56.0969738 -0.161443E-07  0.185E-03    1.89       8.5  T
   7    -56.0969739 -0.522395E-07  0.760E-04    1.89      20.8  T
   8    -56.0969739 -0.643123E-08  0.441E-04    1.89      35.9  T
     SCC iter.                  ...        0 min,  0.046 sec
     gradient                   ...        0 min,  0.004 sec
 * total energy  :   -55.2826927 Eh     change       -0.1756309E-03 Eh
   gradient norm :     0.0012827 Eh/α   predicted    -0.8706369E-04 ( -50.43%)
   displ. norm   :     0.3316044 α      lambda       -0.6265638E-04
   maximum displ.:     0.2171938 α      in ANC's #3, #2, #4, ...

........................................................................
.............................. CYCLE   50 ..............................
........................................................................
   1    -56.0973674 -0.560974E+02  0.405E-02    1.90       0.0  T
   2    -56.0973644  0.300878E-05  0.253E-02    1.90       1.0  T
   3    -56.0973468  0.175447E-04  0.304E-02    1.90       1.0  T
   4    -56.0973704 -0.235824E-04  0.369E-03    1.90       4.3  T
   5    -56.0973708 -0.378861E-06  0.175E-03    1.90       9.0  T
   6    -56.0973708 -0.104453E-07  0.135E-03    1.90      11.7  T
   7    -56.0973708 -0.263944E-07  0.511E-04    1.90      30.9  T
   8    -56.0973708 -0.319840E-08  0.290E-04    1.90      54.5  T
     SCC iter.                  ...        0 min,  0.046 sec
     gradient                   ...        0 min,  0.005 sec
 * total energy  :   -55.2827518 Eh     change       -0.5907253E-04 Eh
   gradient norm :     0.0012160 Eh/α   predicted    -0.3287158E-04 ( -44.35%)
   displ. norm   :     0.0962362 α      lambda       -0.1996516E-04
   maximum displ.:     0.0638575 α      in ANC's #2, #3, #11, ...

........................................................................
.............................. CYCLE   51 ..............................
........................................................................
   1    -56.0979897 -0.560980E+02  0.153E-02    1.90       0.0  T
   2    -56.0979898 -0.778997E-07  0.896E-03    1.90       1.8  T
   3    -56.0979890  0.777334E-06  0.505E-03    1.90       3.1  T
   4    -56.0979898 -0.782994E-06  0.144E-03    1.90      10.9  T
   5    -56.0979898 -0.614144E-07  0.457E-04    1.90      34.6  T
   6    -56.0979898 -0.114023E-08  0.344E-04    1.90      45.9  T
     SCC iter.                  ...        0 min,  0.035 sec
     gradient                   ...        0 min,  0.005 sec
 * total energy  :   -55.2827769 Eh     change       -0.2512448E-04 Eh
   gradient norm :     0.0010684 Eh/α   predicted    -0.1002628E-04 ( -60.09%)
   displ. norm   :     0.1619615 α      lambda       -0.4219443E-04
   maximum displ.:     0.0897755 α      in ANC's #2, #11, #9, ...

........................................................................
.............................. CYCLE   52 ..............................
........................................................................
   1    -56.0987000 -0.560987E+02  0.313E-02    1.91       0.0  T
   2    -56.0986993  0.655890E-06  0.197E-02    1.91       1.0  T
   3    -56.0986864  0.129420E-04  0.226E-02    1.91       1.0  T
   4    -56.0987012 -0.148042E-04  0.186E-03    1.91       8.5  T
   5    -56.0987013 -0.104683E-06  0.680E-04    1.91      23.3  T
   6    -56.0987013 -0.753734E-08  0.383E-04    1.91      41.3  T
     SCC iter.                  ...        0 min,  0.035 sec
     gradient                   ...        0 min,  0.004 sec
 * total energy  :   -55.2828235 Eh     change       -0.4660389E-04 Eh
   gradient norm :     0.0013462 Eh/α   predicted    -0.2134382E-04 ( -54.20%)
   displ. norm   :     0.1666192 α      lambda       -0.2908363E-04
   maximum displ.:     0.1063615 α      in ANC's #2, #11, #9, ...

........................................................................
.............................. CYCLE   53 ..............................
........................................................................
   1    -56.0981444 -0.560981E+02  0.262E-02    1.92       0.0  T
   2    -56.0981446 -0.234933E-06  0.154E-02    1.92       1.0  T
   3    -56.0981446  0.587576E-07  0.193E-03    1.92       8.2  T
   4    -56.0981447 -0.113032E-06  0.679E-04    1.92      23.3  T
   5    -56.0981447 -0.380982E-08  0.455E-04    1.92      34.8  T
     SCC iter.                  ...        0 min,  0.029 sec
     gradient                   ...        0 min,  0.005 sec
 * total energy  :   -55.2828537 Eh     change       -0.3021022E-04 Eh
   gradient norm :     0.0013372 Eh/α   predicted    -0.1472171E-04 ( -51.27%)
   displ. norm   :     0.1106796 α      lambda       -0.1731045E-04
   maximum displ.:     0.0792681 α      in ANC's #2, #11, #1, ...

........................................................................
.............................. CYCLE   54 ..............................
........................................................................
   1    -56.0980172 -0.560980E+02  0.140E-02    1.92       0.0  T
   2    -56.0980172  0.473812E-07  0.843E-03    1.92       1.9  T
   3    -56.0980150  0.223003E-05  0.887E-03    1.92       1.8  T
   4    -56.0980174 -0.240373E-05  0.827E-04    1.92      19.1  T
   5    -56.0980174 -0.159761E-07  0.379E-04    1.92      41.7  T
   6    -56.0980174 -0.659057E-09  0.242E-04    1.92      65.4  T
     SCC iter.                  ...        0 min,  0.035 sec
     gradient                   ...        0 min,  0.005 sec
 * total energy  :   -55.2828751 Eh     change       -0.2139106E-04 Eh
   gradient norm :     0.0009353 Eh/α   predicted    -0.8702717E-05 ( -59.32%)
   displ. norm   :     0.1049503 α      lambda       -0.1921600E-04
   maximum displ.:     0.0793407 α      in ANC's #2, #1, #12, ...

........................................................................
.............................. CYCLE   55 ..............................
........................................................................
   1    -56.0979098 -0.560979E+02  0.148E-02    1.92       0.0  T
   2    -56.0979090  0.844169E-06  0.108E-02    1.91       1.5  T
   3    -56.0979082  0.737295E-06  0.100E-02    1.92       1.6  T
   4    -56.0979105 -0.228255E-05  0.124E-03    1.92      12.8  T
   5    -56.0979106 -0.420617E-07  0.488E-04    1.92      32.4  T
   6    -56.0979106 -0.325385E-08  0.309E-04    1.92      51.2  T
     SCC iter.                  ...        0 min,  0.035 sec
     gradient                   ...        0 min,  0.005 sec
 * total energy  :   -55.2828989 Eh     change       -0.2382397E-04 Eh
   gradient norm :     0.0005765 Eh/α   predicted    -0.9655662E-05 ( -59.47%)
   displ. norm   :     0.1129956 α      lambda       -0.1754159E-04
   maximum displ.:     0.0872533 α      in ANC's #2, #1, #3, ...

........................................................................
.............................. CYCLE   56 ..............................
........................................................................
   1    -56.0977393 -0.560977E+02  0.167E-02    1.91       0.0  T
   2    -56.0977390  0.323190E-06  0.111E-02    1.91       1.4  T
   3    -56.0977360  0.296523E-05  0.119E-02    1.91       1.3  T
   4    -56.0977399 -0.386302E-05  0.150E-03    1.91      10.5  T
   5    -56.0977400 -0.628537E-07  0.573E-04    1.91      27.6  T
   6    -56.0977400 -0.464385E-08  0.369E-04    1.91      42.8  T
     SCC iter.                  ...        0 min,  0.035 sec
     gradient                   ...        0 min,  0.005 sec
 * total energy  :   -55.2829208 Eh     change       -0.2184508E-04 Eh
   gradient norm :     0.0006767 Eh/α   predicted    -0.8824213E-05 ( -59.61%)
   displ. norm   :     0.1055906 α      lambda       -0.1405372E-04
   maximum displ.:     0.0825656 α      in ANC's #2, #1, #3, ...

........................................................................
.............................. CYCLE   57 ..............................
........................................................................
   1    -56.0977159 -0.560977E+02  0.143E-02    1.90       0.0  T
   2    -56.0977160 -0.619734E-07  0.899E-03    1.90       1.8  T
   3    -56.0977137  0.230768E-05  0.914E-03    1.90       1.7  T
   4    -56.0977162 -0.252865E-05  0.155E-03    1.90      10.2  T
   5    -56.0977163 -0.681633E-07  0.521E-04    1.90      30.4  T
   6    -56.0977163 -0.385986E-08  0.337E-04    1.90      47.0  T
     SCC iter.                  ...        0 min,  0.035 sec
     gradient                   ...        0 min,  0.004 sec
 * total energy  :   -55.2829396 Eh     change       -0.1882942E-04 Eh
   gradient norm :     0.0007562 Eh/α   predicted    -0.7063753E-05 ( -62.49%)
   displ. norm   :     0.1017529 α      lambda       -0.1377793E-04
   maximum displ.:     0.0785497 α      in ANC's #2, #1, #3, ...

........................................................................
.............................. CYCLE   58 ..............................
........................................................................
   1    -56.0977638 -0.560978E+02  0.116E-02    1.90       0.0  T
   2    -56.0977639 -0.120516E-06  0.691E-03    1.90       2.3  T
   3    -56.0977637  0.198182E-06  0.265E-03    1.90       6.0  T
   4    -56.0977639 -0.187890E-06  0.139E-03    1.90      11.4  T
   5    -56.0977639 -0.508871E-07  0.454E-04    1.90      34.9  T
   6    -56.0977639 -0.240557E-08  0.307E-04    1.90      51.4  T
     SCC iter.                  ...        0 min,  0.035 sec
     gradient                   ...        0 min,  0.005 sec
 * total energy  :   -55.2829588 Eh     change       -0.1923466E-04 Eh
   gradient norm :     0.0006772 Eh/α   predicted    -0.6923693E-05 ( -64.00%)
   displ. norm   :     0.1140993 α      lambda       -0.1603823E-04
   maximum displ.:     0.0868411 α      in ANC's #2, #1, #3, ...

........................................................................
.............................. CYCLE   59 ..............................
........................................................................
   1    -56.0978791 -0.560979E+02  0.112E-02    1.90       0.0  T
   2    -56.0978792 -0.532431E-07  0.647E-03    1.90       2.4  T
   3    -56.0978785  0.699508E-06  0.523E-03    1.90       3.0  T
   4    -56.0978792 -0.720366E-06  0.127E-03    1.90      12.4  T
   5    -56.0978792 -0.553773E-07  0.397E-04    1.90      39.8  T
   6    -56.0978792 -0.695302E-09  0.255E-04    1.90      62.0  T
     SCC iter.                  ...        0 min,  0.035 sec
     gradient                   ...        0 min,  0.005 sec
 * total energy  :   -55.2829813 Eh     change       -0.2244866E-04 Eh
   gradient norm :     0.0005590 Eh/α   predicted    -0.8065841E-05 ( -64.07%)
   displ. norm   :     0.1380548 α      lambda       -0.1897045E-04
   maximum displ.:     0.1037413 α      in ANC's #2, #1, #3, ...

........................................................................
.............................. CYCLE   60 ..............................
........................................................................
   1    -56.0980049 -0.560980E+02  0.122E-02    1.90       0.0  T
   2    -56.0980050 -0.570721E-07  0.703E-03    1.90       2.2  T
   3    -56.0980043  0.630394E-06  0.498E-03    1.90       3.2  T
   4    -56.0980050 -0.644500E-06  0.134E-03    1.90      11.8  T
   5    -56.0980050 -0.588597E-07  0.449E-04    1.90      35.2  T
   6    -56.0980050 -0.109466E-08  0.223E-04    1.90      70.8  T
     SCC iter.                  ...        0 min,  0.036 sec
     gradient                   ...        0 min,  0.005 sec
[...]
H28-C4-C3-C2=302.53           H28-C4-C3-H25= 65.94          H28-C4-C3-H26=182.11          N6-C5-C4-C3= 64.61            
N6-C5-C4-H27=186.01           N6-C5-C4-H28=303.18           H29-C5-C4-C3=304.46           H29-C5-C4-H27= 65.86          
H29-C5-C4-H28=183.03          H30-C5-C4-C3=186.28           H30-C5-C4-H27=307.67          H30-C5-C4-H28= 64.84          
C7-N6-C5-C4=232.17            C7-N6-C5-H29=353.44           C7-N6-C5-H30=110.47           C13-N6-C5-C4= 91.16           
C13-N6-C5-H29=212.43          C13-N6-C5-H30=329.46          C8-C7-N6-C5=194.35            C8-C7-N6-C13=339.10           
C12-C7-N6-C5= 69.13           C12-C7-N6-C13=213.88          H31-C7-N6-C5=309.83           H31-C7-N6-C13= 94.57          
C9-C8-C7-N6=261.18            C9-C8-C7-C12= 23.60           C9-C8-C7-H31=144.30           C14-C8-C7-N6= 19.45           
C14-C8-C7-C12=141.87          C14-C8-C7-H31=262.57          H32-C8-C7-N6=142.60           H32-C8-C7-C12=265.02          
H32-C8-C7-H31= 25.72          C10-C9-C8-C7=291.15           C10-C9-C8-C14=184.15          C10-C9-C8-H32= 46.54          
H33-C9-C8-C7= 65.26           H33-C9-C8-C14=318.25          H33-C9-C8-H32=180.65          C11-C10-C9-C8= 84.63          
C11-C10-C9-H33=312.50         H34-C10-C9-C8=306.82          H34-C10-C9-H33=174.69         

 CMA Distance (Angstroems)
 ---------------------------
R(CMA):  5.3240
           -------------------------------------------------
          |                Final Singlepoint                |
           -------------------------------------------------

          ...................................................
          :                      SETUP                      :
          :.................................................:
          :  # basis functions                 103          :
          :  # atomic orbitals                 102          :
          :  # shells                           60          :
          :  # electrons                       102          :
          :  max. iterations                   250          :
          :  Hamiltonian                  GFN2-xTB          :
          :  restarted?                      false          :
          :  GBSA solvation                   true          :
          :  PC potential                    false          :
          :  electronic temp.          300.0000000     K    :
          :  accuracy                    1.0000000          :
          :  -> integral cutoff          0.2500000E+02      :
          :  -> integral neglect         0.1000000E-07      :
          :  -> SCF convergence          0.1000000E-05 Eh   :
          :  -> wf. convergence          0.1000000E-03 e    :
          :  Broyden damping             0.4000000          :
          ...................................................

 iter      E             dE          RMSdq      gap      omega  full diag
   1    -56.1021087 -0.561021E+02  0.174E-04    1.93       0.0  T
   2    -56.1021087 -0.844551E-10  0.149E-04    1.93     106.1  T
   3    -56.1021087 -0.623217E-10  0.130E-04    1.93     121.5  T

   *** convergence criteria satisfied after 3 iterations ***

         #    Occupation            Energy/Eh            Energy/eV
      -------------------------------------------------------------
         1        2.0000           -0.9973780             -27.1400
       ...           ...                  ...                  ...
        45        2.0000           -0.4027126             -10.9584
        46        2.0000           -0.3996508             -10.8751
        47        2.0000           -0.3995632             -10.8727
        48        2.0000           -0.3980990             -10.8328
        49        2.0000           -0.3901533             -10.6166
        50        2.0000           -0.3436011              -9.3499
        51        2.0000           -0.3335437              -9.0762 (HOMO)
        52                         -0.2624992              -7.1430 (LUMO)
        53                         -0.2116840              -5.7602
        54                         -0.2057107              -5.5977
        55                         -0.2014273              -5.4811
        56                         -0.0813311              -2.2131
       ...                                ...                  ...
       102                          0.6997504              19.0412
      -------------------------------------------------------------
                  HL-Gap            0.0710445 Eh            1.9332 eV
             Fermi-level           -0.2980215 Eh           -8.1096 eV

 SCC (total)                   0 d,  0 h,  0 min,  0.028 sec
 SCC setup                      ...        0 min,  0.000 sec (  1.247%)
 Dispersion                     ...        0 min,  0.001 sec (  2.266%)
 classical contributions        ...        0 min,  0.000 sec (  0.180%)
 integral evaluation            ...        0 min,  0.002 sec (  6.841%)
 iterations                     ...        0 min,  0.019 sec ( 67.972%)
 molecular gradient             ...        0 min,  0.005 sec ( 18.076%)
 printout                       ...        0 min,  0.001 sec (  2.464%)

         :::::::::::::::::::::::::::::::::::::::::::::::::::::
         ::                     SUMMARY                     ::
         :::::::::::::::::::::::::::::::::::::::::::::::::::::
         :: total energy             -55.286209859445 Eh    ::
         :: total w/o Gsasa/hb       -55.274223760959 Eh    ::
         :: gradient norm              0.000206279527 Eh/a0 ::
         :: HOMO-LUMO gap              1.933220433792 eV    ::
         ::.................................................::
         :: SCC energy               -56.102108703676 Eh    ::
         :: -> isotropic ES            0.240978342293 Eh    ::
         :: -> anisotropic ES         -0.025042010730 Eh    ::
         :: -> anisotropic XC          0.033406314709 Eh    ::
         :: -> dispersion             -0.042228219489 Eh    ::
         :: -> Gsolv                  -0.179576592012 Eh    ::
         ::    -> Gelec               -0.167590493526 Eh    ::
         ::    -> Gsasa               -0.002480448434 Eh    ::
         ::    -> Ghb                 -0.010586409750 Eh    ::
         ::    -> Gshift               0.001080759698 Eh    ::
         :: repulsion energy           0.814931209512 Eh    ::
         :: add. restraining           0.000000000000 Eh    ::
         :: total charge               0.000000000000 e     ::
         :::::::::::::::::::::::::::::::::::::::::::::::::::::

           -------------------------------------------------
          |                Property Printout                |
           -------------------------------------------------

    * Orbital Energies and Occupations

         #    Occupation            Energy/Eh            Energy/eV
      -------------------------------------------------------------
         1        2.0000           -0.9973780             -27.1400
       ...           ...                  ...                  ...
        39        2.0000           -0.4374219             -11.9029
        40        2.0000           -0.4344003             -11.8206
        41        2.0000           -0.4321282             -11.7588
        42        2.0000           -0.4250356             -11.5658
        43        2.0000           -0.4137574             -11.2589
        44        2.0000           -0.4113689             -11.1939
        45        2.0000           -0.4027126             -10.9584
        46        2.0000           -0.3996508             -10.8751
        47        2.0000           -0.3995632             -10.8727
        48        2.0000           -0.3980990             -10.8328
        49        2.0000           -0.3901533             -10.6166
        50        2.0000           -0.3436011              -9.3499
        51        2.0000           -0.3335437              -9.0762 (HOMO)
        52                         -0.2624992              -7.1430 (LUMO)
        53                         -0.2116840              -5.7602
        54                         -0.2057107              -5.5977
        55                         -0.2014273              -5.4811
        56                         -0.0813311              -2.2131
        57                         -0.0438543              -1.1933
        58                          0.0040367               0.1098
        59                          0.0171628               0.4670
        60                          0.0542314               1.4757
        61                          0.0586774               1.5967
        62                          0.0780004               2.1225
       ...                                ...                  ...
       102                          0.6997504              19.0412
      -------------------------------------------------------------
                  HL-Gap            0.0710445 Eh            1.9332 eV
             Fermi-level           -0.2980215 Eh           -8.1096 eV

     #   Z          covCN         q      C6AA      α(0)
     1   7 N        3.485    -0.157    24.381     7.334
     2   6 C        3.731    -0.041    21.393     6.602
     3   6 C        3.803    -0.083    22.076     6.689
     4   6 C        3.803    -0.082    22.055     6.686
     5   6 C        3.743     0.002    20.619     6.478
     6   7 N        2.760    -0.121    23.622     7.218
     7   6 C        3.885     0.054    19.625     6.298
     8   6 C        3.895     0.001    20.502     6.437
     9   6 C        3.009    -0.055    29.339     8.885
    10   6 C        2.960    -0.067    29.673     8.935
    11   6 C        2.946    -0.025    28.629     8.776
    12   6 C        2.947    -0.045    29.115     8.850
    13   6 C        2.982     0.059    26.662     8.470
    14   6 C        3.013    -0.021    28.500     8.757
    15   6 C        2.916    -0.039    28.980     8.828
    16   6 C        2.920    -0.053    29.327     8.881
    17   6 C        2.922    -0.043    29.066     8.841
    18   6 C        2.915    -0.070    29.748     8.944
    19  17 Cl       0.000    -0.997   126.898    17.144
    20   1 H        0.859     0.320     0.657     1.270
    21   1 H        0.859     0.306     0.696     1.307
    22   1 H        0.859     0.300     0.712     1.322
    23   1 H        0.925     0.115     1.658     2.014
    24   1 H        0.925     0.115     1.657     2.013
    25   1 H        0.924     0.069     2.100     2.266
    26   1 H        0.925     0.063     2.164     2.300
    27   1 H        0.924     0.063     2.168     2.303
    28   1 H        0.925     0.069     2.101     2.267
    29   1 H        0.924     0.036     2.497     2.471
    30   1 H        0.923     0.030     2.584     2.514
    31   1 H        0.922     0.007     2.933     2.678
    32   1 H        0.924     0.014     2.821     2.627
    33   1 H        0.925     0.049     2.333     2.388
    34   1 H        0.925     0.000     3.054     2.733
    35   1 H        0.926     0.054     2.275     2.359
    36   1 H        0.925     0.057     2.234     2.337
    37   1 H        0.926     0.007     2.931     2.677
    38   1 H        0.926     0.020     2.730     2.584
    39   1 H        0.926     0.037     2.487     2.466
    40   1 H        0.926     0.050     2.322     2.383

 Mol. C6AA /au·bohr⁶  :      17529.924332
 Mol. C8AA /au·bohr⁸  :     435819.172642
 Mol. α(0) /au        :        206.331553


Wiberg/Mayer (AO) data.
largest (>0.10) Wiberg bond orders for each atom

 ---------------------------------------------------------------------------
     #   Z sym  total        # sym  WBO       # sym  WBO       # sym  WBO
 ---------------------------------------------------------------------------
     1   7 N    3.656 --     2 C    0.966    21 H    0.891    22 H    0.890
                            20 H    0.885
     2   6 C    3.927 --     3 C    1.013     1 N    0.966    23 H    0.966
                            24 H    0.964
     3   6 C    3.990 --     2 C    1.013     4 C    1.008    26 H    0.969
                            25 H    0.967
     4   6 C    3.989 --     3 C    1.008     5 C    0.995    27 H    0.974
                            28 H    0.967
     5   6 C    3.971 --     4 C    0.995     6 N    0.985    29 H    0.971
                            30 H    0.967
     6   7 N    3.351 --    13 C    1.136     5 C    0.985     7 C    0.975
     7   6 C    3.978 --    12 C    1.017     6 N    0.975    31 H    0.946
                             8 C    0.898
     8   6 C    3.989 --     9 C    1.027    14 C    1.005    32 H    0.961
                             7 C    0.898
     9   6 C    3.954 --    10 C    1.757     8 C    1.027    33 H    0.961
                            12 C    0.101
    10   6 C    3.940 --     9 C    1.757    11 C    1.098    34 H    0.946
    11   6 C    3.977 --    12 C    1.822    10 C    1.098    35 H    0.959
    12   6 C    3.982 --    11 C    1.822     7 C    1.017    36 H    0.955
                             9 C    0.101
    13   6 C    3.973 --    18 C    1.368    14 C    1.293     6 N    1.136
    14   6 C    3.985 --    15 C    1.465    13 C    1.293     8 C    1.005
                            17 C    0.102
    15   6 C    3.990 --    14 C    1.465    16 C    1.399    37 H    0.971
    16   6 C    3.986 --    17 C    1.451    15 C    1.399    38 H    0.972
    17   6 C    3.990 --    16 C    1.451    18 C    1.428    39 H    0.971
                            14 C    0.102
    18   6 C    3.980 --    17 C    1.428    13 C    1.368    40 H    0.964
    19  17 Cl   0.005
    20   1 H    0.898 --     1 N    0.885
    21   1 H    0.906 --     1 N    0.891
    22   1 H    0.910 --     1 N    0.890
    23   1 H    0.987 --     2 C    0.966
    24   1 H    0.987 --     2 C    0.964
    25   1 H    0.995 --     3 C    0.967
    26   1 H    0.996 --     3 C    0.969
    27   1 H    0.996 --     4 C    0.974
    28   1 H    0.995 --     4 C    0.967
    29   1 H    0.998 --     5 C    0.971
    30   1 H    0.999 --     5 C    0.967
    31   1 H    1.000 --     7 C    0.946
    32   1 H    0.999 --     8 C    0.961
    33   1 H    0.998 --     9 C    0.961
    34   1 H    1.000 --    10 C    0.946
    35   1 H    0.996 --    11 C    0.959
    36   1 H    0.996 --    12 C    0.955
    37   1 H    0.999 --    15 C    0.971
    38   1 H    0.999 --    16 C    0.972
    39   1 H    0.998 --    17 C    0.971
    40   1 H    0.997 --    18 C    0.964
 ---------------------------------------------------------------------------

Topologies differ in total number of bonds
Writing topology from bond orders to xtbtopo.mol

molecular dipole:
                 x           y           z       tot (Debye)
 q only:        8.258      16.080      -0.167
   full:        7.880      15.174      -0.323      43.466
molecular quadrupole (traceless):
                xx          xy          yy          xz          yz          zz
 q only:      314.818     554.511     -96.836       3.971      19.720    -217.983
  q+dip:      301.799     526.443     -92.876      -1.273      15.513    -208.923
   full:      300.852     526.113     -90.942      -1.446      17.131    -209.910

           -------------------------------------------------
          |                Geometry Summary                 |
           -------------------------------------------------

      molecular mass/u    :      276.8048741
   center of mass at/Å    :       10.6343516       1.5549470       0.0253613
  moments of inertia/u·Å² :        0.1346428E+04   0.2065892E+04   0.2693959E+04
rotational constants/cm⁻¹ :        0.1252027E-01   0.8159979E-02   0.6257569E-02

 * 38 selected distances

     #   Z          #   Z                                           value/Å
     1   7 N        2   6 C                                       1.4836770
     2   6 C        3   6 C                                       1.5240092
     3   6 C        4   6 C                                       1.5287077
     4   6 C        5   6 C                                       1.5331478 (max)
     5   6 C        6   7 N                                       1.4504868
     6   7 N        7   6 C                                       1.4631155
     8   6 C        9   6 C                                       1.4804195
     9   6 C       10   6 C                                       1.3718763
    11   6 C       12   6 C                                       1.3473718
     6   7 N       13   6 C                                       1.3807080
     8   6 C       14   6 C                                       1.4909419
    13   6 C       14   6 C                                       1.4013619
    14   6 C       15   6 C                                       1.3742120
    15   6 C       16   6 C                                       1.3920008
    16   6 C       17   6 C                                       1.3832603
    13   6 C       18   6 C                                       1.3878056
    17   6 C       18   6 C                                       1.3881153
     1   7 N       20   1 H                                       1.0259778 (min)
     1   7 N       21   1 H                                       1.0266022
     1   7 N       22   1 H                                       1.0260731
     2   6 C       23   1 H                                       1.0892644
     2   6 C       24   1 H                                       1.0897920
     3   6 C       25   1 H                                       1.0910176
     3   6 C       26   1 H                                       1.0897193
     4   6 C       27   1 H                                       1.0905032
     4   6 C       28   1 H                                       1.0891750
     5   6 C       29   1 H                                       1.0919201
     5   6 C       30   1 H                                       1.0979978
     7   6 C       31   1 H                                       1.1069967
     8   6 C       32   1 H                                       1.0914146
     9   6 C       33   1 H                                       1.0872933
    10   6 C       34   1 H                                       1.0856435
    11   6 C       35   1 H                                       1.0802859
    12   6 C       36   1 H                                       1.0821962
    15   6 C       37   1 H                                       1.0810107
    16   6 C       38   1 H                                       1.0796507
    17   6 C       39   1 H                                       1.0800075
    18   6 C       40   1 H                                       1.0777502

 * 4 distinct bonds (by element types)

   Z      Z             #   av. dist./Å        max./Å        min./Å
   1 H    6 C          18     1.0878688     1.1069967     1.0777502
   6 C    6 C          13     1.4310177     1.5331478     1.3473718
   1 H    7 N           3     1.0262177     1.0266022     1.0259778
   6 C    7 N           4     1.4444968     1.4836770     1.3807080


optimized geometry written to: xtbopt.xyz


           -------------------------------------------------
          | TOTAL ENERGY              -55.286209859445 Eh   |
          | GRADIENT NORM               0.000206279527 Eh/α |
          | HOMO-LUMO GAP               1.933220433792 eV   |
           -------------------------------------------------

------------------------------------------------------------------------
 * finished run on 2023/01/24 at 14:58:00.595     
------------------------------------------------------------------------
 total:
 * wall-time:     0 d,  0 h,  0 min,  6.272 sec
 *  cpu-time:     0 d,  0 h, 12 min, 27.647 sec
 * ratio c/w:   119.209 speedup
 SCF:
 * wall-time:     0 d,  0 h,  0 min,  0.108 sec
 *  cpu-time:     0 d,  0 h,  0 min, 15.321 sec
 * ratio c/w:   142.174 speedup
 ANC optimizer:
 * wall-time:     0 d,  0 h,  0 min,  6.143 sec
 *  cpu-time:     0 d,  0 h, 12 min,  9.479 sec
 * ratio c/w:   118.756 speedup

