      -----------------------------------------------------------      
     |                   =====================                   |     
     |                           x T B                           |     
     |                   =====================                   |     
     |                         S. Grimme                         |     
     |          Mulliken Center for Theoretical Chemistry        |     
     |                    University of Bonn                     |     
      -----------------------------------------------------------      

   * xtb version 6.5.1 (fef0646) compiled by 'conda@b96dff2e9fd6' on 2023-01-04

   xtb is free software: you can redistribute it and/or modify it under
   the terms of the GNU Lesser General Public License as published by
   the Free Software Foundation, either version 3 of the License, or
   (at your option) any later version.
   
   xtb is distributed in the hope that it will be useful,
   but WITHOUT ANY WARRANTY; without even the implied warranty of
   MERCHANTABILITY or FITNESS FOR A PARTICULAR PURPOSE.  See the
   GNU Lesser General Public License for more details.
   
   Cite this work as:
   * C. Bannwarth, E. Caldeweyher, S. Ehlert, A. Hansen, P. Pracht,
     J. Seibert, S. Spicher, S. Grimme, WIREs Comput. Mol. Sci., 2020, 11,
     e01493. DOI: 10.1002/wcms.1493
   
   for GFN2-xTB:
   * C. Bannwarth, S. Ehlert and S. Grimme., J. Chem. Theory Comput., 2019,
     15, 1652-1671. DOI: 10.1021/acs.jctc.8b01176
   for GFN1-xTB:
   * S. Grimme, C. Bannwarth, P. Shushkov, J. Chem. Theory Comput., 2017,
     13, 1989-2009. DOI: 10.1021/acs.jctc.7b00118
   for GFN0-xTB:
   * P. Pracht, E. Caldeweyher, S. Ehlert, S. Grimme, ChemRxiv, 2019, preprint.
     DOI: 10.26434/chemrxiv.8326202.v1
   for GFN-FF:
   * S. Spicher and S. Grimme, Angew. Chem. Int. Ed., 2020, 59, 15665-15673.
     DOI: 10.1002/anie.202004239
   
   for ALPB and GBSA implicit solvation:
   * S. Ehlert, M. Stahn, S. Spicher, S. Grimme, J. Chem. Theory Comput.,
     2021, 17, 4250-4261. DOI: 10.1021/acs.jctc.1c00471
   
   for DFT-D4:
   * E. Caldeweyher, C. Bannwarth and S. Grimme, J. Chem. Phys., 2017,
     147, 034112. DOI: 10.1063/1.4993215
   * E. Caldeweyher, S. Ehlert, A. Hansen, H. Neugebauer, S. Spicher,
     C. Bannwarth and S. Grimme, J. Chem. Phys., 2019, 150, 154122.
     DOI: 10.1063/1.5090222
   * E. Caldeweyher, J.-M. Mewes, S. Ehlert and S. Grimme, Phys. Chem. Chem. Phys.
     2020, 22, 8499-8512. DOI: 10.1039/D0CP00502A
   
   for sTDA-xTB:
   * S. Grimme and C. Bannwarth, J. Chem. Phys., 2016, 145, 054103.
     DOI: 10.1063/1.4959605
   
   in the mass-spec context:
   * V. Asgeirsson, C. Bauer and S. Grimme, Chem. Sci., 2017, 8, 4879.
     DOI: 10.1039/c7sc00601b
   * J. Koopman and S. Grimme, ACS Omega 2019, 4, 12, 15120-15133.
     DOI: 10.1021/acsomega.9b02011
   
   for metadynamics refer to:
   * S. Grimme, J. Chem. Theory Comput., 2019, 155, 2847-2862
     DOI: 10.1021/acs.jctc.9b00143
   
   for SPH calculations refer to:
   * S. Spicher and S. Grimme, J. Chem. Theory Comput., 2021, 17, 1701-1714
     DOI: 10.1021/acs.jctc.0c01306
   
   with help from (in alphabetical order)
   P. Atkinson, C. Bannwarth, F. Bohle, G. Brandenburg, E. Caldeweyher
   M. Checinski, S. Dohm, S. Ehlert, S. Ehrlich, I. Gerasimov, C. Hölzer
   A. Katbashev, J. Koopman, C. Lavigne, S. Lehtola, F. März, M. Müller,
   F. Musil, H. Neugebauer, J. Pisarek, C. Plett, P. Pracht, F. Pultar,
   J. Seibert, P. Shushkov, S. Spicher, M. Stahn, M. Steiner, T. Strunk,
   J. Stückrath, T. Rose, and J. Unsleber
   
 * started run on 2023/01/23 at 20:35:27.641     

           -------------------------------------------------
          |                Calculation Setup                |
           -------------------------------------------------

          program call               : xtb init.xyz --opt -c 1 -u 0 -P 16 --input xtb.inp
          hostname                   : gpg-woodward
          coordinate file            : init.xyz
          omp threads                :                    16

   ID    Z sym.   atoms
    1    7 N      1
    2    6 C      2-13
    3    1 H      14-41

           -------------------------------------------------
          |                 G F N 2 - x T B                 |
           -------------------------------------------------

        Reference                      10.1021/acs.jctc.8b01176
      * Hamiltonian:
        H0-scaling (s, p, d)           1.850000    2.230000    2.230000
        zeta-weighting                 0.500000
      * Dispersion:
        s8                             2.700000
        a1                             0.520000
        a2                             5.000000
        s9                             5.000000
      * Repulsion:
        kExp                           1.500000    1.000000
        rExp                           1.000000
      * Coulomb:
        alpha                          2.000000
        third order                    shell-resolved
        anisotropic                    true
        a3                             3.000000
        a5                             4.000000
        cn-shift                       1.200000
        cn-exp                         4.000000
        max-rad                        5.000000


          ...................................................
          :                      SETUP                      :
          :.................................................:
          :  # basis functions                  80          :
          :  # atomic orbitals                  80          :
          :  # shells                           54          :
          :  # electrons                        80          :
          :  max. iterations                   250          :
          :  Hamiltonian                  GFN2-xTB          :
          :  restarted?                      false          :
          :  GBSA solvation                  false          :
          :  PC potential                    false          :
          :  electronic temp.          300.0000000     K    :
          :  accuracy                    1.0000000          :
          :  -> integral cutoff          0.2500000E+02      :
          :  -> integral neglect         0.1000000E-07      :
          :  -> SCF convergence          0.1000000E-05 Eh   :
          :  -> wf. convergence          0.1000000E-03 e    :
          :  Broyden damping             0.4000000          :
          ...................................................

 iter      E             dE          RMSdq      gap      omega  full diag
   1    -42.9332045 -0.429332E+02  0.293E+00   11.50       0.0  T
   2    -43.0885914 -0.155387E+00  0.161E+00    8.39       1.0  T
   3    -43.0929656 -0.437427E-02  0.946E-01    6.86       1.0  T
   4    -43.0938813 -0.915638E-03  0.131E-01    5.39       1.0  T
   5    -43.0938919 -0.106233E-04  0.514E-02    5.41       1.0  T
   6    -43.0938976 -0.566797E-05  0.665E-03    5.45       2.3  T
   7    -43.0938978 -0.231384E-06  0.314E-03    5.45       5.0  T
   8    -43.0938978 -0.205891E-07  0.620E-04    5.45      25.2  T
   9    -43.0938978 -0.167885E-08  0.248E-04    5.45      62.9  T

   *** convergence criteria satisfied after 9 iterations ***

         #    Occupation            Energy/Eh            Energy/eV
      -------------------------------------------------------------
         1        2.0000           -0.9005322             -24.5047
       ...           ...                  ...                  ...
        34        2.0000           -0.5020331             -13.6610
        35        2.0000           -0.4910283             -13.3616
        36        2.0000           -0.4865343             -13.2393
        37        2.0000           -0.4761936             -12.9579
        38        2.0000           -0.4730388             -12.8720
        39        2.0000           -0.4638969             -12.6233
        40        2.0000           -0.4620445             -12.5729 (HOMO)
        41                         -0.2617519              -7.1226 (LUMO)
        42                         -0.1450177              -3.9461
        43                         -0.1114750              -3.0334
        44                         -0.1090607              -2.9677
        45                         -0.0709755              -1.9313
       ...                                ...                  ...
        80                          0.2663688               7.2483
      -------------------------------------------------------------
                  HL-Gap            0.2002925 Eh            5.4502 eV
             Fermi-level           -0.3618982 Eh           -9.8478 eV

 SCC (total)                   0 d,  0 h,  0 min,  0.114 sec
 SCC setup                      ...        0 min,  0.001 sec (  0.771%)
 Dispersion                     ...        0 min,  0.002 sec (  1.605%)
 classical contributions        ...        0 min,  0.000 sec (  0.336%)
 integral evaluation            ...        0 min,  0.006 sec (  5.076%)
 iterations                     ...        0 min,  0.091 sec ( 79.830%)
 molecular gradient             ...        0 min,  0.013 sec ( 11.411%)
 printout                       ...        0 min,  0.001 sec (  0.810%)

         :::::::::::::::::::::::::::::::::::::::::::::::::::::
         ::                     SUMMARY                     ::
         :::::::::::::::::::::::::::::::::::::::::::::::::::::
         :: total energy             -42.482696466359 Eh    ::
         :: gradient norm              0.025948036192 Eh/a0 ::
         :: HOMO-LUMO gap              5.450237076381 eV    ::
         ::.................................................::
         :: SCC energy               -43.093897823990 Eh    ::
         :: -> isotropic ES            0.112990133822 Eh    ::
         :: -> anisotropic ES         -0.000241899984 Eh    ::
         :: -> anisotropic XC          0.028695496302 Eh    ::
         :: -> dispersion             -0.024825903884 Eh    ::
         :: repulsion energy           0.611516507731 Eh    ::
         :: add. restraining           0.000000000000 Eh    ::
         :: total charge               1.000000000000 e     ::
         :::::::::::::::::::::::::::::::::::::::::::::::::::::

      ----------------------------------------------------------- 
     |                   =====================                   |
     |                        A N C O P T                        |
     |                   =====================                   |
     |               Approximate Normal Coordinate               |
     |                Rational Function Optimizer                |
      ----------------------------------------------------------- 

          ...................................................
          :                      SETUP                      :
          :.................................................:
          :   optimization level            normal          :
          :   max. optcycles                   200          :
          :   ANC micro-cycles                  20          :
          :   degrees of freedom               117          :
          :.................................................:
          :   RF solver                   davidson          :
          :   write xtbopt.log                true          :
          :   linear?                        false          :
          :   energy convergence         0.5000000E-05 Eh   :
          :   grad. convergence          0.1000000E-02 Eh/α :
          :   maximium RF displ.         1.0000000          :
          :   Hlow (freq-cutoff)         0.1000000E-01      :
          :   Hmax (freq-cutoff)         5.0000000          :
          :   S6 in model hess.         20.0000000          :
          ...................................................

generating ANC from model Hessian ...
Using Lindh-Hessian (1995)
 Shifting diagonal of input Hessian by    9.8062434389748869E-003
 Lowest  eigenvalues of input Hessian
    0.000000    0.000000    0.000000    0.000000    0.000000    0.000000
    0.010000    0.010056    0.010712    0.011141    0.011168    0.012186
    0.012618    0.013280    0.013955    0.014048    0.015130    0.016095
 Highest eigenvalues
    1.262859    1.290191    1.309062    1.404109    1.407078    1.454324


........................................................................
.............................. CYCLE    1 ..............................
........................................................................
   1    -43.0938978 -0.430939E+02  0.988E-05    5.45       0.0  T
   2    -43.0938978 -0.211529E-10  0.607E-05    5.45     257.1  T
   3    -43.0938978 -0.202505E-11  0.181E-05    5.45     863.5  T
     SCC iter.                  ...        0 min,  0.023 sec
     gradient                   ...        0 min,  0.012 sec
 * total energy  :   -42.4826965 Eh     change       -0.1166356E-09 Eh
   gradient norm :     0.0259480 Eh/α   predicted     0.0000000E+00 (-100.00%)
   displ. norm   :     0.1872496 α      lambda       -0.2667096E-02
   maximum displ.:     0.1206722 α      in ANC's #8, #52, #46, ...

........................................................................
.............................. CYCLE    2 ..............................
........................................................................
   1    -43.1080851 -0.431081E+02  0.120E-01    5.32       0.0  T
   2    -43.1080927 -0.761383E-05  0.701E-02    5.33       1.0  T
   3    -43.1080936 -0.895457E-06  0.502E-03    5.34       3.1  T
   4    -43.1080937 -0.119787E-06  0.192E-03    5.34       8.1  T
   5    -43.1080937 -0.538166E-08  0.794E-04    5.34      19.7  T
   6    -43.1080937 -0.954309E-09  0.119E-04    5.34     131.0  T
     SCC iter.                  ...        0 min,  0.040 sec
     gradient                   ...        0 min,  0.013 sec
 * total energy  :   -42.4842416 Eh     change       -0.1545175E-02 Eh
   gradient norm :     0.0106791 Eh/α   predicted    -0.1380329E-02 ( -10.67%)
   displ. norm   :     0.0862542 α      lambda       -0.2533665E-03
   maximum displ.:     0.0752034 α      in ANC's #8, #9, #15, ...

........................................................................
.............................. CYCLE    3 ..............................
........................................................................
   1    -43.1099934 -0.431100E+02  0.248E-02    5.30       0.0  T
   2    -43.1099945 -0.109498E-05  0.145E-02    5.31       1.1  T
   3    -43.1099946 -0.850367E-07  0.225E-03    5.31       7.0  T
   4    -43.1099946 -0.109125E-07  0.650E-04    5.31      24.0  T
   5    -43.1099946 -0.812356E-09  0.261E-04    5.31      59.9  T
     SCC iter.                  ...        0 min,  0.032 sec
     gradient                   ...        0 min,  0.010 sec
 * total energy  :   -42.4844090 Eh     change       -0.1673914E-03 Eh
   gradient norm :     0.0044810 Eh/α   predicted    -0.1288190E-03 ( -23.04%)
   displ. norm   :     0.0668386 α      lambda       -0.7074542E-04
   maximum displ.:     0.0625575 α      in ANC's #8, #15, #9, ...

........................................................................
.............................. CYCLE    4 ..............................
........................................................................
   1    -43.1094482 -0.431094E+02  0.129E-02    5.29       0.0  T
   2    -43.1094484 -0.226363E-06  0.737E-03    5.30       2.1  T
   3    -43.1094484 -0.222995E-07  0.113E-03    5.30      13.8  T
   4    -43.1094484 -0.273874E-08  0.329E-04    5.30      47.4  T
   5    -43.1094484 -0.262588E-09  0.141E-04    5.30     111.1  T
     SCC iter.                  ...        0 min,  0.018 sec
     gradient                   ...        0 min,  0.009 sec
 * total energy  :   -42.4844516 Eh     change       -0.4261361E-04 Eh
   gradient norm :     0.0012262 Eh/α   predicted    -0.3557835E-04 ( -16.51%)
   displ. norm   :     0.0414889 α      lambda       -0.9648718E-05
   maximum displ.:     0.0400200 α      in ANC's #8, #15, #21, ...

........................................................................
.............................. CYCLE    5 ..............................
........................................................................
   1    -43.1084793 -0.431085E+02  0.840E-03    5.29       0.0  T
   2    -43.1084794 -0.849603E-07  0.467E-03    5.29       3.3  T
   3    -43.1084794 -0.345779E-08  0.826E-04    5.29      18.9  T
   4    -43.1084794 -0.163661E-08  0.164E-04    5.29      94.9  T
     SCC iter.                  ...        0 min,  0.015 sec
     gradient                   ...        0 min,  0.009 sec
 * total energy  :   -42.4844588 Eh     change       -0.7172012E-05 Eh
   gradient norm :     0.0008140 Eh/α   predicted    -0.4829830E-05 ( -32.66%)
   displ. norm   :     0.0086784 α      lambda       -0.1441385E-05
   maximum displ.:     0.0054598 α      in ANC's #8, #9, #55, ...

........................................................................
.............................. CYCLE    6 ..............................
........................................................................
   1    -43.1084194 -0.431084E+02  0.247E-03    5.29       0.0  T
   2    -43.1084195 -0.142440E-07  0.138E-03    5.29      11.3  T
   3    -43.1084195 -0.101545E-08  0.268E-04    5.29      58.2  T
   4    -43.1084195 -0.192614E-09  0.713E-05    5.29     218.9  T
     SCC iter.                  ...        0 min,  0.015 sec
     gradient                   ...        0 min,  0.009 sec
 * total energy  :   -42.4844602 Eh     change       -0.1344288E-05 Eh
   gradient norm :     0.0002074 Eh/α   predicted    -0.7219149E-06 ( -46.30%)
   displ. norm   :     0.0085417 α      lambda       -0.3594088E-06
   maximum displ.:     0.0053971 α      in ANC's #8, #9, #2, ...

   *** GEOMETRY OPTIMIZATION CONVERGED AFTER 6 ITERATIONS ***

------------------------------------------------------------------------
 total energy gain   :        -0.0017637 Eh       -1.1067 kcal/mol
 total RMSD          :         0.0549904 a0        0.0291 Å
 total power (kW/mol):        -0.7717639 (step)  -16.2668 (real)
------------------------------------------------------------------------

 ANCopt (total)                0 d,  0 h,  0 min,  0.285 sec
 optimizer setup                ...        0 min,  0.000 sec (  0.046%)
 model hessian                  ...        0 min,  0.029 sec ( 10.109%)
 ANC generation                 ...        0 min,  0.022 sec (  7.694%)
 coordinate transformation      ...        0 min,  0.002 sec (  0.732%)
 single point calculation       ...        0 min,  0.228 sec ( 80.170%)
 optimization log               ...        0 min,  0.001 sec (  0.477%)
 hessian update                 ...        0 min,  0.001 sec (  0.180%)
 rational function              ...        0 min,  0.001 sec (  0.281%)

================
 final structure:
================
41
 xtb: 6.5.1 (fef0646)
N            0.80342355565736        0.01241591047944        0.08880404908616
C            2.30290734738746        0.00059772312448        0.08399578996731
C            2.82410021706270       -1.08642876640426       -0.84303459679992
C            4.35550955721895       -1.10516084416029       -0.85601357277699
C            4.89412949129602       -2.19305945490777       -1.78359125613151
C            6.42088420214094       -2.21540426828023       -1.80242402427844
C            6.96054341940231       -3.30191489198431       -2.72956895415212
C            8.48684874347993       -3.32692846355284       -2.75175030350589
C            9.02663847221072       -4.41353371429212       -3.67832295517695
C           10.55290428412068       -4.44065539943962       -3.70178832912465
C           11.09152390343235       -5.52738163273967       -4.62878332871109
C           12.61773530570387       -5.55795665371689       -4.65505299977503
C           13.14577582610729       -6.64479347404868       -5.58307582492732
H            0.43260447122075        0.74170069234165        0.71064050572324
H            0.45170025718162       -0.90246968536709        0.40113932503184
H            0.45621807142443        0.17944505191064       -0.86505102461502
H            2.64920594630766       -0.17097460423699        1.10399309368532
H            2.65392747054094        0.98012101788615       -0.24322474259794
H            2.46671771578956       -0.91399158453010       -1.86024461302725
H            2.46394509223301       -2.06332950436540       -0.51424079919667
H            4.72616605188143       -1.27922703703474        0.15524976454478
H            4.72870362343921       -0.13449364872274       -1.18599641088458
H            4.52556714826747       -2.02247781458713       -2.79716014274749
H            4.52526895205123       -3.16688850645859       -1.45520146338342
H            6.79351217926702       -2.38748626784230       -0.79051210495323
H            6.79365290204500       -1.24319358200443       -2.13150001662417
H            6.58847742777006       -3.13114300498406       -3.74228547421107
H            6.58918952988456       -4.27525664045937       -2.40112110840327
H            8.86040204349075       -3.49787067776319       -1.73956661795704
H            8.85963980264514       -2.35436209255302       -3.08102570750011
H            8.65364461888093       -4.24286099202785       -4.69093434752619
H            8.65395337781044       -5.38649986280336       -3.34957809593654
H           10.92676478646515       -4.61179811775142       -2.68950917114411
H           10.92647630683699       -3.46798402850648       -4.03060957930674
H           10.71788359816518       -5.35605030458602       -5.64116314254400
H           10.71803881811284       -6.50011929763868       -4.29990114129685
H           12.99234336195082       -5.73074869589938       -3.64353212548802
H           12.99218824509022       -4.58597985308202       -4.98431517772385
H           12.79965224490330       -7.62414213293882       -5.25973110552715
H           14.23300286079980       -6.64964598883460       -5.58745111196407
H           12.79936877032395       -6.47904890723793       -6.60092115811997

 Bond Distances (Angstroems)
 ---------------------------
N1-C2=1.4995         N1-H14=1.0276        N1-H15=1.0287        N1-H16=1.0287        C2-N1=1.4995         C2-C3=1.5207         
C2-H17=1.0908        C2-H18=1.0908        C3-C2=1.5207         C3-C4=1.5316         C3-H19=1.0919        C3-H20=1.0919        
C4-C3=1.5316         C4-C5=1.5278         C4-H21=1.0910        C4-H22=1.0910        C5-C4=1.5278         C5-C6=1.5270         
C5-H23=1.0919        C5-H24=1.0919        C6-C5=1.5270         C6-C7=1.5269         C6-H25=1.0920        C6-H26=1.0920        
C7-C6=1.5269         C7-C8=1.5267         C7-H27=1.0923        C7-H28=1.0923        C8-C7=1.5267         C8-C9=1.5266         
C8-H29=1.0924        C8-H30=1.0924        C9-C8=1.5266         C9-C10=1.5267        C9-H31=1.0925        C9-H32=1.0925        
C10-C9=1.5267        C10-C11=1.5266       C10-H33=1.0926       C10-H34=1.0926       C11-C10=1.5266       C11-C12=1.5267       
C11-H35=1.0926       C11-H36=1.0926       C12-C11=1.5267       C12-C13=1.5236       C12-H37=1.0924       C12-H38=1.0924       
C13-C12=1.5236       C13-H39=1.0879       C13-H40=1.0872       C13-H41=1.0879       H14-N1=1.0276        H15-N1=1.0287        
H16-N1=1.0287        H17-C2=1.0908        H18-C2=1.0908        H19-C3=1.0919        H20-C3=1.0919        H21-C4=1.0910        
H22-C4=1.0910        H23-C5=1.0919        H24-C5=1.0919        H25-C6=1.0920        H26-C6=1.0920        H27-C7=1.0923        
H28-C7=1.0923        H29-C8=1.0924        H30-C8=1.0924        H31-C9=1.0925        H32-C9=1.0925        H33-C10=1.0926       
H34-C10=1.0926       H35-C11=1.0926       H36-C11=1.0926       H37-C12=1.0924       H38-C12=1.0924       H39-C13=1.0879       
H40-C13=1.0872       H41-C13=1.0879       
 C  H  Rav=1.0915 sigma=0.0015  Rmin=1.0872  Rmax=1.0926    25
 C  C  Rav=1.5264 sigma=0.0025  Rmin=1.5207  Rmax=1.5316    11
 N  H  Rav=1.0284 sigma=0.0005  Rmin=1.0276  Rmax=1.0287     3
 N  C  Rav=1.4995 sigma=0.0000  Rmin=1.4995  Rmax=1.4995     1

 selected bond angles (degree)
 --------------------
H14-N1-C2=111.61               H15-N1-C2=109.62               H15-N1-H14=108.91              H16-N1-C2=109.62               
H16-N1-H14=108.91              H16-N1-H15=108.09              C3-C2-N1=110.51                H17-C2-N1=108.40               
H17-C2-C3=110.41               H18-C2-N1=108.40               H18-C2-C3=110.41               H18-C2-H17=108.64              
C4-C3-C2=110.89                H19-C3-C2=110.05               H19-C3-C4=108.74               H20-C3-C2=110.06               
H20-C3-C4=108.75               H20-C3-H19=108.29              C5-C4-C3=111.49                H21-C4-C3=109.50               
H21-C4-C5=109.23               H22-C4-C3=109.49               H22-C4-C5=109.23               H22-C4-H21=107.82              
C6-C5-C4=111.74                H23-C5-C4=109.47               H23-C5-C6=109.17               H24-C5-C4=109.47               
H24-C5-C6=109.17               H24-C5-H23=107.73              C7-C6-C5=111.79                H25-C6-C5=109.39               
H25-C6-C7=109.27               H26-C6-C5=109.39               H26-C6-C7=109.26               H26-C6-H25=107.64              
C8-C7-C6=111.95                H27-C7-C6=109.35               H27-C7-C8=109.25               H28-C7-C6=109.35               
H28-C7-C8=109.25               H28-C7-H27=107.59              C9-C8-C7=111.96                H29-C8-C7=109.33               
H29-C8-C9=109.27               H30-C8-C7=109.33               H30-C8-C9=109.27               H30-C8-H29=107.57              
C10-C9-C8=112.05               H31-C9-C8=109.31               H31-C9-C10=109.26              H32-C9-C8=109.31               
H32-C9-C10=109.26              H32-C9-H31=107.55              C11-C10-C9=112.01              H33-C10-C9=109.31              
H33-C10-C11=109.29             H34-C10-C9=109.31              H34-C10-C11=109.29             H34-C10-H33=107.53             

 selected dihedral angles (degree)
 ---------------------------------
C3-C2-N1-H14=180.00           C3-C2-N1-H15= 59.25           C3-C2-N1-H16=300.75           H17-C2-N1-H14= 58.88          
H17-C2-N1-H15=298.12          H17-C2-N1-H16=179.63          H18-C2-N1-H14=301.12          H18-C2-N1-H15=180.37          
H18-C2-N1-H16= 61.87          C4-C3-C2-N1=179.93            C4-C3-C2-H17=299.85           C4-C3-C2-H18= 60.01           
H19-C3-C2-N1= 59.57           H19-C3-C2-H17=179.49          H19-C3-C2-H18=299.65          H20-C3-C2-N1=300.30           
H20-C3-C2-H17= 60.22          H20-C3-C2-H18=180.38          C5-C4-C3-C2=180.00            C5-C4-C3-H19=301.13           
C5-C4-C3-H20= 58.85           H21-C4-C3-C2= 59.00           H21-C4-C3-H19=180.13          H21-C4-C3-H20=297.86          
H22-C4-C3-C2=300.98           H22-C4-C3-H19= 62.11          H22-C4-C3-H20=179.84          C6-C5-C4-C3=179.92            
C6-C5-C4-H21=301.07           C6-C5-C4-H22= 58.77           H23-C5-C4-C3= 58.86           H23-C5-C4-H21=180.01          
H23-C5-C4-H22=297.72          H24-C5-C4-C3=300.98           H24-C5-C4-H21= 62.13          H24-C5-C4-H22=179.84          
C7-C6-C5-C4=180.02            C7-C6-C5-H23=301.26           C7-C6-C5-H24= 58.78           H25-C6-C5-C4= 58.86           
H25-C6-C5-H23=180.09          H25-C6-C5-H24=297.62          H26-C6-C5-C4=301.18           H26-C6-C5-H23= 62.41          
H26-C6-C5-H24=179.94          C8-C7-C6-C5=179.97            C8-C7-C6-H25=301.20           C8-C7-C6-H26= 58.74           
H27-C7-C6-C5= 58.75           H27-C7-C6-H25=179.99          H27-C7-C6-H26=297.52          H28-C7-C6-C5=301.18           
H28-C7-C6-H25= 62.42          H28-C7-C6-H26=179.95          C9-C8-C7-C6=179.98            C9-C8-C7-H27=301.25           
C9-C8-C7-H28= 58.71           H29-C8-C7-C6= 58.74           H29-C8-C7-H27=180.01          H29-C8-C7-H28=297.47          
H30-C8-C7-C6=301.22           H30-C8-C7-H27= 62.49          H30-C8-C7-H28=179.94          C10-C9-C8-C7=180.02           
C10-C9-C8-H29=301.29          C10-C9-C8-H30= 58.75          H31-C9-C8-C7= 58.75           H31-C9-C8-H29=180.02          
H31-C9-C8-H30=297.48          H32-C9-C8-C7=301.28           H32-C9-C8-H29= 62.55          H32-C9-C8-H30=180.01          
C11-C10-C9-C8=180.01          C11-C10-C9-H31=301.30         C11-C10-C9-H32= 58.72         H33-C10-C9-C8= 58.73          
H33-C10-C9-H31=180.03         H33-C10-C9-H32=297.44         H34-C10-C9-C8=301.28          H34-C10-C9-H31= 62.58         
H34-C10-C9-H32=179.99         
           -------------------------------------------------
          |                Final Singlepoint                |
           -------------------------------------------------

          ...................................................
          :                      SETUP                      :
          :.................................................:
          :  # basis functions                  80          :
          :  # atomic orbitals                  80          :
          :  # shells                           54          :
          :  # electrons                        80          :
          :  max. iterations                   250          :
          :  Hamiltonian                  GFN2-xTB          :
          :  restarted?                      false          :
          :  GBSA solvation                  false          :
          :  PC potential                    false          :
          :  electronic temp.          300.0000000     K    :
          :  accuracy                    1.0000000          :
          :  -> integral cutoff          0.2500000E+02      :
          :  -> integral neglect         0.1000000E-07      :
          :  -> SCF convergence          0.1000000E-05 Eh   :
          :  -> wf. convergence          0.1000000E-03 e    :
          :  Broyden damping             0.4000000          :
          ...................................................

 iter      E             dE          RMSdq      gap      omega  full diag
   1    -43.1084195 -0.431084E+02  0.275E-05    5.29       0.0  T
   2    -43.1084195 -0.130740E-11  0.156E-05    5.29    1001.2  T
   3    -43.1084195 -0.994760E-13  0.316E-06    5.29    4942.0  T

   *** convergence criteria satisfied after 3 iterations ***

         #    Occupation            Energy/Eh            Energy/eV
      -------------------------------------------------------------
         1        2.0000           -0.8975078             -24.4224
       ...           ...                  ...                  ...
        34        2.0000           -0.5027059             -13.6793
        35        2.0000           -0.4895955             -13.3226
        36        2.0000           -0.4869719             -13.2512
        37        2.0000           -0.4747873             -12.9196
        38        2.0000           -0.4731696             -12.8756
        39        2.0000           -0.4663536             -12.6901
        40        2.0000           -0.4619614             -12.5706 (HOMO)
        41                         -0.2675405              -7.2801 (LUMO)
        42                         -0.1642902              -4.4706
        43                         -0.1054208              -2.8686
        44                         -0.1036173              -2.8196
        45                         -0.0613165              -1.6685
       ...                                ...                  ...
        80                          0.2736730               7.4470
      -------------------------------------------------------------
                  HL-Gap            0.1944208 Eh            5.2905 eV
             Fermi-level           -0.3647509 Eh           -9.9254 eV

 SCC (total)                   0 d,  0 h,  0 min,  0.023 sec
 SCC setup                      ...        0 min,  0.000 sec (  0.741%)
 Dispersion                     ...        0 min,  0.000 sec (  1.907%)
 classical contributions        ...        0 min,  0.000 sec (  0.348%)
 integral evaluation            ...        0 min,  0.002 sec ( 10.368%)
 iterations                     ...        0 min,  0.011 sec ( 46.571%)
 molecular gradient             ...        0 min,  0.009 sec ( 37.691%)
 printout                       ...        0 min,  0.000 sec (  1.826%)

         :::::::::::::::::::::::::::::::::::::::::::::::::::::
         ::                     SUMMARY                     ::
         :::::::::::::::::::::::::::::::::::::::::::::::::::::
         :: total energy             -42.484460162382 Eh    ::
         :: gradient norm              0.000207710965 Eh/a0 ::
         :: HOMO-LUMO gap              5.290460517995 eV    ::
         ::.................................................::
         :: SCC energy               -43.108419461266 Eh    ::
         :: -> isotropic ES            0.112636695360 Eh    ::
         :: -> anisotropic ES         -0.001379876227 Eh    ::
         :: -> anisotropic XC          0.027833927811 Eh    ::
         :: -> dispersion             -0.024725386906 Eh    ::
         :: repulsion energy           0.624277436664 Eh    ::
         :: add. restraining           0.000000000000 Eh    ::
         :: total charge               1.000000000000 e     ::
         :::::::::::::::::::::::::::::::::::::::::::::::::::::

           -------------------------------------------------
          |                Property Printout                |
           -------------------------------------------------

    * Orbital Energies and Occupations

         #    Occupation            Energy/Eh            Energy/eV
      -------------------------------------------------------------
         1        2.0000           -0.8975078             -24.4224
       ...           ...                  ...                  ...
        28        2.0000           -0.5370190             -14.6130
        29        2.0000           -0.5369701             -14.6117
        30        2.0000           -0.5241073             -14.2617
        31        2.0000           -0.5196852             -14.1414
        32        2.0000           -0.5093774             -13.8609
        33        2.0000           -0.5046564             -13.7324
        34        2.0000           -0.5027059             -13.6793
        35        2.0000           -0.4895955             -13.3226
        36        2.0000           -0.4869719             -13.2512
        37        2.0000           -0.4747873             -12.9196
        38        2.0000           -0.4731696             -12.8756
        39        2.0000           -0.4663536             -12.6901
        40        2.0000           -0.4619614             -12.5706 (HOMO)
        41                         -0.2675405              -7.2801 (LUMO)
        42                         -0.1642902              -4.4706
        43                         -0.1054208              -2.8686
        44                         -0.1036173              -2.8196
        45                         -0.0613165              -1.6685
        46                         -0.0453323              -1.2336
        47                         -0.0180813              -0.4920
        48                         -0.0096166              -0.2617
        49                          0.0004892               0.0133
        50                          0.0171382               0.4664
        51                          0.0286706               0.7802
       ...                                ...                  ...
        80                          0.2736730               7.4470
      -------------------------------------------------------------
                  HL-Gap            0.1944208 Eh            5.2905 eV
             Fermi-level           -0.3647509 Eh           -9.9254 eV

     #   Z          covCN         q      C6AA      α(0)
     1   7 N        3.482    -0.128    23.768     7.241
     2   6 C        3.731    -0.034    21.272     6.584
     3   6 C        3.803    -0.081    22.042     6.684
     4   6 C        3.804    -0.067    21.775     6.643
     5   6 C        3.803    -0.064    21.720     6.635
     6   6 C        3.803    -0.063    21.699     6.632
     7   6 C        3.803    -0.061    21.666     6.627
     8   6 C        3.803    -0.060    21.655     6.625
     9   6 C        3.803    -0.059    21.641     6.623
    10   6 C        3.803    -0.059    21.640     6.623
    11   6 C        3.803    -0.060    21.646     6.624
    12   6 C        3.801    -0.053    21.532     6.607
    13   6 C        3.752    -0.104    22.538     6.770
    14   1 H        0.859     0.270     0.811     1.411
    15   1 H        0.859     0.272     0.802     1.403
    16   1 H        0.859     0.272     0.802     1.403
    17   1 H        0.924     0.107     1.724     2.053
    18   1 H        0.924     0.107     1.724     2.053
    19   1 H        0.924     0.062     2.178     2.308
    20   1 H        0.924     0.062     2.178     2.308
    21   1 H        0.924     0.050     2.319     2.381
    22   1 H        0.924     0.050     2.319     2.382
    23   1 H        0.924     0.041     2.438     2.442
    24   1 H        0.924     0.041     2.437     2.441
    25   1 H        0.924     0.037     2.487     2.466
    26   1 H        0.924     0.037     2.487     2.466
    27   1 H        0.924     0.034     2.532     2.489
    28   1 H        0.924     0.034     2.532     2.488
    29   1 H        0.924     0.033     2.550     2.497
    30   1 H        0.924     0.033     2.550     2.497
    31   1 H        0.924     0.031     2.568     2.506
    32   1 H        0.924     0.031     2.568     2.506
    33   1 H        0.924     0.030     2.581     2.512
    34   1 H        0.924     0.030     2.581     2.512
    35   1 H        0.924     0.031     2.572     2.508
    36   1 H        0.924     0.031     2.572     2.508
    37   1 H        0.924     0.030     2.590     2.517
    38   1 H        0.924     0.030     2.590     2.517
    39   1 H        0.925     0.035     2.521     2.483
    40   1 H        0.925     0.037     2.496     2.470
    41   1 H        0.925     0.035     2.521     2.483

 Mol. C6AA /au·bohr⁶  :      10450.424059
 Mol. C8AA /au·bohr⁸  :     218684.314681
 Mol. α(0) /au        :        151.927320


Wiberg/Mayer (AO) data.
largest (>0.10) Wiberg bond orders for each atom

 ---------------------------------------------------------------------------
     #   Z sym  total        # sym  WBO       # sym  WBO       # sym  WBO
 ---------------------------------------------------------------------------
     1   7 N    3.675 --     2 C    0.918    14 H    0.913    15 H    0.910
                            16 H    0.910
     2   6 C    3.883 --     3 C    1.008    17 H    0.967    18 H    0.967
                             1 N    0.918
     3   6 C    3.979 --     2 C    1.008     4 C    0.993    20 H    0.972
                            19 H    0.972
     4   6 C    3.987 --     5 C    1.004     3 C    0.993    21 H    0.976
                            22 H    0.976
     5   6 C    3.992 --     6 C    1.005     4 C    1.004    24 H    0.977
                            23 H    0.977
     6   6 C    3.994 --     7 C    1.006     5 C    1.005    25 H    0.977
                            26 H    0.977
     7   6 C    3.995 --     8 C    1.006     6 C    1.006    28 H    0.977
                            27 H    0.977
     8   6 C    3.996 --     9 C    1.007     7 C    1.006    30 H    0.977
                            29 H    0.977
     9   6 C    3.996 --    10 C    1.007     8 C    1.007    31 H    0.977
                            32 H    0.977
    10   6 C    3.997 --    11 C    1.007     9 C    1.007    33 H    0.977
                            34 H    0.977
    11   6 C    3.997 --    12 C    1.008    10 C    1.007    36 H    0.977
                            35 H    0.977
    12   6 C    3.997 --    13 C    1.019    11 C    1.008    37 H    0.979
                            38 H    0.979
    13   6 C    3.996 --    12 C    1.019    39 H    0.988    41 H    0.988
                            40 H    0.987
    14   1 H    0.927 --     1 N    0.913
    15   1 H    0.926 --     1 N    0.910
    16   1 H    0.926 --     1 N    0.910
    17   1 H    0.989 --     2 C    0.967
    18   1 H    0.989 --     2 C    0.967
    19   1 H    0.996 --     3 C    0.972
    20   1 H    0.996 --     3 C    0.972
    21   1 H    0.997 --     4 C    0.976
    22   1 H    0.997 --     4 C    0.976
    23   1 H    0.998 --     5 C    0.977
    24   1 H    0.998 --     5 C    0.977
    25   1 H    0.999 --     6 C    0.977
    26   1 H    0.999 --     6 C    0.977
    27   1 H    0.999 --     7 C    0.977
    28   1 H    0.999 --     7 C    0.977
    29   1 H    0.999 --     8 C    0.977
    30   1 H    0.999 --     8 C    0.977
    31   1 H    0.999 --     9 C    0.977
    32   1 H    0.999 --     9 C    0.977
    33   1 H    0.999 --    10 C    0.977
    34   1 H    0.999 --    10 C    0.977
    35   1 H    0.999 --    11 C    0.977
    36   1 H    0.999 --    11 C    0.977
    37   1 H    0.999 --    12 C    0.979
    38   1 H    0.999 --    12 C    0.979
    39   1 H    0.999 --    13 C    0.988
    40   1 H    0.998 --    13 C    0.987
    41   1 H    0.999 --    13 C    0.988
 ---------------------------------------------------------------------------

Topologies differ in total number of bonds
Writing topology from bond orders to xtbtopo.mol

molecular dipole:
                 x           y           z       tot (Debye)
 q only:        2.748      -0.432      -0.218
   full:        2.375      -0.324      -0.127       6.101
molecular quadrupole (traceless):
                xx          xy          yy          xz          yz          zz
 q only:       17.716     -10.118      -8.087      -7.983       4.255      -9.629
  q+dip:       10.626      -6.389      -5.188      -4.901       0.371      -5.438
   full:       12.400      -7.224      -5.839      -5.609       1.847      -6.560

           -------------------------------------------------
          |                Geometry Summary                 |
           -------------------------------------------------

      molecular mass/u    :      186.3578750
   center of mass at/Å    :        7.1205823      -3.0316234      -2.5007899
  moments of inertia/u·Å² :        0.7895961E+02   0.4349352E+04   0.4387863E+04
rotational constants/cm⁻¹ :        0.2134969E+00   0.3875895E-02   0.3841878E-02

 * 40 selected distances

     #   Z          #   Z                                           value/Å
     1   7 N        2   6 C                                       1.4995382
     2   6 C        3   6 C                                       1.5207414
     3   6 C        4   6 C                                       1.5315790 (max)
     4   6 C        5   6 C                                       1.5277551
     5   6 C        6   6 C                                       1.5270345
     6   6 C        7   6 C                                       1.5268712
     7   6 C        8   6 C                                       1.5266716
     8   6 C        9   6 C                                       1.5266372
     9   6 C       10   6 C                                       1.5266873
    10   6 C       11   6 C                                       1.5265665
    11   6 C       12   6 C                                       1.5267438
    12   6 C       13   6 C                                       1.5235708
     1   7 N       14   1 H                                       1.0276399 (min)
     1   7 N       15   1 H                                       1.0287266
     1   7 N       16   1 H                                       1.0287323
     2   6 C       17   1 H                                       1.0907587
     2   6 C       18   1 H                                       1.0907587
     3   6 C       19   1 H                                       1.0918669
     3   6 C       20   1 H                                       1.0918573
     4   6 C       21   1 H                                       1.0910266
     4   6 C       22   1 H                                       1.0910351
     5   6 C       23   1 H                                       1.0919059
     5   6 C       24   1 H                                       1.0918980
     6   6 C       25   1 H                                       1.0919843
     6   6 C       26   1 H                                       1.0919896
     7   6 C       27   1 H                                       1.0923329
     7   6 C       28   1 H                                       1.0923260
     8   6 C       29   1 H                                       1.0923733
     8   6 C       30   1 H                                       1.0923740
     9   6 C       31   1 H                                       1.0925363
     9   6 C       32   1 H                                       1.0925341
    10   6 C       33   1 H                                       1.0925982
    10   6 C       34   1 H                                       1.0925975
    11   6 C       35   1 H                                       1.0926457
    11   6 C       36   1 H                                       1.0926451
    12   6 C       37   1 H                                       1.0924115
    12   6 C       38   1 H                                       1.0924137
    13   6 C       39   1 H                                       1.0878775
    13   6 C       40   1 H                                       1.0872468
    13   6 C       41   1 H                                       1.0878780

 * 4 distinct bonds (by element types)

   Z      Z             #   av. dist./Å        max./Å        min./Å
   1 H    6 C          25     1.0915149     1.0926457     1.0872468
   6 C    6 C          11     1.5264417     1.5315790     1.5207414
   1 H    7 N           3     1.0283663     1.0287323     1.0276399
   6 C    7 N           1     1.4995382     1.4995382     1.4995382


optimized geometry written to: xtbopt.xyz


           -------------------------------------------------
          | TOTAL ENERGY              -42.484460162382 Eh   |
          | GRADIENT NORM               0.000207710965 Eh/α |
          | HOMO-LUMO GAP               5.290460517995 eV   |
           -------------------------------------------------

------------------------------------------------------------------------
 * finished run on 2023/01/23 at 20:35:28.096     
------------------------------------------------------------------------
 total:
 * wall-time:     0 d,  0 h,  0 min,  0.455 sec
 *  cpu-time:     0 d,  0 h,  0 min, 50.376 sec
 * ratio c/w:   110.655 speedup
 SCF:
 * wall-time:     0 d,  0 h,  0 min,  0.114 sec
 *  cpu-time:     0 d,  0 h,  0 min, 14.160 sec
 * ratio c/w:   123.893 speedup
 ANC optimizer:
 * wall-time:     0 d,  0 h,  0 min,  0.310 sec
 *  cpu-time:     0 d,  0 h,  0 min, 32.405 sec
 * ratio c/w:   104.676 speedup

