      -----------------------------------------------------------      
     |                   =====================                   |     
     |                           x T B                           |     
     |                   =====================                   |     
     |                         S. Grimme                         |     
     |          Mulliken Center for Theoretical Chemistry        |     
     |                    University of Bonn                     |     
      -----------------------------------------------------------      

   * xtb version 6.5.1 (fef0646) compiled by 'conda@b96dff2e9fd6' on 2023-01-04

   xtb is free software: you can redistribute it and/or modify it under
   the terms of the GNU Lesser General Public License as published by
   the Free Software Foundation, either version 3 of the License, or
   (at your option) any later version.
   
   xtb is distributed in the hope that it will be useful,
   but WITHOUT ANY WARRANTY; without even the implied warranty of
   MERCHANTABILITY or FITNESS FOR A PARTICULAR PURPOSE.  See the
   GNU Lesser General Public License for more details.
   
   Cite this work as:
   * C. Bannwarth, E. Caldeweyher, S. Ehlert, A. Hansen, P. Pracht,
     J. Seibert, S. Spicher, S. Grimme, WIREs Comput. Mol. Sci., 2020, 11,
     e01493. DOI: 10.1002/wcms.1493
   
   for GFN2-xTB:
   * C. Bannwarth, S. Ehlert and S. Grimme., J. Chem. Theory Comput., 2019,
     15, 1652-1671. DOI: 10.1021/acs.jctc.8b01176
   for GFN1-xTB:
   * S. Grimme, C. Bannwarth, P. Shushkov, J. Chem. Theory Comput., 2017,
     13, 1989-2009. DOI: 10.1021/acs.jctc.7b00118
   for GFN0-xTB:
   * P. Pracht, E. Caldeweyher, S. Ehlert, S. Grimme, ChemRxiv, 2019, preprint.
     DOI: 10.26434/chemrxiv.8326202.v1
   for GFN-FF:
   * S. Spicher and S. Grimme, Angew. Chem. Int. Ed., 2020, 59, 15665-15673.
     DOI: 10.1002/anie.202004239
   
   for ALPB and GBSA implicit solvation:
   * S. Ehlert, M. Stahn, S. Spicher, S. Grimme, J. Chem. Theory Comput.,
     2021, 17, 4250-4261. DOI: 10.1021/acs.jctc.1c00471
   
   for DFT-D4:
   * E. Caldeweyher, C. Bannwarth and S. Grimme, J. Chem. Phys., 2017,
     147, 034112. DOI: 10.1063/1.4993215
   * E. Caldeweyher, S. Ehlert, A. Hansen, H. Neugebauer, S. Spicher,
     C. Bannwarth and S. Grimme, J. Chem. Phys., 2019, 150, 154122.
     DOI: 10.1063/1.5090222
   * E. Caldeweyher, J.-M. Mewes, S. Ehlert and S. Grimme, Phys. Chem. Chem. Phys.
     2020, 22, 8499-8512. DOI: 10.1039/D0CP00502A
   
   for sTDA-xTB:
   * S. Grimme and C. Bannwarth, J. Chem. Phys., 2016, 145, 054103.
     DOI: 10.1063/1.4959605
   
   in the mass-spec context:
   * V. Asgeirsson, C. Bauer and S. Grimme, Chem. Sci., 2017, 8, 4879.
     DOI: 10.1039/c7sc00601b
   * J. Koopman and S. Grimme, ACS Omega 2019, 4, 12, 15120-15133.
     DOI: 10.1021/acsomega.9b02011
   
   for metadynamics refer to:
   * S. Grimme, J. Chem. Theory Comput., 2019, 155, 2847-2862
     DOI: 10.1021/acs.jctc.9b00143
   
   for SPH calculations refer to:
   * S. Spicher and S. Grimme, J. Chem. Theory Comput., 2021, 17, 1701-1714
     DOI: 10.1021/acs.jctc.0c01306
   
   with help from (in alphabetical order)
   P. Atkinson, C. Bannwarth, F. Bohle, G. Brandenburg, E. Caldeweyher
   M. Checinski, S. Dohm, S. Ehlert, S. Ehrlich, I. Gerasimov, C. Hölzer
   A. Katbashev, J. Koopman, C. Lavigne, S. Lehtola, F. März, M. Müller,
   F. Musil, H. Neugebauer, J. Pisarek, C. Plett, P. Pracht, F. Pultar,
   J. Seibert, P. Shushkov, S. Spicher, M. Stahn, M. Steiner, T. Strunk,
   J. Stückrath, T. Rose, and J. Unsleber
   
 * started run on 2023/01/23 at 14:00:40.618     

           -------------------------------------------------
          |                Calculation Setup                |
           -------------------------------------------------

          program call               : xtb init.xyz --opt -c 1 -u 0 -P 16
          hostname                   : gpg-woodward
          coordinate file            : init.xyz
          omp threads                :                    16

   ID    Z sym.   atoms
    1    7 N      1
    2    6 C      2-21
    3   16 S      22-25
    4    1 H      26-45

           -------------------------------------------------
          |                 G F N 2 - x T B                 |
           -------------------------------------------------

        Reference                      10.1021/acs.jctc.8b01176
      * Hamiltonian:
        H0-scaling (s, p, d)           1.850000    2.230000    2.230000
        zeta-weighting                 0.500000
      * Dispersion:
        s8                             2.700000
        a1                             0.520000
        a2                             5.000000
        s9                             5.000000
      * Repulsion:
        kExp                           1.500000    1.000000
        rExp                           1.000000
      * Coulomb:
        alpha                          2.000000
        third order                    shell-resolved
        anisotropic                    true
        a3                             3.000000
        a5                             4.000000
        cn-shift                       1.200000
        cn-exp                         4.000000
        max-rad                        5.000000


          ...................................................
          :                      SETUP                      :
          :.................................................:
          :  # basis functions                 144          :
          :  # atomic orbitals                 140          :
          :  # shells                           74          :
          :  # electrons                       128          :
          :  max. iterations                   250          :
          :  Hamiltonian                  GFN2-xTB          :
          :  restarted?                      false          :
          :  GBSA solvation                  false          :
          :  PC potential                    false          :
          :  electronic temp.          300.0000000     K    :
          :  accuracy                    1.0000000          :
          :  -> integral cutoff          0.2500000E+02      :
          :  -> integral neglect         0.1000000E-07      :
          :  -> SCF convergence          0.1000000E-05 Eh   :
          :  -> wf. convergence          0.1000000E-03 e    :
          :  Broyden damping             0.4000000          :
          ...................................................

 iter      E             dE          RMSdq      gap      omega  full diag
   1    -69.3044281 -0.693044E+02  0.379E+00    2.16       0.0  T
   2    -69.4412338 -0.136806E+00  0.230E+00    1.81       1.0  T
   3    -69.4348302  0.640364E-02  0.124E+00    1.72       1.0  T
   4    -69.4498939 -0.150637E-01  0.741E-01    1.46       1.0  T
   5    -69.4605348 -0.106409E-01  0.200E-01    1.51       1.0  T
   6    -69.4609791 -0.444366E-03  0.112E-01    1.51       1.0  T
   7    -69.4612293 -0.250209E-03  0.327E-02    1.51       1.0  T
   8    -69.4612436 -0.142714E-04  0.185E-02    1.52       1.0  T
   9    -69.4612458 -0.219430E-05  0.845E-03    1.52       1.8  T
  10    -69.4612465 -0.725076E-06  0.444E-03    1.52       3.4  T
  11    -69.4612467 -0.216127E-06  0.244E-03    1.52       6.1  T
  12    -69.4612468 -0.203737E-07  0.107E-03    1.52      13.9  T
  13    -69.4612468 -0.226487E-07  0.529E-04    1.52      28.2  T
  14    -69.4612468 -0.604892E-08  0.248E-04    1.52      60.1  T

   *** convergence criteria satisfied after 14 iterations ***

         #    Occupation            Energy/Eh            Energy/eV
      -------------------------------------------------------------
         1        2.0000           -0.8847250             -24.0746
       ...           ...                  ...                  ...
        58        2.0000           -0.4942879             -13.4503
        59        2.0000           -0.4763643             -12.9625
        60        2.0000           -0.4681023             -12.7377
        61        2.0000           -0.4570514             -12.4370
        62        2.0000           -0.4496530             -12.2357
        63        2.0000           -0.4400505             -11.9744
        64        2.0000           -0.4215226             -11.4702 (HOMO)
        65                         -0.3657591              -9.9528 (LUMO)
        66                         -0.3299181              -8.9775
        67                         -0.3156444              -8.5891
        68                         -0.3060255              -8.3274
        69                         -0.2873923              -7.8203
       ...                                ...                  ...
       140                          0.6413296              17.4515
      -------------------------------------------------------------
                  HL-Gap            0.0557636 Eh            1.5174 eV
             Fermi-level           -0.3936409 Eh          -10.7115 eV

 SCC (total)                   0 d,  0 h,  0 min,  0.267 sec
 SCC setup                      ...        0 min,  0.000 sec (  0.137%)
 Dispersion                     ...        0 min,  0.001 sec (  0.439%)
 classical contributions        ...        0 min,  0.000 sec (  0.067%)
 integral evaluation            ...        0 min,  0.005 sec (  2.035%)
 iterations                     ...        0 min,  0.246 sec ( 92.409%)
 molecular gradient             ...        0 min,  0.011 sec (  4.030%)
 printout                       ...        0 min,  0.002 sec (  0.731%)

         :::::::::::::::::::::::::::::::::::::::::::::::::::::
         ::                     SUMMARY                     ::
         :::::::::::::::::::::::::::::::::::::::::::::::::::::
         :: total energy             -68.482063497105 Eh    ::
         :: gradient norm              0.086333424623 Eh/a0 ::
         :: HOMO-LUMO gap              1.517403525928 eV    ::
         ::.................................................::
         :: SCC energy               -69.461246793899 Eh    ::
         :: -> isotropic ES            0.105979431457 Eh    ::
         :: -> anisotropic ES         -0.014037434892 Eh    ::
         :: -> anisotropic XC          0.034905936489 Eh    ::
         :: -> dispersion             -0.055161958449 Eh    ::
         :: repulsion energy           0.979712030422 Eh    ::
         :: add. restraining           0.000000000000 Eh    ::
         :: total charge               1.000000000000 e     ::
         :::::::::::::::::::::::::::::::::::::::::::::::::::::

      ----------------------------------------------------------- 
     |                   =====================                   |
     |                        A N C O P T                        |
     |                   =====================                   |
     |               Approximate Normal Coordinate               |
     |                Rational Function Optimizer                |
      ----------------------------------------------------------- 

          ...................................................
          :                      SETUP                      :
          :.................................................:
          :   optimization level            normal          :
          :   max. optcycles                   200          :
          :   ANC micro-cycles                  20          :
          :   degrees of freedom               129          :
          :.................................................:
          :   RF solver                   davidson          :
          :   write xtbopt.log                true          :
          :   linear?                        false          :
          :   energy convergence         0.5000000E-05 Eh   :
          :   grad. convergence          0.1000000E-02 Eh/α :
          :   maximium RF displ.         1.0000000          :
          :   Hlow (freq-cutoff)         0.1000000E-01      :
          :   Hmax (freq-cutoff)         5.0000000          :
          :   S6 in model hess.         20.0000000          :
          ...................................................

generating ANC from model Hessian ...
Using Lindh-Hessian (1995)
 Shifting diagonal of input Hessian by    9.8860893145277622E-003
 Lowest  eigenvalues of input Hessian
    0.000000    0.000000    0.000000    0.000000    0.000000    0.000000
    0.010000    0.010229    0.010338    0.010561    0.010642    0.011671
    0.012265    0.012608    0.013170    0.014162    0.014483    0.014761
 Highest eigenvalues
    1.792410    1.822968    1.825783    1.872369    1.911231    1.931799


........................................................................
.............................. CYCLE    1 ..............................
........................................................................
   1    -69.4612468 -0.694612E+02  0.115E-04    1.52       0.0  T
   2    -69.4612468 -0.610356E-10  0.873E-05    1.52     170.7  T
   3    -69.4612468 -0.167574E-09  0.544E-05    1.52     274.2  T
     SCC iter.                  ...        0 min,  0.046 sec
     gradient                   ...        0 min,  0.010 sec
 * total energy  :   -68.4820635 Eh     change       -0.7938752E-09 Eh
   gradient norm :     0.0863338 Eh/α   predicted     0.0000000E+00 (-100.00%)
   displ. norm   :     0.3176162 α      lambda       -0.1137009E-01
   maximum displ.:     0.1111147 α      in ANC's #27, #25, #30, ...

........................................................................
.............................. CYCLE    2 ..............................
........................................................................
   1    -69.4998455 -0.694998E+02  0.174E-01    1.46       0.0  T
   2    -69.4999597 -0.114246E-03  0.118E-01    1.51       1.0  T
   3    -69.4999910 -0.312331E-04  0.669E-02    1.50       1.0  T
   4    -69.5000610 -0.700636E-04  0.213E-02    1.51       1.0  T
   5    -69.5000687 -0.762690E-05  0.956E-03    1.51       1.6  T
   6    -69.5000705 -0.181557E-05  0.408E-03    1.51       3.7  T
   7    -69.5000708 -0.319239E-06  0.179E-03    1.51       8.3  T
   8    -69.5000708 -0.449512E-08  0.116E-03    1.51      12.9  T
   9    -69.5000708 -0.201233E-07  0.478E-04    1.51      31.2  T
  10    -69.5000708 -0.302511E-08  0.239E-04    1.51      62.4  T
     SCC iter.                  ...        0 min,  0.153 sec
     gradient                   ...        0 min,  0.011 sec
 * total energy  :   -68.4901413 Eh     change       -0.8077765E-02 Eh
   gradient norm :     0.0435055 Eh/α   predicted    -0.6262584E-02 ( -22.47%)
   displ. norm   :     0.3402162 α      lambda       -0.4749067E-02
   maximum displ.:     0.1342192 α      in ANC's #11, #4, #7, ...

........................................................................
.............................. CYCLE    3 ..............................
........................................................................
   1    -69.5220426 -0.695220E+02  0.143E-01    1.44       0.0  T
   2    -69.5221541 -0.111575E-03  0.994E-02    1.49       1.0  T
   3    -69.5222546 -0.100511E-03  0.547E-02    1.47       1.0  T
   4    -69.5222859 -0.312607E-04  0.209E-02    1.48       1.0  T
   5    -69.5222924 -0.649039E-05  0.981E-03    1.48       1.5  T
   6    -69.5222946 -0.216792E-05  0.367E-03    1.48       4.1  T
   7    -69.5222948 -0.205895E-06  0.171E-03    1.48       8.7  T
   8    -69.5222948 -0.255579E-07  0.106E-03    1.48      14.0  T
   9    -69.5222948 -0.147106E-07  0.544E-04    1.48      27.4  T
  10    -69.5222948 -0.331970E-08  0.260E-04    1.48      57.4  T
     SCC iter.                  ...        0 min,  0.175 sec
     gradient                   ...        0 min,  0.011 sec
 * total energy  :   -68.4930990 Eh     change       -0.2957734E-02 Eh
   gradient norm :     0.0138059 Eh/α   predicted    -0.2651224E-02 ( -10.36%)
   displ. norm   :     0.3081506 α      lambda       -0.1304401E-02
   maximum displ.:     0.1397495 α      in ANC's #4, #11, #7, ...

........................................................................
.............................. CYCLE    4 ..............................
........................................................................
   1    -69.5234236 -0.695234E+02  0.932E-02    1.44       0.0  T
   2    -69.5234452 -0.215397E-04  0.590E-02    1.47       1.0  T
   3    -69.5234520 -0.677771E-05  0.391E-02    1.45       1.0  T
   4    -69.5234867 -0.347906E-04  0.937E-03    1.46       1.6  T
   5    -69.5234877 -0.913905E-06  0.459E-03    1.46       3.2  T
   6    -69.5234882 -0.490362E-06  0.184E-03    1.46       8.1  T
   7    -69.5234882 -0.734800E-07  0.874E-04    1.46      17.1  T
   8    -69.5234882 -0.814426E-08  0.513E-04    1.46      29.0  T
     SCC iter.                  ...        0 min,  0.128 sec
     gradient                   ...        0 min,  0.011 sec
 * total energy  :   -68.4941244 Eh     change       -0.1025387E-02 Eh
   gradient norm :     0.0093135 Eh/α   predicted    -0.7141513E-03 ( -30.35%)
   displ. norm   :     0.5020342 α      lambda       -0.1479189E-02
   maximum displ.:     0.2547148 α      in ANC's #4, #11, #7, ...

........................................................................
.............................. CYCLE    5 ..............................
........................................................................
   1    -69.5188187 -0.695188E+02  0.130E-01    1.41       0.0  T
   2    -69.5188431 -0.244130E-04  0.783E-02    1.44       1.0  T
   3    -69.5187925  0.506022E-04  0.573E-02    1.42       1.0  T
   4    -69.5188927 -0.100121E-03  0.104E-02    1.43       1.4  T
   5    -69.5188934 -0.773450E-06  0.548E-03    1.43       2.7  T
   6    -69.5188942 -0.778323E-06  0.205E-03    1.43       7.3  T
   7    -69.5188943 -0.871229E-07  0.975E-04    1.43      15.3  T
   8    -69.5188943 -0.133307E-07  0.518E-04    1.43      28.8  T
     SCC iter.                  ...        0 min,  0.123 sec
     gradient                   ...        0 min,  0.011 sec
 * total energy  :   -68.4952497 Eh     change       -0.1125334E-02 Eh
   gradient norm :     0.0148285 Eh/α   predicted    -0.9260025E-03 ( -17.71%)
   displ. norm   :     0.4947702 α      lambda       -0.1136306E-02
   maximum displ.:     0.2766392 α      in ANC's #4, #11, #7, ...

........................................................................
.............................. CYCLE    6 ..............................
........................................................................
   1    -69.5143537 -0.695144E+02  0.115E-01    1.40       0.0  T
   2    -69.5143686 -0.149050E-04  0.666E-02    1.41       1.0  T
   3    -69.5143062  0.624310E-04  0.439E-02    1.40       1.0  T
   4    -69.5143823 -0.761839E-04  0.795E-03    1.41       1.9  T
   5    -69.5143829 -0.603158E-06  0.401E-03    1.41       3.7  T
   6    -69.5143834 -0.460196E-06  0.139E-03    1.41      10.7  T
   7    -69.5143834 -0.317213E-07  0.602E-04    1.41      24.8  T
   8    -69.5143834 -0.722048E-08  0.293E-04    1.41      50.9  T
     SCC iter.                  ...        0 min,  0.119 sec
     gradient                   ...        0 min,  0.009 sec
 * total energy  :   -68.4961527 Eh     change       -0.9029826E-03 Eh
   gradient norm :     0.0175835 Eh/α   predicted    -0.7072400E-03 ( -21.68%)
   displ. norm   :     0.4855414 α      lambda       -0.1188151E-02
   maximum displ.:     0.2964367 α      in ANC's #4, #5, #11, ...

........................................................................
.............................. CYCLE    7 ..............................
........................................................................
   1    -69.5136792 -0.695137E+02  0.105E-01    1.40       0.0  T
   2    -69.5136898 -0.105909E-04  0.600E-02    1.40       1.0  T
   3    -69.5136651  0.247020E-04  0.256E-02    1.40       1.0  T
   4    -69.5136926 -0.275601E-04  0.755E-03    1.41       2.0  T
   5    -69.5136941 -0.145936E-05  0.320E-03    1.40       4.7  T
   6    -69.5136943 -0.231283E-06  0.121E-03    1.40      12.3  T
   7    -69.5136943 -0.336696E-07  0.502E-04    1.40      29.7  T
   8    -69.5136943 -0.353255E-08  0.247E-04    1.40      60.3  T
     SCC iter.                  ...        0 min,  0.121 sec
     gradient                   ...        0 min,  0.009 sec
 * total energy  :   -68.4971102 Eh     change       -0.9575391E-03 Eh
   gradient norm :     0.0132526 Eh/α   predicted    -0.7341730E-03 ( -23.33%)
   displ. norm   :     0.5021696 α      lambda       -0.1128540E-02
   maximum displ.:     0.3320940 α      in ANC's #4, #5, #3, ...

........................................................................
.............................. CYCLE    8 ..............................
........................................................................
   1    -69.5171737 -0.695172E+02  0.102E-01    1.41       0.0  T
   2    -69.5171818 -0.808751E-05  0.582E-02    1.40       1.0  T
   3    -69.5171402  0.416076E-04  0.373E-02    1.41       1.0  T
   4    -69.5171909 -0.506917E-04  0.669E-03    1.40       2.2  T
   5    -69.5171915 -0.562418E-06  0.315E-03    1.40       4.7  T
   6    -69.5171916 -0.164685E-06  0.126E-03    1.40      11.8  T
   7    -69.5171917 -0.471419E-07  0.468E-04    1.40      31.9  T
   8    -69.5171917 -0.298886E-08  0.269E-04    1.40      55.4  T
     SCC iter.                  ...        0 min,  0.119 sec
     gradient                   ...        0 min,  0.010 sec
 * total energy  :   -68.4979879 Eh     change       -0.8776467E-03 Eh
   gradient norm :     0.0070408 Eh/α   predicted    -0.7065650E-03 ( -19.49%)
   displ. norm   :     0.5084445 α      lambda       -0.7896702E-03
   maximum displ.:     0.3464151 α      in ANC's #4, #5, #3, ...

........................................................................
.............................. CYCLE    9 ..............................
........................................................................
   1    -69.5202491 -0.695202E+02  0.980E-02    1.40       0.0  T
   2    -69.5202546 -0.544135E-05  0.557E-02    1.40       1.0  T
   3    -69.5202208  0.337539E-04  0.310E-02    1.40       1.0  T
   4    -69.5202599 -0.390525E-04  0.583E-03    1.40       2.6  T
   5    -69.5202601 -0.250050E-06  0.272E-03    1.40       5.5  T
   6    -69.5202603 -0.150388E-06  0.947E-04    1.40      15.7  T
   7    -69.5202603 -0.249974E-07  0.395E-04    1.40      37.8  T
     SCC iter.                  ...        0 min,  0.104 sec
     gradient                   ...        0 min,  0.009 sec
 * total energy  :   -68.4986031 Eh     change       -0.6152176E-03 Eh
   gradient norm :     0.0075752 Eh/α   predicted    -0.4969137E-03 ( -19.23%)
   displ. norm   :     0.4630449 α      lambda       -0.6224226E-03
   maximum displ.:     0.3188354 α      in ANC's #4, #5, #3, ...

........................................................................
.............................. CYCLE   10 ..............................
........................................................................
   1    -69.5262365 -0.695262E+02  0.871E-02    1.40       0.0  T
   2    -69.5262391 -0.260314E-05  0.495E-02    1.39       1.0  T
   3    -69.5262104  0.286447E-04  0.285E-02    1.40       1.0  T
   4    -69.5262435 -0.330951E-04  0.495E-03    1.40       3.0  T
   5    -69.5262436 -0.538504E-07  0.255E-03    1.40       5.9  T
   6    -69.5262438 -0.170245E-06  0.676E-04    1.40      22.1  T
   7    -69.5262438 -0.153964E-07  0.307E-04    1.40      48.6  T
     SCC iter.                  ...        0 min,  0.103 sec
     gradient                   ...        0 min,  0.009 sec
 * total energy  :   -68.4990669 Eh     change       -0.4638076E-03 Eh
   gradient norm :     0.0087732 Eh/α   predicted    -0.3779411E-03 ( -18.51%)
   displ. norm   :     0.5801493 α      lambda       -0.6364336E-03
   maximum displ.:     0.3986497 α      in ANC's #4, #5, #3, ...

........................................................................
.............................. CYCLE   11 ..............................
........................................................................
   1    -69.5236722 -0.695237E+02  0.110E-01    1.37       0.0  T
   2    -69.5236825 -0.103029E-04  0.626E-02    1.38       1.0  T
   3    -69.5236649  0.175282E-04  0.214E-02    1.38       1.0  T
   4    -69.5236849 -0.199733E-04  0.741E-03    1.38       2.0  T
   5    -69.5236861 -0.114323E-05  0.339E-03    1.38       4.4  T
   6    -69.5236863 -0.218189E-06  0.144E-03    1.38      10.4  T
   7    -69.5236863 -0.639389E-07  0.499E-04    1.38      29.9  T
   8    -69.5236863 -0.429510E-08  0.240E-04    1.38      62.2  T
     SCC iter.                  ...        0 min,  0.122 sec
     gradient                   ...        0 min,  0.010 sec
 * total energy  :   -68.4994712 Eh     change       -0.4042912E-03 Eh
   gradient norm :     0.0107011 Eh/α   predicted    -0.4253385E-03 (   5.21%)
   displ. norm   :     0.4282764 α      lambda       -0.5575010E-03
   maximum displ.:     0.2844885 α      in ANC's #4, #5, #1, ...

........................................................................
.............................. CYCLE   12 ..............................
........................................................................
   1    -69.5261540 -0.695262E+02  0.816E-02    1.37       0.0  T
   2    -69.5261574 -0.341590E-05  0.455E-02    1.37       1.0  T
   3    -69.5261475  0.991783E-05  0.167E-02    1.37       1.0  T
   4    -69.5261588 -0.112632E-04  0.530E-03    1.37       2.8  T
   5    -69.5261592 -0.445172E-06  0.264E-03    1.37       5.6  T
   6    -69.5261594 -0.162281E-06  0.930E-04    1.37      16.0  T
   7    -69.5261594 -0.292506E-07  0.364E-04    1.37      40.9  T
     SCC iter.                  ...        0 min,  0.103 sec
     gradient                   ...        0 min,  0.010 sec
 * total energy  :   -68.4999118 Eh     change       -0.4405564E-03 Eh
   gradient norm :     0.0069292 Eh/α   predicted    -0.3298798E-03 ( -25.12%)
   displ. norm   :     0.5206198 α      lambda       -0.5081517E-03
   maximum displ.:     0.3405727 α      in ANC's #4, #5, #1, ...

........................................................................
.............................. CYCLE   13 ..............................
........................................................................
   1    -69.5257213 -0.695257E+02  0.990E-02    1.36       0.0  T
   2    -69.5257259 -0.462034E-05  0.551E-02    1.37       1.0  T
   3    -69.5257082  0.177440E-04  0.221E-02    1.37       1.0  T
   4    -69.5257282 -0.200355E-04  0.636E-03    1.36       2.3  T
   5    -69.5257288 -0.629550E-06  0.304E-03    1.37       4.9  T
   6    -69.5257290 -0.182170E-06  0.118E-03    1.37      12.6  T
   7    -69.5257290 -0.472817E-07  0.440E-04    1.37      33.9  T
   8    -69.5257290 -0.941498E-09  0.256E-04    1.37      58.3  T
     SCC iter.                  ...        0 min,  0.118 sec
     gradient                   ...        0 min,  0.009 sec
 * total energy  :   -68.5003075 Eh     change       -0.3957718E-03 Eh
   gradient norm :     0.0069846 Eh/α   predicted    -0.3229445E-03 ( -18.40%)
   displ. norm   :     0.5254414 α      lambda       -0.3972377E-03
   maximum displ.:     0.3393750 α      in ANC's #4, #5, #1, ...

........................................................................
.............................. CYCLE   14 ..............................
........................................................................
   1    -69.5229102 -0.695229E+02  0.987E-02    1.35       0.0  T
   2    -69.5229154 -0.529778E-05  0.551E-02    1.36       1.0  T
   3    -69.5228966  0.188823E-04  0.224E-02    1.36       1.0  T
   4    -69.5229180 -0.214375E-04  0.620E-03    1.36       2.4  T
   5    -69.5229186 -0.593926E-06  0.297E-03    1.36       5.0  T
   6    -69.5229188 -0.157511E-06  0.129E-03    1.36      11.6  T
   7    -69.5229188 -0.546033E-07  0.439E-04    1.36      33.9  T
   8    -69.5229188 -0.129928E-08  0.253E-04    1.36      59.0  T
     SCC iter.                  ...        0 min,  0.117 sec
     gradient                   ...        0 min,  0.010 sec
 * total energy  :   -68.5006060 Eh     change       -0.2984540E-03 Eh
   gradient norm :     0.0081127 Eh/α   predicted    -0.2534561E-03 ( -15.08%)
   displ. norm   :     0.4472642 α      lambda       -0.3320440E-03
   maximum displ.:     0.2667912 α      in ANC's #4, #5, #1, ...

........................................................................
.............................. CYCLE   15 ..............................
........................................................................
   1    -69.5236611 -0.695237E+02  0.902E-02    1.35       0.0  T
   2    -69.5236650 -0.389392E-05  0.505E-02    1.35       1.0  T
   3    -69.5236483  0.166559E-04  0.212E-02    1.35       1.0  T
   4    -69.5236672 -0.189431E-04  0.551E-03    1.35       2.7  T
   5    -69.5236676 -0.346086E-06  0.277E-03    1.35       5.4  T
   6    -69.5236678 -0.161316E-06  0.107E-03    1.35      13.9  T
   7    -69.5236678 -0.346281E-07  0.417E-04    1.35      35.7  T
   8    -69.5236678 -0.111191E-08  0.227E-04    1.35      65.7  T
     SCC iter.                  ...        0 min,  0.120 sec
     gradient                   ...        0 min,  0.009 sec
 * total energy  :   -68.5008089 Eh     change       -0.2029420E-03 Eh
   gradient norm :     0.0078163 Eh/α   predicted    -0.1992372E-03 (  -1.83%)
   displ. norm   :     0.4218774 α      lambda       -0.2659190E-03
   maximum displ.:     0.2670859 α      in ANC's #4, #5, #1, ...

........................................................................
.............................. CYCLE   16 ..............................
........................................................................
   1    -69.5194946 -0.695195E+02  0.808E-02    1.34       0.0  T
   2    -69.5194984 -0.386541E-05  0.458E-02    1.35       1.0  T
   3    -69.5194842  0.142430E-04  0.188E-02    1.34       1.0  T
   4    -69.5195003 -0.161110E-04  0.491E-03    1.35       3.0  T
   5    -69.5195007 -0.348093E-06  0.231E-03    1.35       6.5  T
   6    -69.5195008 -0.101547E-06  0.954E-04    1.35      15.6  T
   7    -69.5195008 -0.274135E-07  0.358E-04    1.35      41.6  T
     SCC iter.                  ...        0 min,  0.103 sec
     gradient                   ...        0 min,  0.010 sec
 * total energy  :   -68.5009524 Eh     change       -0.1434473E-03 Eh
   gradient norm :     0.0071591 Eh/α   predicted    -0.1566249E-03 (   9.19%)
   displ. norm   :     0.1333801 α      lambda       -0.1584122E-03
   maximum displ.:     0.0541354 α      in ANC's #5, #4, #22, ...

........................................................................
.............................. CYCLE   17 ..............................
........................................................................
   1    -69.5239185 -0.695239E+02  0.311E-02    1.34       0.0  T
   2    -69.5239195 -0.101114E-05  0.177E-02    1.35       1.0  T
   3    -69.5239178  0.175260E-05  0.744E-03    1.35       2.0  T
   4    -69.5239197 -0.193824E-05  0.245E-03    1.35       6.1  T
   5    -69.5239199 -0.153745E-06  0.953E-04    1.35      15.6  T
   6    -69.5239199 -0.125626E-07  0.462E-04    1.35      32.3  T
     SCC iter.                  ...        0 min,  0.088 sec
     gradient                   ...        0 min,  0.009 sec
 * total energy  :   -68.5010580 Eh     change       -0.1056094E-03 Eh
   gradient norm :     0.0056298 Eh/α   predicted    -0.8061527E-04 ( -23.67%)
   displ. norm   :     0.3405659 α      lambda       -0.1918958E-03
   maximum displ.:     0.2047305 α      in ANC's #4, #5, #1, ...

........................................................................
.............................. CYCLE   18 ..............................
........................................................................
   1    -69.5241281 -0.695241E+02  0.689E-02    1.34       0.0  T
   2    -69.5241307 -0.257768E-05  0.389E-02    1.34       1.0  T
   3    -69.5241223  0.840760E-05  0.144E-02    1.34       1.0  T
   4    -69.5241317 -0.944237E-05  0.443E-03    1.34       3.4  T
   5    -69.5241321 -0.357226E-06  0.207E-03    1.34       7.2  T
   6    -69.5241322 -0.102052E-06  0.774E-04    1.34      19.3  T
   7    -69.5241322 -0.184958E-07  0.292E-04    1.34      51.1  T
     SCC iter.                  ...        0 min,  0.102 sec
     gradient                   ...        0 min,  0.009 sec
 * total energy  :   -68.5011512 Eh     change       -0.9320313E-04 Eh
   gradient norm :     0.0056029 Eh/α   predicted    -0.1070867E-03 (  14.90%)
   displ. norm   :     0.1552317 α      lambda       -0.1259306E-03
   maximum displ.:     0.0715435 α      in ANC's #5, #2, #15, ...

........................................................................
.............................. CYCLE   19 ..............................
........................................................................
   1    -69.5262287 -0.695262E+02  0.322E-02    1.34       0.0  T
   2    -69.5262296 -0.980490E-06  0.186E-02    1.34       1.0  T
   3    -69.5262277  0.190352E-05  0.722E-03    1.34       2.1  T
   4    -69.5262298 -0.208333E-05  0.263E-03    1.34       5.7  T
   5    -69.5262300 -0.172946E-06  0.111E-03    1.34      13.5  T
   6    -69.5262300 -0.183661E-07  0.518E-04    1.34      28.8  T
   7    -69.5262300 -0.694031E-08  0.190E-04    1.34      78.4  T
     SCC iter.                  ...        0 min,  0.102 sec
     gradient                   ...        0 min,  0.009 sec
 * total energy  :   -68.5012398 Eh     change       -0.8858264E-04 Eh
   gradient norm :     0.0053405 Eh/α   predicted    -0.6448824E-04 ( -27.20%)
   displ. norm   :     0.2781830 α      lambda       -0.1551811E-03
   maximum displ.:     0.1500946 α      in ANC's #5, #4, #1, ...

........................................................................
.............................. CYCLE   20 ..............................
........................................................................
   1    -69.5261525 -0.695262E+02  0.564E-02    1.33       0.0  T
   2    -69.5261535 -0.108105E-05  0.318E-02    1.34       1.0  T
   3    -69.5261477  0.579699E-05  0.118E-02    1.33       1.3  T
   4    -69.5261541 -0.641041E-05  0.336E-03    1.34       4.4  T
   5    -69.5261543 -0.133813E-06  0.131E-03    1.34      11.4  T
   6    -69.5261543 -0.366661E-07  0.368E-04    1.34      40.6  T
   7    -69.5261543 -0.109968E-08  0.216E-04    1.34      68.9  T
     SCC iter.                  ...        0 min,  0.102 sec
     gradient                   ...        0 min,  0.009 sec
 * total energy  :   -68.5013516 Eh     change       -0.1118266E-03 Eh
   gradient norm :     0.0053065 Eh/α   predicted    -0.8360437E-04 ( -25.24%)
   displ. norm   :     0.3106483 α      lambda       -0.1609135E-03
   maximum displ.:     0.1629606 α      in ANC's #5, #4, #1, ...
 * RMSD in coord.:     0.9958595 α      energy gain  -0.1928810E-01 Eh

generating ANC from model Hessian ...
Using Lindh-Hessian (1995)
 Shifting diagonal of input Hessian by    9.8746459488934773E-003
 Lowest  eigenvalues of input Hessian
    0.000000    0.000000    0.000000    0.000000    0.000000    0.000000
    0.010000    0.010258    0.010367    0.010552    0.010728    0.011702
    0.012752    0.012980    0.013313    0.014219    0.014600    0.015309
 Highest eigenvalues
    1.855432    1.903460    1.908028    1.952934    2.001647    2.032089


........................................................................
.............................. CYCLE   21 ..............................
........................................................................
   1    -69.5260295 -0.695260E+02  0.643E-02    1.33       0.0  T
   2    -69.5260306 -0.106380E-05  0.367E-02    1.33       1.0  T
   3    -69.5260291  0.148469E-05  0.739E-03    1.33       2.0  T
   4    -69.5260308 -0.169864E-05  0.323E-03    1.33       4.6  T
   5    -69.5260309 -0.137721E-06  0.151E-03    1.33       9.9  T
   6    -69.5260310 -0.840992E-07  0.490E-04    1.33      30.4  T
   7    -69.5260310 -0.472399E-08  0.284E-04    1.33      52.6  T
     SCC iter.                  ...        0 min,  0.102 sec
     gradient                   ...        0 min,  0.009 sec
 * total energy  :   -68.5014582 Eh     change       -0.1066105E-03 Eh
   gradient norm :     0.0053590 Eh/α   predicted     0.0000000E+00 (-100.00%)
   displ. norm   :     0.0611560 α      lambda       -0.2886112E-04
   maximum displ.:     0.0259636 α      in ANC's #4, #8, #7, ...

........................................................................
.............................. CYCLE   22 ..............................
........................................................................
   1    -69.5263582 -0.695264E+02  0.182E-02    1.34       0.0  T
   2    -69.5263585 -0.223942E-06  0.108E-02    1.33       1.4  T
   3    -69.5263566  0.182997E-05  0.825E-03    1.34       1.8  T
   4    -69.5263592 -0.254049E-05  0.139E-03    1.34      10.7  T
   5    -69.5263592 -0.934604E-08  0.684E-04    1.34      21.8  T
   6    -69.5263592 -0.583790E-08  0.331E-04    1.34      45.1  T
     SCC iter.                  ...        0 min,  0.088 sec
     gradient                   ...        0 min,  0.010 sec
 * total energy  :   -68.5015361 Eh     change       -0.7791334E-04 Eh
   gradient norm :     0.0023034 Eh/α   predicted    -0.4971925E-04 ( -36.19%)
   displ. norm   :     0.1484069 α      lambda       -0.1271751E-03
   maximum displ.:     0.0696053 α      in ANC's #4, #7, #8, ...

........................................................................
.............................. CYCLE   23 ..............................
........................................................................
   1    -69.5261836 -0.695262E+02  0.357E-02    1.34       0.0  T
   2    -69.5261842 -0.622533E-06  0.207E-02    1.34       1.0  T
   3    -69.5261769  0.733224E-05  0.145E-02    1.34       1.0  T
   4    -69.5261857 -0.879585E-05  0.238E-03    1.34       6.3  T
   5    -69.5261857 -0.231240E-07  0.107E-03    1.34      14.0  T
   6    -69.5261857 -0.170297E-07  0.482E-04    1.34      30.9  T
   7    -69.5261857 -0.646536E-08  0.218E-04    1.34      68.3  T
     SCC iter.                  ...        0 min,  0.103 sec
     gradient                   ...        0 min,  0.009 sec
 * total energy  :   -68.5016198 Eh     change       -0.8365876E-04 Eh
   gradient norm :     0.0030501 Eh/α   predicted    -0.6498907E-04 ( -22.32%)
   displ. norm   :     0.1301008 α      lambda       -0.6167995E-04
   maximum displ.:     0.0659531 α      in ANC's #4, #7, #8, ...

........................................................................
.............................. CYCLE   24 ..............................
........................................................................
   1    -69.5257503 -0.695258E+02  0.288E-02    1.34       0.0  T
   2    -69.5257506 -0.350905E-06  0.161E-02    1.34       1.0  T
   3    -69.5257489  0.172514E-05  0.658E-03    1.34       2.3  T
   4    -69.5257508 -0.191953E-05  0.188E-03    1.34       7.9  T
   5    -69.5257509 -0.482670E-07  0.657E-04    1.34      22.7  T
   6    -69.5257509 -0.727398E-08  0.302E-04    1.34      49.4  T
     SCC iter.                  ...        0 min,  0.088 sec
     gradient                   ...        0 min,  0.009 sec
 * total energy  :   -68.5016698 Eh     change       -0.5003839E-04 Eh
   gradient norm :     0.0038983 Eh/α   predicted    -0.3140452E-04 ( -37.24%)
   displ. norm   :     0.2172072 α      lambda       -0.9878962E-04
   maximum displ.:     0.1125662 α      in ANC's #4, #7, #1, ...

........................................................................
.............................. CYCLE   25 ..............................
........................................................................
   1    -69.5250146 -0.695250E+02  0.478E-02    1.34       0.0  T
   2    -69.5250155 -0.846967E-06  0.268E-02    1.34       1.0  T
   3    -69.5250112  0.426390E-05  0.108E-02    1.34       1.4  T
   4    -69.5250160 -0.480131E-05  0.303E-03    1.34       4.9  T
   5    -69.5250161 -0.915068E-07  0.993E-04    1.34      15.0  T
   6    -69.5250161 -0.207905E-07  0.476E-04    1.34      31.3  T
     SCC iter.                  ...        0 min,  0.088 sec
     gradient                   ...        0 min,  0.010 sec
 * total energy  :   -68.5017438 Eh     change       -0.7402326E-04 Eh
   gradient norm :     0.0033268 Eh/α   predicted    -0.5172575E-04 ( -30.12%)
   displ. norm   :     0.1991791 α      lambda       -0.7260325E-04
   maximum displ.:     0.1101053 α      in ANC's #4, #1, #7, ...

........................................................................
.............................. CYCLE   26 ..............................
........................................................................
   1    -69.5249084 -0.695249E+02  0.440E-02    1.34       0.0  T
   2    -69.5249090 -0.580186E-06  0.251E-02    1.34       1.0  T
   3    -69.5249024  0.664236E-05  0.136E-02    1.34       1.1  T
   4    -69.5249100 -0.758033E-05  0.270E-03    1.34       5.5  T
   5    -69.5249100 -0.145692E-07  0.100E-03    1.34      14.9  T
   6    -69.5249100 -0.304608E-07  0.492E-04    1.34      30.3  T
   7    -69.5249100 -0.523335E-08  0.248E-04    1.34      60.1  T
     SCC iter.                  ...        0 min,  0.103 sec
     gradient                   ...        0 min,  0.009 sec
 * total energy  :   -68.5017962 Eh     change       -0.5235165E-04 Eh
   gradient norm :     0.0024151 Eh/α   predicted    -0.3774242E-04 ( -27.91%)
   displ. norm   :     0.1474705 α      lambda       -0.4568819E-04
   maximum displ.:     0.0869977 α      in ANC's #4, #1, #7, ...

........................................................................
.............................. CYCLE   27 ..............................
........................................................................
   1    -69.5256454 -0.695256E+02  0.328E-02    1.34       0.0  T
   2    -69.5256457 -0.296578E-06  0.189E-02    1.34       1.0  T
   3    -69.5256419  0.379995E-05  0.103E-02    1.34       1.4  T
   4    -69.5256463 -0.431857E-05  0.196E-03    1.34       7.6  T
   5    -69.5256463 -0.908491E-08  0.750E-04    1.34      19.9  T
   6    -69.5256463 -0.161836E-07  0.363E-04    1.34      41.0  T
     SCC iter.                  ...        0 min,  0.088 sec
     gradient                   ...        0 min,  0.010 sec
 * total energy  :   -68.5018317 Eh     change       -0.3552699E-04 Eh
   gradient norm :     0.0019493 Eh/α   predicted    -0.2334099E-04 ( -34.30%)
   displ. norm   :     0.2351685 α      lambda       -0.4435327E-04
   maximum displ.:     0.1415427 α      in ANC's #4, #1, #2, ...

........................................................................
.............................. CYCLE   28 ..............................
........................................................................
   1    -69.5268425 -0.695268E+02  0.518E-02    1.34       0.0  T
   2    -69.5268433 -0.845519E-06  0.296E-02    1.34       1.0  T
   3    -69.5268383  0.497602E-05  0.120E-02    1.34       1.2  T
   4    -69.5268439 -0.554732E-05  0.308E-03    1.34       4.8  T
   5    -69.5268440 -0.909870E-07  0.114E-03    1.34      13.1  T
   6    -69.5268440 -0.324454E-07  0.485E-04    1.34      30.7  T
   7    -69.5268440 -0.470023E-08  0.263E-04    1.34      56.6  T
     SCC iter.                  ...        0 min,  0.102 sec
     gradient                   ...        0 min,  0.009 sec
 * total energy  :   -68.5018796 Eh     change       -0.4790771E-04 Eh
   gradient norm :     0.0021114 Eh/α   predicted    -0.2272185E-04 ( -52.57%)
   displ. norm   :     0.1327177 α      lambda       -0.3374503E-04
   maximum displ.:     0.0804297 α      in ANC's #4, #1, #2, ...

........................................................................
.............................. CYCLE   29 ..............................
........................................................................
   1    -69.5270041 -0.695270E+02  0.271E-02    1.34       0.0  T
   2    -69.5270043 -0.194132E-06  0.153E-02    1.34       1.0  T
   3    -69.5270041  0.181522E-06  0.288E-03    1.34       5.2  T
   4    -69.5270043 -0.183010E-06  0.159E-03    1.34       9.4  T
   5    -69.5270043 -0.552415E-07  0.494E-04    1.34      30.2  T
   6    -69.5270043 -0.962197E-08  0.153E-04    1.34      97.4  T
     SCC iter.                  ...        0 min,  0.088 sec
     gradient                   ...        0 min,  0.009 sec
 * total energy  :   -68.5019097 Eh     change       -0.3008150E-04 Eh
   gradient norm :     0.0018948 Eh/α   predicted    -0.1717256E-04 ( -42.91%)
   displ. norm   :     0.3321648 α      lambda       -0.6033400E-04
   maximum displ.:     0.1952875 α      in ANC's #4, #1, #2, ...

........................................................................
.............................. CYCLE   30 ..............................
........................................................................
   1    -69.5275063 -0.695275E+02  0.674E-02    1.33       0.0  T
   2    -69.5275073 -0.997244E-06  0.377E-02    1.33       1.0  T
   3    -69.5275054  0.184095E-05  0.836E-03    1.34       1.8  T
   4    -69.5275074 -0.198207E-05  0.397E-03    1.34       3.8  T
   5    -69.5275077 -0.266924E-06  0.127E-03    1.34      11.7  T
   6    -69.5275077 -0.571715E-07  0.365E-04    1.34      40.8  T
   7    -69.5275077 -0.191227E-08  0.221E-04    1.34      67.5  T
     SCC iter.                  ...        0 min,  0.102 sec
     gradient                   ...        0 min,  0.009 sec
 * total energy  :   -68.5019752 Eh     change       -0.6549404E-04 Eh
   gradient norm :     0.0024843 Eh/α   predicted    -0.3164671E-04 ( -51.68%)
   displ. norm   :     0.2040598 α      lambda       -0.3975684E-04
   maximum displ.:     0.1237492 α      in ANC's #4, #1, #2, ...

........................................................................
.............................. CYCLE   31 ..............................
........................................................................
   1    -69.5265582 -0.695266E+02  0.375E-02    1.33       0.0  T
   2    -69.5265585 -0.369438E-06  0.210E-02    1.33       1.0  T
   3    -69.5265582  0.300515E-06  0.415E-03    1.33       3.6  T
   4    -69.5265586 -0.322689E-06  0.216E-03    1.33       6.9  T
   5    -69.5265587 -0.907923E-07  0.560E-04    1.33      26.6  T
   6    -69.5265587 -0.806659E-08  0.239E-04    1.33      62.3  T
     SCC iter.                  ...        0 min,  0.088 sec
     gradient                   ...        0 min,  0.009 sec
 * total energy  :   -68.5020083 Eh     change       -0.3314282E-04 Eh
   gradient norm :     0.0022501 Eh/α   predicted    -0.2070629E-04 ( -37.52%)
   displ. norm   :     0.2548231 α      lambda       -0.5203825E-04
   maximum displ.:     0.1498502 α      in ANC's #4, #1, #2, ...

........................................................................
.............................. CYCLE   32 ..............................
........................................................................
   1    -69.5264476 -0.695264E+02  0.461E-02    1.33       0.0  T
   2    -69.5264482 -0.559062E-06  0.256E-02    1.33       1.0  T
   3    -69.5264477  0.487893E-06  0.540E-03    1.33       2.8  T
   4    -69.5264482 -0.541721E-06  0.268E-03    1.33       5.6  T
   5    -69.5264483 -0.124066E-06  0.793E-04    1.33      18.8  T
   6    -69.5264483 -0.128576E-07  0.266E-04    1.33      56.1  T
     SCC iter.                  ...        0 min,  0.088 sec
     gradient                   ...        0 min,  0.009 sec
 * total energy  :   -68.5020501 Eh     change       -0.4172392E-04 Eh
   gradient norm :     0.0016894 Eh/α   predicted    -0.2770992E-04 ( -33.59%)
   displ. norm   :     0.4135621 α      lambda       -0.4591114E-04
   maximum displ.:     0.2457791 α      in ANC's #4, #1, #2, ...

........................................................................
.............................. CYCLE   33 ..............................
........................................................................
   1    -69.5253388 -0.695253E+02  0.719E-02    1.33       0.0  T
   2    -69.5253403 -0.143762E-05  0.399E-02    1.33       1.0  T
   3    -69.5253387  0.158563E-05  0.895E-03    1.33       1.7  T
   4    -69.5253404 -0.167743E-05  0.441E-03    1.33       3.4  T
   5    -69.5253407 -0.363156E-06  0.145E-03    1.33      10.3  T
   6    -69.5253408 -0.410106E-07  0.542E-04    1.33      27.5  T
   7    -69.5253408 -0.885261E-08  0.256E-04    1.33      58.2  T
     SCC iter.                  ...        0 min,  0.105 sec
     gradient                   ...        0 min,  0.009 sec
 * total energy  :   -68.5020947 Eh     change       -0.4460982E-04 Eh
   gradient norm :     0.0022118 Eh/α   predicted    -0.2470286E-04 ( -44.62%)
   displ. norm   :     0.1214878 α      lambda       -0.2271993E-04
   maximum displ.:     0.0754394 α      in ANC's #1, #4, #2, ...

........................................................................
.............................. CYCLE   34 ..............................
........................................................................
   1    -69.5258664 -0.695259E+02  0.211E-02    1.33       0.0  T
   2    -69.5258665 -0.124064E-06  0.118E-02    1.33       1.3  T
   3    -69.5258660  0.527640E-06  0.403E-03    1.33       3.7  T
   4    -69.5258666 -0.588815E-06  0.128E-03    1.33      11.7  T
   5    -69.5258666 -0.175041E-07  0.486E-04    1.33      30.7  T
   6    -69.5258666 -0.528250E-08  0.165E-04    1.33      90.5  T
     SCC iter.                  ...        0 min,  0.088 sec
     gradient                   ...        0 min,  0.009 sec
 * total energy  :   -68.5021140 Eh     change       -0.1931138E-04 Eh
   gradient norm :     0.0018971 Eh/α   predicted    -0.1152841E-04 ( -40.30%)
   displ. norm   :     0.3634349 α      lambda       -0.4536114E-04
   maximum displ.:     0.2231337 α      in ANC's #1, #4, #2, ...

........................................................................
.............................. CYCLE   35 ..............................
........................................................................
   1    -69.5261682 -0.695262E+02  0.642E-02    1.32       0.0  T
   2    -69.5261691 -0.879267E-06  0.360E-02    1.33       1.0  T
   3    -69.5261620  0.705779E-05  0.139E-02    1.32       1.1  T
   4    -69.5261699 -0.789557E-05  0.355E-03    1.33       4.2  T
   5    -69.5261700 -0.532744E-07  0.120E-03    1.33      12.4  T
   6    -69.5261700 -0.478346E-07  0.346E-04    1.33      43.1  T
   7    -69.5261700 -0.227097E-08  0.199E-04    1.33      75.0  T
     SCC iter.                  ...        0 min,  0.102 sec
     gradient                   ...        0 min,  0.011 sec
 * total energy  :   -68.5021596 Eh     change       -0.4559500E-04 Eh
   gradient norm :     0.0022149 Eh/α   predicted    -0.2401454E-04 ( -47.33%)
   displ. norm   :     0.1747140 α      lambda       -0.2526587E-04
   maximum displ.:     0.1111025 α      in ANC's #1, #4, #2, ...

........................................................................
.............................. CYCLE   36 ..............................
........................................................................
   1    -69.5260515 -0.695261E+02  0.309E-02    1.32       0.0  T
   2    -69.5260517 -0.232873E-06  0.172E-02    1.32       1.0  T
   3    -69.5260514  0.344130E-06  0.382E-03    1.32       3.9  T
   4    -69.5260517 -0.364713E-06  0.192E-03    1.32       7.8  T
   5    -69.5260518 -0.682818E-07  0.509E-04    1.32      29.3  T
   6    -69.5260518 -0.834542E-08  0.160E-04    1.32      92.9  T
     SCC iter.                  ...        0 min,  0.088 sec
     gradient                   ...        0 min,  0.009 sec
 * total energy  :   -68.5021804 Eh     change       -0.2082158E-04 Eh
   gradient norm :     0.0018656 Eh/α   predicted    -0.1302250E-04 ( -37.46%)
   displ. norm   :     0.3454173 α      lambda       -0.3397931E-04
   maximum displ.:     0.2185923 α      in ANC's #1, #4, #2, ...

........................................................................
.............................. CYCLE   37 ..............................
........................................................................
   1    -69.5259291 -0.695259E+02  0.618E-02    1.32       0.0  T
   2    -69.5259301 -0.104807E-05  0.345E-02    1.32       1.0  T
   3    -69.5259294  0.688869E-06  0.646E-03    1.32       2.3  T
   4    -69.5259301 -0.648016E-06  0.378E-03    1.32       3.9  T
   5    -69.5259304 -0.330974E-06  0.118E-03    1.32      12.7  T
   6    -69.5259304 -0.424955E-07  0.362E-04    1.32      41.2  T
   7    -69.5259304 -0.378088E-08  0.150E-04    1.32      99.6  T
     SCC iter.                  ...        0 min,  0.102 sec
     gradient                   ...        0 min,  0.009 sec
 * total energy  :   -68.5022137 Eh     change       -0.3327228E-04 Eh
   gradient norm :     0.0013753 Eh/α   predicted    -0.1789178E-04 ( -46.23%)
   displ. norm   :     0.1601027 α      lambda       -0.1406818E-04
   maximum displ.:     0.1049726 α      in ANC's #1, #4, #3, ...

........................................................................
.............................. CYCLE   38 ..............................
........................................................................
   1    -69.5265959 -0.695266E+02  0.296E-02    1.32       0.0  T
   2    -69.5265962 -0.294466E-06  0.163E-02    1.32       1.0  T
   3    -69.5265959  0.256762E-06  0.366E-03    1.32       4.1  T
   4    -69.5265962 -0.262677E-06  0.195E-03    1.32       7.6  T
   5    -69.5265963 -0.770672E-07  0.594E-04    1.32      25.1  T
   6    -69.5265963 -0.104158E-07  0.208E-04    1.32      71.6  T
     SCC iter.                  ...        0 min,  0.088 sec
     gradient                   ...        0 min,  0.009 sec
 * total energy  :   -68.5022286 Eh     change       -0.1493689E-04 Eh
   gradient norm :     0.0012474 Eh/α   predicted    -0.7114950E-05 ( -52.37%)
   displ. norm   :     0.2076441 α      lambda       -0.1434720E-04
   maximum displ.:     0.1332076 α      in ANC's #1, #4, #2, ...

........................................................................
.............................. CYCLE   39 ..............................
........................................................................
   1    -69.5259630 -0.695260E+02  0.379E-02    1.32       0.0  T
   2    -69.5259634 -0.436044E-06  0.211E-02    1.32       1.0  T
   3    -69.5259633  0.156179E-06  0.383E-03    1.32       3.9  T
   4    -69.5259634 -0.150335E-06  0.221E-03    1.32       6.7  T
   5    -69.5259636 -0.116108E-06  0.592E-04    1.32      25.2  T
   6    -69.5259636 -0.810336E-08  0.230E-04    1.32      64.9  T
     SCC iter.                  ...        0 min,  0.087 sec
     gradient                   ...        0 min,  0.009 sec
 * total energy  :   -68.5022417 Eh     change       -0.1308479E-04 Eh
   gradient norm :     0.0015483 Eh/α   predicted    -0.7312731E-05 ( -44.11%)
   displ. norm   :     0.1099651 α      lambda       -0.1043574E-04
   maximum displ.:     0.0719769 α      in ANC's #1, #3, #6, ...

........................................................................
.............................. CYCLE   40 ..............................
........................................................................
   1    -69.5266811 -0.695267E+02  0.230E-02    1.32       0.0  T
   2    -69.5266813 -0.183622E-06  0.127E-02    1.32       1.2  T
   3    -69.5266811  0.245326E-06  0.298E-03    1.32       5.0  T
   4    -69.5266813 -0.238467E-06  0.155E-03    1.32       9.6  T
   5    -69.5266814 -0.641698E-07  0.448E-04    1.32      33.2  T
   6    -69.5266814 -0.377142E-08  0.163E-04    1.32      91.5  T
     SCC iter.                  ...        0 min,  0.087 sec
     gradient                   ...        0 min,  0.009 sec
 * total energy  :   -68.5022520 Eh     change       -0.1032528E-04 Eh
   gradient norm :     0.0012951 Eh/α   predicted    -0.5246182E-05 ( -49.19%)
   displ. norm   :     0.1243259 α      lambda       -0.7848929E-05
   maximum displ.:     0.0816756 α      in ANC's #1, #4, #3, ...

........................................................................
.............................. CYCLE   41 ..............................
........................................................................
   1    -69.5263124 -0.695263E+02  0.241E-02    1.32       0.0  T
   2    -69.5263126 -0.194427E-06  0.133E-02    1.32       1.1  T
   3    -69.5263113  0.123122E-05  0.603E-03    1.32       2.5  T
   4    -69.5263128 -0.141765E-05  0.152E-03    1.32       9.8  T
   5    -69.5263128 -0.533349E-08  0.726E-04    1.32      20.5  T
   6    -69.5263128 -0.167486E-07  0.196E-04    1.32      76.2  T
     SCC iter.                  ...        0 min,  0.087 sec
     gradient                   ...        0 min,  0.009 sec
 * total energy  :   -68.5022598 Eh     change       -0.7822184E-05 Eh
   gradient norm :     0.0010721 Eh/α   predicted    -0.3955974E-05 ( -49.43%)
   displ. norm   :     0.1282116 α      lambda       -0.7790686E-05
   maximum displ.:     0.0851948 α      in ANC's #1, #4, #3, ...

........................................................................
.............................. CYCLE   42 ..............................
........................................................................
   1    -69.5263499 -0.695263E+02  0.227E-02    1.32       0.0  T
   2    -69.5263500 -0.140182E-06  0.127E-02    1.32       1.2  T
   3    -69.5263486  0.140467E-05  0.595E-03    1.32       2.5  T
   4    -69.5263502 -0.157699E-05  0.136E-03    1.32      11.0  T
   5    -69.5263502 -0.869970E-08  0.534E-04    1.32      27.9  T
   6    -69.5263502 -0.785420E-08  0.155E-04    1.32      96.4  T
     SCC iter.                  ...        0 min,  0.087 sec
     gradient                   ...        0 min,  0.009 sec
 * total energy  :   -68.5022674 Eh     change       -0.7602619E-05 Eh
   gradient norm :     0.0009664 Eh/α   predicted    -0.3928598E-05 ( -48.33%)
   displ. norm   :     0.1121089 α      lambda       -0.5154981E-05
   maximum displ.:     0.0746831 α      in ANC's #1, #4, #3, ...
 * RMSD in coord.:     0.5685723 α      energy gain  -0.9158547E-03 Eh

generating ANC from model Hessian ...
Using Lindh-Hessian (1995)
 Shifting diagonal of input Hessian by    9.8746820370107669E-003
 Lowest  eigenvalues of input Hessian
    0.000000    0.000000    0.000000    0.000000    0.000000    0.000000
    0.010000    0.010260    0.010365    0.010533    0.010766    0.011678
    0.012776    0.012952    0.013233    0.014176    0.014557    0.015357
 Highest eigenvalues
    1.856457    1.902296    1.908591    1.953563    2.002907    2.031809


........................................................................
.............................. CYCLE   43 ..............................
........................................................................
   1    -69.5262683 -0.695263E+02  0.208E-02    1.32       0.0  T
   2    -69.5262685 -0.113689E-06  0.115E-02    1.32       1.3  T
   3    -69.5262680  0.438664E-06  0.365E-03    1.32       4.1  T
   4    -69.5262685 -0.487132E-06  0.128E-03    1.32      11.6  T
   5    -69.5262685 -0.199921E-07  0.347E-04    1.32      43.0  T
   6    -69.5262685 -0.334734E-08  0.113E-04    1.32     131.7  T
     SCC iter.                  ...        0 min,  0.088 sec
     gradient                   ...        0 min,  0.009 sec
 * total energy  :   -68.5022726 Eh     change       -0.5191279E-05 Eh
   gradient norm :     0.0008799 Eh/α   predicted     0.0000000E+00 (-100.00%)
   displ. norm   :     0.0187332 α      lambda       -0.3155949E-05
   maximum displ.:     0.0089367 α      in ANC's #3, #5, #6, ...

........................................................................
.............................. CYCLE   44 ..............................
........................................................................
   1    -69.5264369 -0.695264E+02  0.610E-03    1.32       0.0  T
   2    -69.5264370 -0.137181E-07  0.367E-03    1.32       4.1  T
   3    -69.5264367  0.257346E-06  0.268E-03    1.32       5.6  T
   4    -69.5264370 -0.305600E-06  0.317E-04    1.32      47.0  T
   5    -69.5264370 -0.253536E-09  0.156E-04    1.32      95.3  T
     SCC iter.                  ...        0 min,  0.074 sec
     gradient                   ...        0 min,  0.009 sec
 * total energy  :   -68.5022761 Eh     change       -0.3480176E-05 Eh
   gradient norm :     0.0004359 Eh/α   predicted    -0.1620785E-05 ( -53.43%)
   displ. norm   :     0.0424257 α      lambda       -0.4063944E-05
   maximum displ.:     0.0215706 α      in ANC's #3, #5, #6, ...

   *** GEOMETRY OPTIMIZATION CONVERGED AFTER 44 ITERATIONS ***

------------------------------------------------------------------------
 total energy gain   :        -0.0202126 Eh      -12.6836 kcal/mol
 total RMSD          :         1.3762551 a0        0.7283 Å
 total power (kW/mol):        -1.2060963 (step)  -10.1041 (real)
------------------------------------------------------------------------

 ANCopt (total)                0 d,  0 h,  0 min,  5.252 sec
 optimizer setup                ...        0 min,  0.000 sec (  0.005%)
 model hessian                  ...        0 min,  0.027 sec (  0.523%)
 ANC generation                 ...        0 min,  0.027 sec (  0.509%)
 coordinate transformation      ...        0 min,  0.003 sec (  0.060%)
 single point calculation       ...        0 min,  5.171 sec ( 98.456%)
 optimization log               ...        0 min,  0.006 sec (  0.121%)
 hessian update                 ...        0 min,  0.003 sec (  0.050%)
 rational function              ...        0 min,  0.008 sec (  0.146%)

================
 final structure:
================
45
 xtb: 6.5.1 (fef0646)
N            3.42542157988053        0.91181608345843        3.39871721269356
C            2.69106049728019        1.61616882892347        2.31119578877979
C            3.61576247447373        2.66703615022198        1.68717233051613
C            4.81546769738261        2.02423488513418        1.07532730338542
C            5.06091897025893        1.72527041899704       -0.22772598000389
C            6.26619791929415        1.03033096256866       -0.43484953563794
C            6.96704024058938        0.76694407135786        0.71409039762405
C            8.19594741152098        0.08697073169003        0.88651500204478
C            8.88956832506783       -0.15927606333376        2.05140806820469
C           10.08211801542594       -0.86709706955380        1.87489846976365
C           10.98426143430639       -1.23676975028332        3.00145214553922
C           10.31781862783765       -1.17703548926432        0.54118521567338
C           11.39496584273848       -1.87857607091882       -0.05751181979931
C           11.57074607860150       -2.12083066888126       -1.40605063441259
C           12.71872123183117       -2.85052606677231       -1.70379145569136
C           13.45790103851743       -3.19173167439665       -0.58877586077975
C           14.66634950925199       -3.94310691606270       -0.48614234320900
C           15.57350955247806       -4.30931033276345       -1.46254153353312
C           15.49754325994948       -3.95056806275580       -2.90832603527024
C           16.63956849138497       -5.06749025851691       -0.93027241646503
C           16.55092663113702       -5.27130257992087        0.40979753106580
S           15.15814653267081       -4.53808819399503        1.08165638546112
S           12.70444546467134       -2.58190128191463        0.85338392441870
S            9.04270330277679       -0.57680265993360       -0.48458262550783
S            6.12966073804560        1.43940272122544        2.09804443340469
H            2.95727857913486        0.05004668213426        3.69297687131230
H            3.54134687371748        1.52741103035609        4.21109745327243
H            4.39632821040816        0.70305138326436        3.02892665753485
H            1.79022747350752        2.07739695298937        2.71605639831143
H            2.40852772912800        0.88203004539106        1.55563316263024
H            3.91293273762723        3.39342064212818        2.44644528823763
H            3.06357294062096        3.19870662328954        0.91247580450732
H            4.39761382358203        2.00026302424255       -1.02802469964154
H            6.62528387515523        0.72500424763347       -1.40016147031277
H            8.54002164475202        0.17447580153847        3.01468430344759
H           10.58845917687587       -0.85392498276949        3.93840762210093
H           11.98131245564622       -0.82591444614392        2.84806092330244
H           11.08310214361635       -2.31913393192109        3.07776096252596
H           10.87434222556576       -1.77554984557566       -2.15070699553216
H           12.98151942793090       -3.13954244218465       -2.70242851162038
H           15.26345558362020       -2.89499241271032       -3.03516711820460
H           14.72998942708280       -4.53879340428919       -3.41182580420649
H           16.45030455727979       -4.15756126614200       -3.38861172472426
H           17.44593400867519       -5.44612061101834       -1.53272400744934
H           17.22345623868217       -5.80962480450134        1.04715091623154

 Bond Distances (Angstroems)
 ---------------------------
N1-C2=1.4893         N1-H26=1.0239        N1-H27=1.0258        N1-H28=1.0597        C2-N1=1.4893         C2-C3=1.5326         
C2-H29=1.0900        C2-H30=1.0907        C3-C2=1.5326         C3-C4=1.4923         C3-H31=1.0920        C3-H32=1.0898        
C4-C3=1.4923         C4-C5=1.3593         C4-S25=1.7650        C5-C4=1.3593         C5-C6=1.4066         C5-H33=1.0752        
C6-C5=1.4066         C6-C7=1.3714         C6-H34=1.0742        C7-C6=1.3714         C7-C8=1.4150         C7-S25=1.7518        
C8-C7=1.4150         C8-C9=1.3779         C8-S24=1.7428        C9-C8=1.3779         C9-C10=1.3980        C9-H35=1.0777        
C10-C9=1.3980        C10-C11=1.4898       C10-C12=1.3894       C11-C10=1.4898       C11-H36=1.0868       C11-H37=1.0892       
C11-H38=1.0895       C12-C10=1.3894       C12-C13=1.4180       C12-S24=1.7431       C13-C12=1.4180       C13-C14=1.3814       
C13-S23=1.7433       C14-C13=1.3814       C14-C15=1.3925       C14-H39=1.0764       C15-C14=1.3925       C15-C16=1.3806       
C15-H40=1.0723       C16-C15=1.3806       C16-C17=1.4267       C16-S23=1.7376       C17-C16=1.4267       C17-C18=1.3822       
C17-S22=1.7475       C18-C17=1.3822       C18-C19=1.4916       C18-C20=1.4123       C19-C18=1.4916       C19-H41=1.0886       
C19-H42=1.0903       C19-H43=1.0869       C20-C18=1.4123       C20-C21=1.3584       C20-H44=1.0754       C21-C20=1.3584       
C21-S22=1.7114       C21-H45=1.0716       S22-C17=1.7475       S22-C21=1.7114       S23-C13=1.7433       S23-C16=1.7376       
S24-C8=1.7428        S24-C12=1.7431       S25-C4=1.7650        S25-C7=1.7518        H26-N1=1.0239        H27-N1=1.0258        
H28-N1=1.0597        H29-C2=1.0900        H30-C2=1.0907        H31-C3=1.0920        H32-C3=1.0898        H33-C5=1.0752        
H34-C6=1.0742        H35-C9=1.0777        H36-C11=1.0868       H37-C11=1.0892       H38-C11=1.0895       H39-C14=1.0764       
H40-C15=1.0723       H41-C19=1.0886       H42-C19=1.0903       H43-C19=1.0869       H44-C20=1.0754       H45-C21=1.0716       
 C  H  Rav=1.0833 sigma=0.0074  Rmin=1.0716  Rmax=1.0920    17
 C  C  Rav=1.4145 sigma=0.0492  Rmin=1.3584  Rmax=1.5326    19
 N  H  Rav=1.0365 sigma=0.0164  Rmin=1.0239  Rmax=1.0597     3
 N  C  Rav=1.4893 sigma=0.0000  Rmin=1.4893  Rmax=1.4893     1
 S  C  Rav=1.7428 sigma=0.0142  Rmin=1.7114  Rmax=1.7650     8

 selected bond angles (degree)
 --------------------
H26-N1-C2=112.49               H27-N1-C2=110.50               H27-N1-H26=109.22              H28-N1-C2=106.87               
H28-N1-H26=110.69              H28-N1-H27=106.92              C3-C2-N1=108.91                H29-C2-N1=109.66               
H29-C2-C3=111.08               H30-C2-N1=108.38               H30-C2-C3=109.62               H30-C2-H29=109.15              
C4-C3-C2=110.90                H31-C3-C2=109.71               H31-C3-C4=110.66               H32-C3-C2=108.56               
H32-C3-C4=109.03               H32-C3-H31=107.92              C5-C4-C3=129.27                S25-C4-C3=120.25               
S25-C4-C5=110.37               C6-C5-C4=113.86                H33-C5-C4=123.09               H33-C5-C6=123.05               
C7-C6-C5=114.17                H34-C6-C5=124.00               H34-C6-C7=121.83               C8-C7-C6=129.66                
S25-C7-C6=110.11               S25-C7-C8=120.22               C9-C8-C7=128.76                S24-C8-C7=120.60               
S24-C8-C9=110.64               C10-C9-C8=114.40               H35-C9-C8=122.48               H35-C9-C10=123.12              
C11-C10-C9=123.14              C12-C10-C9=112.26              C12-C10-C11=124.60             

 selected dihedral angles (degree)
 ---------------------------------
C3-C2-N1-H26=194.56           C3-C2-N1-H27= 72.21           C3-C2-N1-H28=316.24           H29-C2-N1-H26= 72.81          
H29-C2-N1-H27=310.47          H29-C2-N1-H28=194.49          H30-C2-N1-H26=313.75          H30-C2-N1-H27=191.41          
H30-C2-N1-H28= 75.43          C4-C3-C2-N1= 61.90            C4-C3-C2-H29=182.77           C4-C3-C2-H30=303.48           
H31-C3-C2-N1=299.36           H31-C3-C2-H29= 60.23          H31-C3-C2-H30=180.94          H32-C3-C2-N1=181.65           
H32-C3-C2-H29=302.53          H32-C3-C2-H30= 63.23          C5-C4-C3-C2= 99.77            C5-C4-C3-H31=221.75           
C5-C4-C3-H32=340.30           S25-C4-C3-C2=283.88           S25-C4-C3-H31= 45.86          S25-C4-C3-H32=164.41          
C6-C5-C4-C3=184.30            C6-C5-C4-S25=  0.51           H33-C5-C4-C3=  4.67           H33-C5-C4-S25=180.88          
C7-C6-C5-C4=  0.71            C7-C6-C5-H33=180.34           H34-C6-C5-C4=180.81           H34-C6-C5-H33=  0.44          
C8-C7-C6-C5=179.36            C8-C7-C6-H34=359.26           S25-C7-C6-C5=358.42           S25-C7-C6-H34=178.32          
C9-C8-C7-C6=179.49            C9-C8-C7-S25=  0.51           S24-C8-C7-C6=359.38           S24-C8-C7-S25=180.40          
C10-C9-C8-C7=179.86           C10-C9-C8-S24=359.96          H35-C9-C8-C7=359.46           H35-C9-C8-S24=179.56          
C11-C10-C9-C8=179.95          C11-C10-C9-H35=  0.35         C12-C10-C9-C8=  0.00          C12-C10-C9-H35=180.38         
           -------------------------------------------------
          |                Final Singlepoint                |
           -------------------------------------------------

          ...................................................
          :                      SETUP                      :
          :.................................................:
          :  # basis functions                 144          :
          :  # atomic orbitals                 140          :
          :  # shells                           74          :
          :  # electrons                       128          :
          :  max. iterations                   250          :
          :  Hamiltonian                  GFN2-xTB          :
          :  restarted?                      false          :
          :  GBSA solvation                  false          :
          :  PC potential                    false          :
          :  electronic temp.          300.0000000     K    :
          :  accuracy                    1.0000000          :
          :  -> integral cutoff          0.2500000E+02      :
          :  -> integral neglect         0.1000000E-07      :
          :  -> SCF convergence          0.1000000E-05 Eh   :
          :  -> wf. convergence          0.1000000E-03 e    :
          :  Broyden damping             0.4000000          :
          ...................................................

 iter      E             dE          RMSdq      gap      omega  full diag
   1    -69.5264370 -0.695264E+02  0.749E-05    1.32       0.0  T
   2    -69.5264370 -0.403588E-11  0.623E-05    1.32     239.2  T
   3    -69.5264370 -0.136126E-09  0.315E-05    1.32     473.0  T

   *** convergence criteria satisfied after 3 iterations ***

         #    Occupation            Energy/Eh            Energy/eV
      -------------------------------------------------------------
         1        2.0000           -0.8682702             -23.6268
       ...           ...                  ...                  ...
        58        2.0000           -0.4995559             -13.5936
        59        2.0000           -0.4893360             -13.3155
        60        2.0000           -0.4748178             -12.9204
        61        2.0000           -0.4660837             -12.6828
        62        2.0000           -0.4561761             -12.4132
        63        2.0000           -0.4495354             -12.2325
        64        2.0000           -0.4238988             -11.5349 (HOMO)
        65                         -0.3755178             -10.2184 (LUMO)
        66                         -0.3385744              -9.2131
        67                         -0.3325461              -9.0490
        68                         -0.3102448              -8.4422
        69                         -0.2913956              -7.9293
       ...                                ...                  ...
       140                          0.6345901              17.2681
      -------------------------------------------------------------
                  HL-Gap            0.0483810 Eh            1.3165 eV
             Fermi-level           -0.3997083 Eh          -10.8766 eV

 SCC (total)                   0 d,  0 h,  0 min,  0.061 sec
 SCC setup                      ...        0 min,  0.000 sec (  0.254%)
 Dispersion                     ...        0 min,  0.001 sec (  1.159%)
 classical contributions        ...        0 min,  0.000 sec (  0.081%)
 integral evaluation            ...        0 min,  0.003 sec (  5.708%)
 iterations                     ...        0 min,  0.045 sec ( 72.741%)
 molecular gradient             ...        0 min,  0.010 sec ( 16.885%)
 printout                       ...        0 min,  0.002 sec (  2.707%)

         :::::::::::::::::::::::::::::::::::::::::::::::::::::
         ::                     SUMMARY                     ::
         :::::::::::::::::::::::::::::::::::::::::::::::::::::
         :: total energy             -68.502276121951 Eh    ::
         :: gradient norm              0.000435972577 Eh/a0 ::
         :: HOMO-LUMO gap              1.316513552277 eV    ::
         ::.................................................::
         :: SCC energy               -69.526437000878 Eh    ::
         :: -> isotropic ES            0.097349396725 Eh    ::
         :: -> anisotropic ES         -0.018301616963 Eh    ::
         :: -> anisotropic XC          0.034001811998 Eh    ::
         :: -> dispersion             -0.055978176124 Eh    ::
         :: repulsion energy           1.024804113939 Eh    ::
         :: add. restraining           0.000000000000 Eh    ::
         :: total charge               1.000000000000 e     ::
         :::::::::::::::::::::::::::::::::::::::::::::::::::::

           -------------------------------------------------
          |                Property Printout                |
           -------------------------------------------------

    * Orbital Energies and Occupations

         #    Occupation            Energy/Eh            Energy/eV
      -------------------------------------------------------------
         1        2.0000           -0.8682702             -23.6268
       ...           ...                  ...                  ...
        52        2.0000           -0.5235957             -14.2478
        53        2.0000           -0.5178359             -14.0910
        54        2.0000           -0.5150858             -14.0162
        55        2.0000           -0.5139340             -13.9849
        56        2.0000           -0.5120983             -13.9349
        57        2.0000           -0.5046143             -13.7313
        58        2.0000           -0.4995559             -13.5936
        59        2.0000           -0.4893360             -13.3155
        60        2.0000           -0.4748178             -12.9204
        61        2.0000           -0.4660837             -12.6828
        62        2.0000           -0.4561761             -12.4132
        63        2.0000           -0.4495354             -12.2325
        64        2.0000           -0.4238988             -11.5349 (HOMO)
        65                         -0.3755178             -10.2184 (LUMO)
        66                         -0.3385744              -9.2131
        67                         -0.3325461              -9.0490
        68                         -0.3102448              -8.4422
        69                         -0.2913956              -7.9293
        70                         -0.2846790              -7.7465
        71                         -0.2793395              -7.6012
        72                         -0.2651747              -7.2158
        73                         -0.2527231              -6.8769
        74                         -0.2466507              -6.7117
        75                         -0.2436931              -6.6312
       ...                                ...                  ...
       140                          0.6345901              17.2681
      -------------------------------------------------------------
                  HL-Gap            0.0483810 Eh            1.3165 eV
             Fermi-level           -0.3997083 Eh          -10.8766 eV

     #   Z          covCN         q      C6AA      α(0)
     1   7 N        3.482    -0.150    24.225     7.310
     2   6 C        3.733    -0.030    21.199     6.572
     3   6 C        3.821    -0.085    22.112     6.692
     4   6 C        2.983    -0.010    28.256     8.719
     5   6 C        3.089    -0.042    28.947     8.819
     6   6 C        3.104    -0.054    29.202     8.855
     7   6 C        3.018     0.034    27.208     8.556
     8   6 C        3.018     0.006    27.862     8.659
     9   6 C        3.102    -0.052    29.159     8.849
    10   6 C        3.120     0.001    27.818     8.638
    11   6 C        3.756    -0.112    22.694     6.792
    12   6 C        3.017     0.022    27.501     8.602
    13   6 C        3.032     0.015    27.651     8.625
    14   6 C        3.105    -0.044    28.953     8.817
    15   6 C        3.097    -0.052    29.166     8.851
    16   6 C        3.028     0.029    27.323     8.574
    17   6 C        3.033     0.004    27.891     8.662
    18   6 C        3.132     0.005    27.697     8.615
    19   6 C        3.755    -0.107    22.596     6.778
    20   6 C        3.123    -0.049    29.021     8.822
    21   6 C        2.931    -0.014    28.372     8.735
    22  16 S        2.376    -0.019   141.821    20.043
    23  16 S        2.402    -0.020   141.863    20.046
    24  16 S        2.344    -0.038   142.635    20.101
    25  16 S        2.363    -0.118   145.989    20.336
    26   1 H        0.859     0.261     0.843     1.438
    27   1 H        0.859     0.265     0.827     1.425
    28   1 H        0.885     0.285     0.757     1.362
    29   1 H        0.925     0.101     1.772     2.082
    30   1 H        0.924     0.105     1.743     2.064
    31   1 H        0.924     0.075     2.030     2.228
    32   1 H        0.925     0.096     1.825     2.113
    33   1 H        0.926     0.053     2.282     2.362
    34   1 H        0.926     0.058     2.219     2.330
    35   1 H        0.926     0.037     2.487     2.466
    36   1 H        0.925     0.053     2.280     2.361
    37   1 H        0.925     0.064     2.156     2.296
    38   1 H        0.925     0.062     2.172     2.305
    39   1 H        0.926     0.046     2.368     2.406
    40   1 H        0.926     0.052     2.291     2.367
    41   1 H        0.925     0.051     2.305     2.374
    42   1 H        0.924     0.053     2.284     2.363
    43   1 H        0.925     0.056     2.242     2.342
    44   1 H        0.926     0.048     2.339     2.391
    45   1 H        0.926     0.055     2.255     2.348

 Mol. C6AA /au·bohr⁶  :      33913.508906
 Mol. C8AA /au·bohr⁸  :    1023634.571786
 Mol. α(0) /au        :        297.493853


Wiberg/Mayer (AO) data.
largest (>0.10) Wiberg bond orders for each atom

 ---------------------------------------------------------------------------
     #   Z sym  total        # sym  WBO       # sym  WBO       # sym  WBO
 ---------------------------------------------------------------------------
     1   7 N    3.658 --     2 C    0.940    26 H    0.917    27 H    0.914
                            28 H    0.825
     2   6 C    3.901 --     3 C    0.991    30 H    0.968    29 H    0.968
                             1 N    0.940
     3   6 C    3.982 --     4 C    1.022     2 C    0.991    31 H    0.964
                            32 H    0.957
     4   6 C    3.886 --     5 C    1.592    25 S    1.085     3 C    1.022
     5   6 C    3.986 --     4 C    1.592     6 C    1.292    33 H    0.960
     6   6 C    3.957 --     7 C    1.502     5 C    1.292    34 H    0.957
     7   6 C    3.937 --     6 C    1.502     8 C    1.195    25 S    1.067
     8   6 C    3.924 --     9 C    1.444     7 C    1.195    24 S    1.103
     9   6 C    3.981 --     8 C    1.444    10 C    1.345    35 H    0.960
    10   6 C    3.967 --    12 C    1.403     9 C    1.345    11 C    1.030
    11   6 C    3.993 --    10 C    1.030    36 H    0.981    37 H    0.963
                            38 H    0.963
    12   6 C    3.934 --    10 C    1.403    13 C    1.204    24 S    1.125
    13   6 C    3.934 --    14 C    1.436    12 C    1.204    23 S    1.116
    14   6 C    3.968 --    13 C    1.436    15 C    1.372    39 H    0.959
    15   6 C    3.977 --    16 C    1.443    14 C    1.372    40 H    0.959
    16   6 C    3.929 --    15 C    1.443    17 C    1.173    23 S    1.146
    17   6 C    3.942 --    18 C    1.456    16 C    1.173    22 S    1.121
    18   6 C    3.964 --    17 C    1.456    20 C    1.281    19 C    1.028
    19   6 C    3.995 --    18 C    1.028    43 H    0.982    41 H    0.972
                            42 H    0.964
    20   6 C    3.984 --    21 C    1.598    18 C    1.281    44 H    0.963
    21   6 C    3.925 --    20 C    1.598    22 S    1.206    45 H    0.969
    22  16 S    2.617 --    21 C    1.206    17 C    1.121
    23  16 S    2.608 --    16 C    1.146    13 C    1.116
    24  16 S    2.561 --    12 C    1.125     8 C    1.103
    25  16 S    2.537 --     4 C    1.085     7 C    1.067
    26   1 H    0.932 --     1 N    0.917
    27   1 H    0.930 --     1 N    0.914
    28   1 H    0.918 --     1 N    0.825
    29   1 H    0.988 --     2 C    0.968
    30   1 H    0.989 --     2 C    0.968
    31   1 H    0.993 --     3 C    0.964
    32   1 H    0.990 --     3 C    0.957
    33   1 H    0.997 --     5 C    0.960
    34   1 H    0.996 --     6 C    0.957
    35   1 H    0.998 --     9 C    0.960
    36   1 H    0.996 --    11 C    0.981
    37   1 H    0.994 --    11 C    0.963
    38   1 H    0.994 --    11 C    0.963
    39   1 H    0.997 --    14 C    0.959
    40   1 H    0.997 --    15 C    0.959
    41   1 H    0.996 --    19 C    0.972
    42   1 H    0.995 --    19 C    0.964
    43   1 H    0.996 --    19 C    0.982
    44   1 H    0.997 --    20 C    0.963
    45   1 H    0.996 --    21 C    0.969
 ---------------------------------------------------------------------------

Topologies differ in total number of bonds
Writing topology from bond orders to xtbtopo.mol

molecular dipole:
                 x           y           z       tot (Debye)
 q only:        9.391       0.643       4.796
   full:        9.917       0.489       4.321      27.523
molecular quadrupole (traceless):
                xx          xy          yy          xz          yz          zz
 q only:      128.734     -36.307     -84.147      33.566      17.993     -44.587
  q+dip:      147.905     -44.468     -94.283      17.974      21.473     -53.622
   full:      148.005     -42.740     -92.123      18.177      20.719     -55.882

           -------------------------------------------------
          |                Geometry Summary                 |
           -------------------------------------------------

      molecular mass/u    :      402.6393858
   center of mass at/Å    :       10.1412339      -1.2879893       0.5651411
  moments of inertia/u·Å² :        0.7416044E+03   0.9764656E+04   0.1034896E+05
rotational constants/cm⁻¹ :        0.2273130E-01   0.1726393E-02   0.1628921E-02

 * 46 selected distances

     #   Z          #   Z                                           value/Å
     1   7 N        2   6 C                                       1.4893295
     2   6 C        3   6 C                                       1.5325800
     4   6 C        5   6 C                                       1.3592550
     5   6 C        6   6 C                                       1.4066054
     6   6 C        7   6 C                                       1.3713555
     7   6 C        8   6 C                                       1.4150290
     8   6 C        9   6 C                                       1.3779418
     9   6 C       10   6 C                                       1.3979776
    10   6 C       11   6 C                                       1.4898471
    10   6 C       12   6 C                                       1.3893912
    12   6 C       13   6 C                                       1.4180423
    13   6 C       14   6 C                                       1.3813556
    14   6 C       15   6 C                                       1.3924627
    15   6 C       16   6 C                                       1.3806043
    16   6 C       17   6 C                                       1.4266907
    17   6 C       18   6 C                                       1.3821722
    18   6 C       19   6 C                                       1.4915630
    18   6 C       20   6 C                                       1.4123134
    20   6 C       21   6 C                                       1.3583757
    17   6 C       22  16 S                                       1.7475298
    21   6 C       22  16 S                                       1.7113838
    13   6 C       23  16 S                                       1.7433115
    16   6 C       23  16 S                                       1.7376461
     8   6 C       24  16 S                                       1.7428425
    12   6 C       24  16 S                                       1.7431003
     7   6 C       25  16 S                                       1.7517804 (max)
     1   7 N       26   1 H                                       1.0239108 (min)
     1   7 N       27   1 H                                       1.0258449
     1   7 N       28   1 H                                       1.0597111
     2   6 C       29   1 H                                       1.0900201
     2   6 C       30   1 H                                       1.0907152
     3   6 C       31   1 H                                       1.0919891
     3   6 C       32   1 H                                       1.0898356
     5   6 C       33   1 H                                       1.0752083
     6   6 C       34   1 H                                       1.0742413
     9   6 C       35   1 H                                       1.0777173
    11   6 C       36   1 H                                       1.0867913
    11   6 C       37   1 H                                       1.0892391
    11   6 C       38   1 H                                       1.0895435
    14   6 C       39   1 H                                       1.0764342
    15   6 C       40   1 H                                       1.0723197
    19   6 C       41   1 H                                       1.0886349
    19   6 C       42   1 H                                       1.0902569
    19   6 C       43   1 H                                       1.0868647
    20   6 C       44   1 H                                       1.0754229
    21   6 C       45   1 H                                       1.0715906

 * 5 distinct bonds (by element types)

   Z      Z             #   av. dist./Å        max./Å        min./Å
   1 H    6 C          17     1.0833426     1.0919891     1.0715906
   6 C    6 C          18     1.4101979     1.5325800     1.3583757
   1 H    7 N           3     1.0364889     1.0597111     1.0239108
   6 C    7 N           1     1.4893295     1.4893295     1.4893295
   6 C   16 S           7     1.7396563     1.7517804     1.7113838


optimized geometry written to: xtbopt.xyz


           -------------------------------------------------
          | TOTAL ENERGY              -68.502276121951 Eh   |
          | GRADIENT NORM               0.000435972577 Eh/α |
          | HOMO-LUMO GAP               1.316513552277 eV   |
           -------------------------------------------------

------------------------------------------------------------------------
 * finished run on 2023/01/23 at 14:00:46.230     
------------------------------------------------------------------------
 total:
 * wall-time:     0 d,  0 h,  0 min,  5.612 sec
 *  cpu-time:     0 d,  0 h, 13 min, 18.065 sec
 * ratio c/w:   142.198 speedup
 SCF:
 * wall-time:     0 d,  0 h,  0 min,  0.268 sec
 *  cpu-time:     0 d,  0 h,  0 min, 37.921 sec
 * ratio c/w:   141.737 speedup
 ANC optimizer:
 * wall-time:     0 d,  0 h,  0 min,  5.315 sec
 *  cpu-time:     0 d,  0 h, 12 min, 36.067 sec
 * ratio c/w:   142.258 speedup

