 Entering Gaussian System
 *********************************************
 Gaussian 98:
 frequency output generated by the xtb code
 *********************************************
                         Standard orientation:
 --------------------------------------------------------------------
  Center     Atomic     Atomic              Coordinates (Angstroms)
  Number     Number      Type              X           Y           Z
 --------------------------------------------------------------------
    1          7             0       -3.725546    0.767060   -0.012178
    2          6             0       -2.660971   -0.244206    0.270180
    3          6             0       -1.448283   -0.146224   -0.670435
    4          6             0       -0.517569   -1.384238   -0.554566
    5          6             0        0.290725   -1.399730    0.754431
    6          6             0        1.093053   -0.091314    0.957356
    7          6             0        2.243200    0.023928   -0.018128
    8          8             0        2.283162   -0.840544   -1.049277
    9          8             0        3.065865    0.892144    0.153658
   10          6             0        0.174629    1.146561    0.848067
   11          6             0       -0.622806    1.151453   -0.467660
   12          1             0       -4.048050    0.696080   -0.983447
   13          1             0       -3.384951    1.722898    0.138799
   14          1             0       -4.537485    0.629225    0.599735
   15          1             0       -3.100426   -1.244754    0.190583
   16          1             0       -2.333356   -0.148216    1.309239
   17          1             0       -1.849777   -0.127323   -1.697373
   18          1             0        0.180628   -1.398584   -1.400538
   19          1             0       -1.109294   -2.303196   -0.645822
   20          1             0        0.989881   -2.245854    0.747451
   21          1             0       -0.376773   -1.568565    1.606674
   22          1             0        1.542846   -0.105885    1.963335
   23          1             0        3.064471   -0.675239   -1.584610
   24          1             0        0.792154    2.051838    0.916034
   25          1             0       -0.507378    1.187096    1.704360
   26          1             0        0.075062    1.270427   -1.304853
   27          1             0       -1.278741    2.027776   -0.511369
 --------------------------------------------------------------------
     1 basis functions        1 primitive gaussians
     1 alpha electrons        1 beta electrons

 Harmonic frequencies (cm**-1), IR intensities (km*mol⁻¹),
 Raman scattering activities (A**4/amu), Raman depolarization ratios,
 reduced masses (AMU), force constants (mDyne/A) and normal coordinates:
                      1                      2                      3
                        a                      a                      a 
 Frequencies --    16.8254                94.5447                98.7158
 Red. masses --    13.5505                 9.5285                11.9096
 Frc consts  --     0.0000                 0.0000                 0.0000
 IR Inten    --     3.2611                14.5681                26.2665
 Raman Activ --     0.0000                 0.0000                 0.0000
 Depolar     --     0.0000                 0.0000                 0.0000
 Atom AN      X      Y      Z        X      Y      Z        X      Y      Z
   1   7    -0.09  -0.13   0.19     0.32   0.33   0.12     0.15   0.11   0.43
   2   6     0.01  -0.05   0.09    -0.01  -0.08  -0.11     0.08  -0.06   0.02
   3   6    -0.10  -0.03  -0.04     0.04  -0.21  -0.05    -0.05  -0.01  -0.14
   4   6    -0.03   0.03  -0.05     0.01  -0.22   0.13     0.00   0.02  -0.22
   5   6    -0.02   0.12  -0.06     0.03  -0.06   0.12    -0.08  -0.01  -0.17
   6   6    -0.06   0.16  -0.10    -0.04  -0.01   0.04    -0.13   0.00  -0.06
   7   6     0.09  -0.00   0.06    -0.07   0.08   0.01    -0.01  -0.00   0.08
   8   8    -0.05   0.19  -0.10    -0.20   0.31  -0.17     0.31  -0.26   0.33
   9   8     0.44  -0.40   0.44    -0.05   0.04   0.13    -0.22   0.21   0.02
  10   6    -0.05   0.15  -0.25    -0.10  -0.06  -0.07    -0.09   0.03  -0.17
  11   6    -0.13   0.01  -0.21     0.04  -0.20  -0.14    -0.04  -0.01  -0.20
  12   1    -0.07  -0.07   0.07     0.20   0.29  -0.02    -0.02   0.09   0.13
  13   1    -0.03  -0.03   0.01     0.12   0.04   0.25     0.08   0.01   0.14
  14   1     0.01  -0.03   0.09     0.01   0.02  -0.09     0.07   0.03   0.16
  15   1     0.02  -0.02   0.06    -0.09   0.02  -0.11    -0.01  -0.00  -0.03
  16   1     0.03   0.00   0.02    -0.01  -0.13  -0.02     0.08  -0.08  -0.00
  17   1    -0.06  -0.03  -0.00     0.03  -0.09  -0.02    -0.05  -0.00  -0.03
  18   1    -0.01   0.02  -0.02    -0.00  -0.10   0.03     0.01   0.04  -0.05
  19   1     0.01  -0.00  -0.01    -0.01  -0.06   0.08     0.02   0.00  -0.09
  20   1     0.01   0.04  -0.01     0.02  -0.01   0.05    -0.01   0.00  -0.05
  21   1    -0.00   0.03  -0.01     0.02  -0.01   0.04    -0.03  -0.03  -0.06
  22   1    -0.04   0.07  -0.02    -0.01   0.02   0.01    -0.07  -0.00  -0.00
  23   1     0.05  -0.02   0.04    -0.07   0.12  -0.06     0.11  -0.09   0.13
  24   1    -0.01   0.04  -0.11    -0.04  -0.01  -0.02    -0.01   0.00  -0.06
  25   1    -0.01   0.07  -0.07    -0.05  -0.02  -0.04    -0.03   0.03  -0.06
  26   1    -0.05  -0.01  -0.08     0.04  -0.09  -0.03    -0.00  -0.02  -0.05
  27   1    -0.04  -0.00  -0.07     0.02  -0.05  -0.10    -0.00   0.00  -0.08
                      4                      5                      6
                        a                      a                      a 
 Frequencies --   127.1623               183.9145               198.7762
 Red. masses --     4.7838                10.9395                 7.5089
 Frc consts  --     0.0000                 0.0000                 0.0000
 IR Inten    --     3.3722                 5.9306                 2.6354
 Raman Activ --     0.0000                 0.0000                 0.0000
 Depolar     --     0.0000                 0.0000                 0.0000
 Atom AN      X      Y      Z        X      Y      Z        X      Y      Z
   1   7    -0.09  -0.07   0.05     0.20  -0.17   0.13     0.00   0.23   0.01
   2   6    -0.12  -0.16  -0.14     0.23  -0.18  -0.20    -0.31  -0.20  -0.26
   3   6    -0.02   0.07   0.01     0.22   0.09  -0.16    -0.11  -0.09  -0.00
   4   6     0.04   0.11   0.01     0.18   0.08  -0.07     0.01  -0.01   0.08
   5   6     0.02   0.13   0.03    -0.08   0.12   0.10     0.13   0.07   0.02
   6   6     0.04   0.12  -0.02    -0.10   0.12   0.13     0.10   0.10  -0.05
   7   6     0.06  -0.03  -0.04    -0.18  -0.03   0.01     0.12   0.05  -0.06
   8   8     0.04  -0.21   0.09    -0.47  -0.08   0.04     0.15  -0.06   0.03
   9   8     0.16  -0.11  -0.15    -0.03  -0.18  -0.15     0.24  -0.03  -0.10
  10   6     0.00   0.10   0.04    -0.07   0.13   0.12    -0.11  -0.05   0.11
  11   6    -0.11   0.12   0.11     0.09   0.15   0.02    -0.23  -0.03   0.18
  12   1     0.26   0.30  -0.11    -0.09  -0.09   0.09    -0.22  -0.02   0.08
  13   1    -0.15  -0.05   0.45     0.10  -0.05  -0.07     0.19   0.03  -0.20
  14   1    -0.19  -0.30  -0.27     0.14   0.01   0.16     0.11   0.27   0.20
  15   1    -0.03  -0.04  -0.15     0.08  -0.05  -0.13    -0.16  -0.01  -0.21
  16   1    -0.08  -0.14  -0.02     0.08  -0.12  -0.05    -0.12  -0.20  -0.05
  17   1     0.02   0.03  -0.01     0.08   0.04  -0.05     0.02  -0.02  -0.02
  18   1     0.02   0.05   0.01     0.08   0.01   0.01    -0.01   0.00   0.01
  19   1     0.03   0.03  -0.00     0.05   0.03  -0.04     0.02  -0.02   0.05
  20   1    -0.00   0.03   0.02    -0.02   0.03   0.08     0.04   0.02  -0.00
  21   1     0.00   0.05   0.01    -0.07   0.05  -0.00     0.06   0.02   0.02
  22   1     0.02   0.04  -0.01    -0.02   0.03   0.03     0.05   0.03  -0.02
  23   1     0.03  -0.12   0.04    -0.12  -0.06  -0.01     0.07  -0.07   0.03
  24   1    -0.01   0.03   0.00    -0.02   0.04   0.06    -0.08   0.02   0.04
  25   1     0.02   0.01   0.03    -0.05   0.03   0.01    -0.02  -0.08   0.05
  26   1    -0.05   0.07   0.02     0.05   0.07   0.03    -0.08   0.04   0.04
  27   1    -0.06   0.02   0.06     0.00   0.03  -0.01    -0.08  -0.02   0.09
                      7                      8                      9
                        a                      a                      a 
 Frequencies --   262.1968               294.7024               325.2395
 Red. masses --     9.3277                10.1360                 8.2346
 Frc consts  --     0.0000                 0.0000                 0.0000
 IR Inten    --     7.0910                16.8195                13.6727
 Raman Activ --     0.0000                 0.0000                 0.0000
 Depolar     --     0.0000                 0.0000                 0.0000
 Atom AN      X      Y      Z        X      Y      Z        X      Y      Z
   1   7     0.29   0.08  -0.21    -0.33   0.02   0.13     0.09   0.02  -0.09
   2   6     0.11   0.06   0.29    -0.08   0.13  -0.12    -0.15  -0.18   0.03
   3   6    -0.04  -0.11   0.10    -0.01   0.04  -0.09    -0.09  -0.05   0.12
   4   6     0.10  -0.01  -0.15    -0.08  -0.04  -0.01     0.02   0.03  -0.12
   5   6     0.22  -0.04  -0.23     0.27  -0.06  -0.18     0.08  -0.06  -0.16
   6   6    -0.09   0.13  -0.04     0.10   0.03   0.11     0.06  -0.07   0.12
   7   6    -0.06   0.09  -0.00     0.09   0.12   0.14     0.06  -0.04   0.20
   8   8    -0.19  -0.10   0.16    -0.30   0.00   0.28    -0.28   0.02   0.20
   9   8     0.13  -0.08  -0.07     0.21   0.09  -0.13    -0.04   0.10   0.01
  10   6    -0.30  -0.01   0.11    -0.05  -0.10   0.04     0.41   0.17  -0.22
  11   6    -0.22  -0.01   0.07     0.27  -0.13  -0.15    -0.11  -0.01   0.07
  12   1     0.19  -0.01  -0.09    -0.13   0.03   0.05     0.04   0.00  -0.03
  13   1     0.08   0.02  -0.05    -0.14   0.02   0.06     0.10  -0.02  -0.05
  14   1     0.00   0.07  -0.15    -0.05  -0.08   0.07     0.00   0.09  -0.03
  15   1     0.02   0.02   0.19    -0.01   0.03  -0.05    -0.07  -0.04  -0.05
  16   1     0.04   0.12   0.07    -0.02   0.02  -0.04    -0.07  -0.10   0.02
  17   1    -0.06  -0.04   0.05     0.01   0.01  -0.03    -0.04   0.01   0.04
  18   1    -0.01   0.05  -0.07    -0.08  -0.06  -0.05    -0.02   0.06  -0.05
  19   1     0.06  -0.02  -0.05    -0.04  -0.00   0.07     0.03  -0.00  -0.05
  20   1     0.13   0.04  -0.13     0.12   0.02  -0.16     0.04  -0.00  -0.09
  21   1     0.09  -0.11  -0.07     0.14  -0.12  -0.03     0.02  -0.08  -0.05
  22   1    -0.03   0.03  -0.01    -0.01  -0.01   0.05    -0.05  -0.03   0.06
  23   1    -0.00  -0.14   0.07    -0.13  -0.06  -0.02    -0.20   0.09  -0.11
  24   1    -0.13   0.03   0.08    -0.06  -0.00   0.07     0.23  -0.01  -0.25
  25   1    -0.10  -0.07   0.03    -0.08  -0.08  -0.03     0.20   0.25  -0.00
  26   1    -0.05   0.03   0.03     0.14  -0.14  -0.00    -0.13   0.03  -0.06
  27   1    -0.09  -0.02   0.02     0.14   0.00  -0.14    -0.05  -0.01   0.10
                     10                     11                     12
                        a                      a                      a 
 Frequencies --   382.6763               388.6614               411.8915
 Red. masses --     8.4385                 8.1187                 7.6320
 Frc consts  --     0.0000                 0.0000                 0.0000
 IR Inten    --     0.2539                20.3371                14.9991
 Raman Activ --     0.0000                 0.0000                 0.0000
 Depolar     --     0.0000                 0.0000                 0.0000
 Atom AN      X      Y      Z        X      Y      Z        X      Y      Z
   1   7    -0.10   0.05   0.04    -0.18   0.14   0.05    -0.05   0.00  -0.05
   2   6     0.09   0.14  -0.16    -0.08   0.13   0.02    -0.21  -0.15   0.08
   3   6     0.19   0.06  -0.04    -0.04  -0.07  -0.02    -0.01   0.05   0.29
   4   6     0.04  -0.11   0.23     0.47   0.27  -0.04     0.13   0.14   0.01
   5   6     0.36  -0.26   0.03     0.11  -0.05   0.19     0.16  -0.02  -0.04
   6   6    -0.09  -0.01  -0.06     0.07  -0.08   0.18    -0.11   0.09  -0.01
   7   6    -0.13  -0.07  -0.05     0.00  -0.15   0.08    -0.22  -0.02  -0.13
   8   8     0.02  -0.08  -0.06    -0.01  -0.02  -0.06     0.03  -0.03  -0.18
   9   8    -0.22  -0.07   0.17    -0.07  -0.08  -0.08    -0.22  -0.12   0.12
  10   6    -0.00   0.09  -0.13    -0.10  -0.18  -0.13     0.04   0.20   0.06
  11   6    -0.17   0.28  -0.01    -0.12  -0.05  -0.14     0.29  -0.07  -0.05
  12   1    -0.08   0.02   0.03    -0.06   0.04   0.02    -0.00  -0.01  -0.02
  13   1    -0.08   0.03   0.02    -0.07   0.04   0.02     0.05  -0.02  -0.04
  14   1     0.02  -0.06   0.06    -0.04   0.01   0.02    -0.03   0.07  -0.02
  15   1     0.04   0.04  -0.05    -0.03   0.04   0.05    -0.06  -0.03  -0.10
  16   1     0.04   0.03  -0.05    -0.01   0.07  -0.00    -0.15  -0.13   0.06
  17   1     0.10  -0.04  -0.03    -0.02  -0.09  -0.00    -0.01   0.02   0.08
  18   1    -0.02  -0.12   0.04     0.21   0.29   0.05     0.03   0.15  -0.00
  19   1    -0.06   0.01   0.12     0.27   0.01  -0.21     0.09   0.01  -0.07
  20   1     0.21   0.01  -0.14     0.01  -0.03   0.07     0.11   0.05  -0.08
  21   1     0.21  -0.23   0.06    -0.03  -0.02   0.01     0.08  -0.11  -0.01
  22   1    -0.01   0.06  -0.02     0.00   0.05   0.06     0.03   0.02  -0.03
  23   1     0.04  -0.03   0.04    -0.10   0.17  -0.11     0.20  -0.18   0.19
  24   1     0.05  -0.01  -0.05    -0.06  -0.03  -0.01     0.05   0.03   0.01
  25   1     0.02   0.07  -0.02    -0.05  -0.08  -0.06    -0.01   0.10  -0.01
  26   1    -0.11   0.23  -0.03    -0.06   0.01  -0.05     0.16  -0.24   0.02
  27   1    -0.15   0.01   0.12    -0.03  -0.01   0.00     0.18   0.05  -0.21
                     13                     14                     15
                        a                      a                      a 
 Frequencies --   453.8552               492.6807               542.1618
 Red. masses --     7.4495                 7.6982                11.0595
 Frc consts  --     0.0000                 0.0000                 0.0000
 IR Inten    --    32.0178               120.2109                73.2837
 Raman Activ --     0.0000                 0.0000                 0.0000
 Depolar     --     0.0000                 0.0000                 0.0000
 Atom AN      X      Y      Z        X      Y      Z        X      Y      Z
   1   7    -0.21   0.15   0.05    -0.08   0.05   0.03    -0.01   0.01   0.01
   2   6     0.01   0.19  -0.08    -0.01   0.05  -0.02    -0.01   0.00   0.00
   3   6     0.10  -0.27  -0.09     0.06  -0.13  -0.00    -0.02  -0.04  -0.03
   4   6     0.22  -0.26  -0.20     0.02  -0.20  -0.13     0.06   0.04  -0.03
   5   6    -0.07   0.04  -0.03     0.02   0.08  -0.13     0.14   0.31  -0.08
   6   6    -0.01   0.03  -0.04    -0.16   0.19   0.10     0.21   0.11  -0.22
   7   6    -0.08   0.12  -0.09    -0.09  -0.12   0.06     0.06  -0.05  -0.20
   8   8    -0.14   0.07  -0.01     0.31  -0.09  -0.03    -0.14  -0.35  -0.02
   9   8    -0.01   0.04   0.05    -0.00  -0.21  -0.12    -0.25   0.11   0.49
  10   6     0.17   0.10   0.11    -0.07   0.32   0.20     0.04  -0.06   0.03
  11   6    -0.03  -0.22   0.21     0.04  -0.10   0.13     0.03  -0.08   0.05
  12   1    -0.11   0.06   0.03    -0.04   0.02   0.01    -0.00   0.01   0.00
  13   1    -0.13   0.06   0.05    -0.05   0.02   0.02    -0.00   0.00   0.01
  14   1    -0.01  -0.06   0.05    -0.01  -0.02   0.02    -0.00  -0.00   0.00
  15   1    -0.02   0.06   0.09    -0.02   0.02   0.03    -0.01   0.00   0.02
  16   1     0.05   0.15  -0.05     0.01   0.04  -0.01     0.01   0.02  -0.00
  17   1     0.06  -0.04  -0.03     0.03   0.01  -0.00    -0.01  -0.00  -0.01
  18   1     0.08  -0.02  -0.04    -0.02  -0.08  -0.06    -0.03  -0.03  -0.04
  19   1     0.11  -0.10  -0.09     0.00  -0.06   0.02     0.03  -0.01   0.08
  20   1    -0.03  -0.00   0.12     0.08   0.08  -0.03     0.00   0.06   0.04
  21   1    -0.10   0.10  -0.06    -0.00  -0.05  -0.06     0.02   0.17  -0.02
  22   1     0.04  -0.04  -0.03    -0.06   0.01   0.03     0.11   0.03  -0.08
  23   1     0.19  -0.31   0.22    -0.19   0.51  -0.23    -0.26  -0.01  -0.30
  24   1     0.09   0.01  -0.10    -0.01   0.09  -0.01    -0.07   0.03   0.06
  25   1     0.13   0.14   0.09     0.00   0.14   0.07     0.02  -0.13   0.02
  26   1    -0.02   0.02   0.06     0.07  -0.06   0.08     0.01  -0.02   0.02
  27   1    -0.07  -0.11   0.09    -0.01  -0.05  -0.07     0.01  -0.02   0.01
                     16                     17                     18
                        a                      a                      a 
 Frequencies --   582.6471               659.9520               709.6879
 Red. masses --     9.4435                 8.4538                10.1848
 Frc consts  --     0.0000                 0.0000                 0.0000
 IR Inten    --    40.2281                40.7885                56.2564
 Raman Activ --     0.0000                 0.0000                 0.0000
 Depolar     --     0.0000                 0.0000                 0.0000
 Atom AN      X      Y      Z        X      Y      Z        X      Y      Z
   1   7     0.11  -0.06  -0.00    -0.07   0.04   0.00    -0.01   0.01   0.01
   2   6     0.09   0.01  -0.09    -0.07  -0.02   0.12    -0.03  -0.01   0.06
   3   6    -0.27  -0.01  -0.34     0.14  -0.03   0.14     0.02   0.02   0.01
   4   6    -0.17   0.25   0.07     0.07  -0.20  -0.16     0.04   0.02  -0.03
   5   6     0.13   0.26  -0.01     0.08   0.24  -0.17     0.09   0.18  -0.07
   6   6     0.16   0.06   0.32     0.12   0.06   0.16     0.06  -0.02   0.01
   7   6    -0.06  -0.17   0.09     0.15  -0.35   0.29    -0.52   0.29  -0.16
   8   8     0.04   0.05  -0.16    -0.05   0.11  -0.17     0.10   0.08   0.29
   9   8    -0.18  -0.09  -0.03    -0.20  -0.00  -0.09    -0.02  -0.29  -0.05
  10   6     0.06  -0.07   0.08     0.00  -0.01  -0.09     0.18  -0.29  -0.12
  11   6    -0.10  -0.25   0.07     0.05   0.16  -0.10     0.09  -0.03  -0.05
  12   1     0.04   0.00  -0.00    -0.00  -0.01  -0.00     0.02  -0.01  -0.00
  13   1     0.03  -0.02   0.02    -0.02   0.01  -0.02    -0.00   0.01  -0.01
  14   1     0.03  -0.03  -0.01    -0.03   0.04  -0.01    -0.02   0.02  -0.01
  15   1     0.02  -0.01   0.12    -0.03   0.00  -0.05    -0.01   0.00  -0.03
  16   1     0.17   0.09  -0.08    -0.11  -0.06   0.07    -0.04  -0.04   0.03
  17   1    -0.05   0.01  -0.10    -0.01   0.00   0.06    -0.02   0.00   0.02
  18   1    -0.07   0.01  -0.00    -0.08  -0.20  -0.13    -0.04  -0.08  -0.05
  19   1    -0.01   0.04   0.12    -0.05  -0.03   0.15    -0.01   0.01   0.12
  20   1     0.06   0.09  -0.18    -0.01   0.04   0.09    -0.02   0.02   0.05
  21   1     0.12  -0.07   0.03    -0.08   0.14  -0.11    -0.01   0.13  -0.04
  22   1     0.06   0.02   0.08    -0.06   0.02   0.09     0.09  -0.01  -0.03
  23   1     0.16  -0.04   0.16     0.15  -0.06   0.17     0.03   0.27   0.15
  24   1     0.00   0.00  -0.11    -0.10   0.05   0.14     0.04  -0.08   0.02
  25   1     0.07   0.07   0.06    -0.10  -0.17  -0.10     0.01  -0.10  -0.07
  26   1    -0.01  -0.07   0.03    -0.06   0.14  -0.07    -0.08   0.11  -0.09
  27   1     0.02  -0.03   0.04    -0.06  -0.00   0.08    -0.00  -0.02   0.17
                     19                     20                     21
                        a                      a                      a 
 Frequencies --   777.2087               812.8952               817.7846
 Red. masses --     7.3343                 6.6063                 5.9580
 Frc consts  --     0.0000                 0.0000                 0.0000
 IR Inten    --    20.0452                19.9009                16.3604
 Raman Activ --     0.0000                 0.0000                 0.0000
 Depolar     --     0.0000                 0.0000                 0.0000
 Atom AN      X      Y      Z        X      Y      Z        X      Y      Z
   1   7    -0.13  -0.03   0.04    -0.01  -0.06  -0.05    -0.00  -0.03  -0.04
   2   6    -0.23  -0.21   0.11    -0.02  -0.04  -0.10    -0.04  -0.06  -0.08
   3   6    -0.17  -0.01  -0.32     0.01   0.10   0.06     0.01  -0.17   0.03
   4   6     0.09  -0.17  -0.10     0.16   0.10   0.09    -0.15  -0.01   0.15
   5   6     0.07  -0.13   0.11     0.19   0.02  -0.08    -0.15   0.10  -0.01
   6   6     0.08  -0.03   0.13    -0.06  -0.11  -0.39    -0.08   0.11  -0.33
   7   6    -0.04   0.08  -0.09     0.03  -0.18   0.16     0.02  -0.14   0.14
   8   8     0.02  -0.05  -0.02    -0.06   0.17   0.15    -0.05   0.13   0.12
   9   8     0.03   0.01   0.04    -0.08  -0.07  -0.09    -0.08  -0.05  -0.07
  10   6     0.08   0.11   0.13    -0.11  -0.09  -0.01     0.22   0.07  -0.05
  11   6     0.09   0.34  -0.13    -0.16   0.06   0.13     0.21  -0.03   0.04
  12   1     0.05   0.12  -0.03    -0.10   0.17   0.01    -0.09   0.15   0.01
  13   1     0.26  -0.12   0.05     0.15  -0.09   0.10     0.13  -0.07   0.09
  14   1    -0.13   0.24  -0.06     0.04   0.02   0.06     0.04   0.02   0.05
  15   1    -0.03  -0.10   0.32     0.06  -0.05   0.15     0.03  -0.05   0.17
  16   1     0.09   0.19  -0.04     0.03   0.18  -0.05     0.04   0.16  -0.05
  17   1    -0.04  -0.01  -0.09     0.06   0.00  -0.00     0.06  -0.03  -0.01
  18   1     0.04  -0.11  -0.01    -0.04  -0.10  -0.04     0.08   0.23   0.14
  19   1     0.01  -0.04   0.01    -0.04   0.07   0.15     0.11  -0.08  -0.19
  20   1     0.02  -0.04   0.08    -0.05  -0.08   0.15     0.07   0.12  -0.19
  21   1    -0.02  -0.02   0.01    -0.03   0.23  -0.04     0.14  -0.11   0.11
  22   1     0.07  -0.01   0.02    -0.06   0.01  -0.09    -0.05  -0.01  -0.08
  23   1    -0.01  -0.02  -0.02     0.02   0.10   0.11     0.01   0.07   0.07
  24   1     0.04   0.01   0.12     0.07  -0.08  -0.12    -0.07   0.09   0.23
  25   1    -0.02   0.00   0.00     0.13   0.05   0.12    -0.03  -0.27  -0.07
  26   1     0.05   0.09  -0.01     0.11  -0.22   0.12    -0.05   0.12  -0.05
  27   1     0.07   0.13  -0.04     0.11   0.11  -0.21    -0.04  -0.07   0.14
                     22                     23                     24
                        a                      a                      a 
 Frequencies --   853.1252               884.4282               907.6499
 Red. masses --     5.7365                 7.4644                 7.8716
 Frc consts  --     0.0000                 0.0000                 0.0000
 IR Inten    --    32.0512                30.2251                 9.6173
 Raman Activ --     0.0000                 0.0000                 0.0000
 Depolar     --     0.0000                 0.0000                 0.0000
 Atom AN      X      Y      Z        X      Y      Z        X      Y      Z
   1   7    -0.01   0.08   0.16     0.21  -0.04  -0.09     0.02   0.06   0.00
   2   6    -0.01   0.03   0.13     0.03   0.11  -0.12    -0.02  -0.05   0.02
   3   6    -0.15   0.02  -0.31    -0.24  -0.05   0.10     0.06  -0.30  -0.01
   4   6     0.04  -0.11   0.02    -0.14  -0.13  -0.08     0.10   0.20   0.29
   5   6     0.08  -0.01   0.09     0.10  -0.19   0.03    -0.10   0.19  -0.28
   6   6    -0.01   0.01  -0.32     0.36  -0.02   0.04    -0.05  -0.28   0.00
   7   6     0.03  -0.15   0.11    -0.10  -0.01  -0.03    -0.00   0.04  -0.01
   8   8    -0.05   0.14   0.13    -0.02   0.04   0.10     0.01   0.00   0.01
   9   8    -0.08  -0.05  -0.06    -0.08  -0.08   0.02     0.04   0.01  -0.01
  10   6     0.06   0.03   0.08     0.11   0.26   0.09     0.05   0.09   0.27
  11   6     0.02   0.06   0.05    -0.17   0.16  -0.11    -0.05   0.19  -0.26
  12   1     0.29  -0.36  -0.03    -0.12   0.01   0.03     0.00  -0.06   0.01
  13   1    -0.21   0.13  -0.20    -0.14   0.05   0.04    -0.11   0.06  -0.03
  14   1    -0.17   0.06  -0.16     0.20  -0.26   0.11     0.02  -0.07   0.00
  15   1    -0.13   0.08  -0.14    -0.02   0.04  -0.05    -0.09   0.02   0.02
  16   1     0.10  -0.25   0.02    -0.02   0.01  -0.02     0.02  -0.03  -0.00
  17   1    -0.03   0.02  -0.09    -0.10  -0.03   0.04     0.03  -0.30  -0.01
  18   1     0.08   0.02   0.06    -0.04   0.12  -0.03    -0.02   0.03   0.04
  19   1     0.07  -0.06  -0.06     0.03  -0.07  -0.14     0.08   0.01   0.18
  20   1     0.04   0.01   0.04    -0.07  -0.13   0.11    -0.09  -0.00  -0.15
  21   1     0.08   0.04   0.08    -0.02   0.11   0.01    -0.01   0.05  -0.06
  22   1     0.01   0.02  -0.09     0.17  -0.01  -0.02    -0.01  -0.30  -0.00
  23   1     0.01   0.07   0.07     0.03   0.09   0.09    -0.01  -0.03  -0.02
  24   1     0.02   0.00   0.02    -0.08   0.13   0.16     0.12  -0.05   0.12
  25   1     0.08  -0.04   0.07    -0.01  -0.13   0.01    -0.01   0.09   0.05
  26   1     0.08  -0.01   0.07    -0.03  -0.12  -0.04     0.02   0.07  -0.04
  27   1     0.05   0.05  -0.04     0.00   0.07  -0.18    -0.09  -0.01  -0.14
                     25                     26                     27
                        a                      a                      a 
 Frequencies --   937.6127               974.7591               980.5796
 Red. masses --     7.3871                 5.6907                 6.7552
 Frc consts  --     0.0000                 0.0000                 0.0000
 IR Inten    --     9.9848                39.5676                32.9885
 Raman Activ --     0.0000                 0.0000                 0.0000
 Depolar     --     0.0000                 0.0000                 0.0000
 Atom AN      X      Y      Z        X      Y      Z        X      Y      Z
   1   7    -0.21   0.04   0.08     0.17   0.04   0.02     0.15  -0.20   0.09
   2   6     0.09  -0.06   0.03    -0.19  -0.08  -0.04    -0.19   0.22  -0.10
   3   6     0.28   0.00  -0.02    -0.09  -0.04  -0.05    -0.14  -0.00  -0.03
   4   6    -0.06   0.26   0.02     0.23   0.27  -0.01    -0.13   0.04   0.13
   5   6    -0.03  -0.24  -0.05    -0.03  -0.21   0.04     0.30  -0.12  -0.12
   6   6     0.29  -0.03  -0.04    -0.19   0.04  -0.05    -0.13  -0.01  -0.03
   7   6    -0.04  -0.04  -0.02     0.01   0.03   0.01     0.01   0.01   0.07
   8   8    -0.03   0.05   0.09     0.01  -0.02  -0.04    -0.00  -0.07  -0.09
   9   8    -0.06  -0.05   0.01     0.04   0.03  -0.01     0.02   0.03   0.00
  10   6    -0.05   0.31   0.02     0.17   0.16  -0.12    -0.14   0.09   0.07
  11   6    -0.06  -0.27  -0.05     0.08  -0.12   0.15     0.28  -0.12  -0.04
  12   1     0.11  -0.01  -0.03     0.01  -0.11   0.03     0.09  -0.05   0.00
  13   1     0.12  -0.04  -0.04    -0.20   0.10  -0.03     0.10  -0.07   0.00
  14   1    -0.19   0.25  -0.10     0.09  -0.19   0.02    -0.00   0.02  -0.01
  15   1     0.07  -0.03  -0.00    -0.20   0.03   0.18     0.00   0.03  -0.02
  16   1     0.04  -0.02   0.00     0.10   0.07  -0.06    -0.01   0.04  -0.04
  17   1     0.11  -0.02  -0.02     0.05   0.04  -0.04     0.02  -0.03  -0.03
  18   1    -0.03  -0.03  -0.01    -0.06  -0.22  -0.09    -0.11   0.21  -0.03
  19   1    -0.15   0.15   0.00    -0.13   0.17   0.25     0.09  -0.06  -0.03
  20   1    -0.15  -0.18  -0.03    -0.00  -0.05   0.07    -0.07  -0.16   0.25
  21   1    -0.04   0.04  -0.01    -0.14  -0.10  -0.10    -0.06   0.30  -0.07
  22   1     0.15  -0.02  -0.04    -0.10   0.07   0.01    -0.09  -0.03   0.02
  23   1     0.02   0.07   0.08    -0.01  -0.03  -0.03     0.01   0.02   0.01
  24   1    -0.17   0.18   0.01    -0.07   0.10   0.19     0.05  -0.03  -0.02
  25   1    -0.03  -0.05  -0.00    -0.09  -0.18  -0.12    -0.11   0.19  -0.05
  26   1    -0.04   0.03  -0.02    -0.08  -0.09  -0.05    -0.03   0.24  -0.05
  27   1    -0.17  -0.19  -0.05     0.06  -0.00   0.11    -0.07  -0.12   0.24
                     28                     29                     30
                        a                      a                      a 
 Frequencies --  1001.7894              1014.2053              1028.2510
 Red. masses --     6.9412                 8.1973                 8.1447
 Frc consts  --     0.0000                 0.0000                 0.0000
 IR Inten    --    30.9831                46.4061                32.5886
 Raman Activ --     0.0000                 0.0000                 0.0000
 Depolar     --     0.0000                 0.0000                 0.0000
 Atom AN      X      Y      Z        X      Y      Z        X      Y      Z
   1   7     0.00   0.11  -0.21    -0.12   0.32  -0.07    -0.22   0.12  -0.11
   2   6     0.04  -0.17   0.27     0.19  -0.46   0.01     0.45  -0.09   0.04
   3   6    -0.04  -0.02  -0.18     0.07  -0.12   0.05    -0.26   0.12  -0.05
   4   6    -0.01   0.15  -0.14    -0.22   0.04   0.03     0.07  -0.01   0.07
   5   6     0.06  -0.06   0.19     0.12  -0.04  -0.07     0.13  -0.03   0.01
   6   6    -0.02   0.02  -0.14     0.06   0.05   0.04    -0.23  -0.06  -0.06
   7   6     0.09  -0.15  -0.05    -0.04   0.07   0.08    -0.02   0.09   0.10
   8   8     0.02   0.17   0.14    -0.05  -0.16  -0.13    -0.02  -0.12  -0.12
   9   8    -0.06  -0.05  -0.03     0.04   0.05   0.03     0.07   0.06  -0.00
  10   6    -0.12   0.02   0.18    -0.13  -0.07  -0.12     0.21   0.11   0.10
  11   6     0.20  -0.09  -0.14     0.13   0.14   0.11    -0.10  -0.15  -0.03
  12   1    -0.24   0.16   0.02    -0.06  -0.02   0.00    -0.08   0.14  -0.03
  13   1    -0.10   0.04   0.08    -0.24   0.16  -0.05     0.06  -0.02   0.01
  14   1     0.16  -0.16   0.11     0.00  -0.07  -0.01    -0.06   0.11  -0.01
  15   1    -0.02  -0.03  -0.03    -0.09  -0.07   0.20     0.22  -0.05  -0.18
  16   1    -0.17  -0.07   0.13     0.20   0.01  -0.06     0.02  -0.12   0.05
  17   1    -0.23   0.00   0.04     0.09   0.01  -0.01    -0.20   0.02   0.03
  18   1    -0.00  -0.10  -0.03    -0.04   0.15   0.02    -0.03   0.01  -0.02
  19   1    -0.08   0.08   0.05    -0.01  -0.01  -0.13     0.07  -0.04   0.09
  20   1     0.01  -0.02   0.01    -0.09  -0.11   0.05     0.06   0.01   0.15
  21   1     0.05  -0.02   0.07     0.03   0.18   0.02    -0.03   0.07  -0.03
  22   1     0.13   0.05  -0.09    -0.06   0.12   0.05    -0.14  -0.15   0.02
  23   1    -0.04  -0.07  -0.07     0.05   0.14   0.12     0.02   0.04   0.03
  24   1     0.05  -0.04  -0.08     0.03  -0.05  -0.07     0.02   0.03   0.20
  25   1    -0.00   0.17   0.06    -0.03   0.08  -0.03    -0.05  -0.11  -0.05
  26   1     0.04   0.25  -0.00     0.06   0.02   0.04    -0.13  -0.10  -0.10
  27   1    -0.09  -0.12   0.13     0.05   0.04   0.03     0.01  -0.00   0.05
                     31                     32                     33
                        a                      a                      a 
 Frequencies --  1040.1706              1073.9391              1082.2777
 Red. masses --     7.8781                 6.3806                 5.7281
 Frc consts  --     0.0000                 0.0000                 0.0000
 IR Inten    --   342.6198                 2.3673                 4.5866
 Raman Activ --     0.0000                 0.0000                 0.0000
 Depolar     --     0.0000                 0.0000                 0.0000
 Atom AN      X      Y      Z        X      Y      Z        X      Y      Z
   1   7    -0.08   0.10   0.04    -0.04  -0.03   0.05     0.07   0.03   0.05
   2   6     0.15  -0.12  -0.14     0.04   0.06  -0.08    -0.16  -0.08  -0.06
   3   6    -0.07   0.00   0.14     0.10  -0.23   0.07     0.18   0.16   0.09
   4   6    -0.08  -0.04   0.03    -0.20   0.18  -0.16    -0.10  -0.02  -0.21
   5   6     0.10   0.04  -0.03     0.08  -0.09   0.14     0.18   0.20   0.21
   6   6    -0.07  -0.03   0.13    -0.16   0.27  -0.00    -0.10  -0.20  -0.04
   7   6     0.02  -0.15  -0.21     0.03  -0.03   0.01     0.00   0.03   0.06
   8   8     0.20   0.37   0.25     0.01  -0.01  -0.02    -0.01  -0.04  -0.04
   9   8    -0.13  -0.18  -0.06     0.01   0.02  -0.00     0.03   0.02  -0.01
  10   6    -0.02   0.03  -0.05     0.24  -0.21   0.19     0.04   0.02   0.13
  11   6     0.01   0.02   0.04    -0.09   0.07  -0.16    -0.14  -0.14  -0.17
  12   1     0.05  -0.04  -0.01     0.06  -0.03  -0.01     0.04  -0.08   0.01
  13   1    -0.03   0.04  -0.05     0.04  -0.02  -0.02    -0.07   0.04  -0.02
  14   1    -0.07   0.05  -0.05    -0.05   0.07  -0.03     0.00  -0.03  -0.01
  15   1     0.03  -0.03   0.06    -0.00   0.02  -0.04    -0.07  -0.02   0.15
  16   1     0.17   0.02  -0.08     0.01  -0.00  -0.02     0.06   0.09  -0.06
  17   1     0.06   0.04   0.01     0.02  -0.28   0.01     0.09   0.26   0.00
  18   1    -0.09   0.12  -0.05    -0.18   0.09  -0.15     0.07  -0.05   0.03
  19   1     0.05  -0.05  -0.00    -0.17   0.12  -0.08    -0.16   0.10  -0.19
  20   1     0.02   0.01   0.10     0.10   0.05   0.17     0.14   0.13   0.09
  21   1    -0.06   0.04  -0.07    -0.11  -0.05  -0.07     0.19   0.11   0.18
  22   1     0.03  -0.01   0.01    -0.03   0.30   0.00    -0.00  -0.25  -0.02
  23   1    -0.14  -0.42  -0.37    -0.00   0.00  -0.01     0.01   0.01   0.01
  24   1     0.01  -0.01   0.06     0.17  -0.13   0.12     0.13  -0.09   0.14
  25   1    -0.11   0.04  -0.09     0.17  -0.11   0.14    -0.09   0.06  -0.05
  26   1    -0.07  -0.06  -0.05     0.04   0.02   0.01    -0.15  -0.08  -0.14
  27   1     0.03   0.03   0.03    -0.08  -0.03  -0.14    -0.17  -0.14  -0.13
                     34                     35                     36
                        a                      a                      a 
 Frequencies --  1112.0125              1134.6365              1154.3807
 Red. masses --     5.7929                 6.2176                 3.4372
 Frc consts  --     0.0000                 0.0000                 0.0000
 IR Inten    --    16.4203                 0.7651                 1.0447
 Raman Activ --     0.0000                 0.0000                 0.0000
 Depolar     --     0.0000                 0.0000                 0.0000
 Atom AN      X      Y      Z        X      Y      Z        X      Y      Z
   1   7     0.03  -0.03  -0.07     0.04   0.05  -0.01     0.06   0.08  -0.01
   2   6    -0.09   0.04   0.25    -0.08  -0.11   0.05    -0.09  -0.16   0.01
   3   6     0.17  -0.04  -0.28     0.05   0.27  -0.03    -0.01   0.29   0.01
   4   6    -0.13   0.03   0.06     0.05  -0.11   0.21     0.03  -0.09   0.17
   5   6     0.16   0.01  -0.09    -0.04  -0.12  -0.24    -0.05  -0.04  -0.06
   6   6    -0.06  -0.07   0.11    -0.01   0.33   0.04    -0.01   0.02   0.01
   7   6    -0.16   0.13   0.11    -0.01  -0.02   0.05     0.01   0.00  -0.04
   8   8     0.13   0.03  -0.06     0.03   0.02  -0.02    -0.01  -0.01   0.01
   9   8    -0.02  -0.08  -0.03    -0.05  -0.03  -0.01     0.01   0.01   0.01
  10   6     0.14   0.05  -0.17     0.09  -0.13   0.17     0.06  -0.06   0.05
  11   6    -0.09  -0.00   0.14    -0.07  -0.10  -0.21    -0.00  -0.08  -0.17
  12   1    -0.08   0.05   0.01    -0.02  -0.01   0.01    -0.01  -0.06   0.01
  13   1     0.01  -0.02   0.05    -0.06   0.04  -0.01    -0.08   0.05   0.00
  14   1     0.06  -0.04   0.04     0.04  -0.06   0.01     0.02  -0.04  -0.00
  15   1    -0.03   0.02  -0.04    -0.02  -0.03   0.07     0.04  -0.07   0.08
  16   1    -0.17  -0.06   0.12    -0.00   0.03   0.00     0.04   0.07  -0.03
  17   1     0.02   0.03  -0.06     0.07  -0.19  -0.03     0.03   0.34  -0.01
  18   1     0.09   0.03   0.12     0.13  -0.02   0.15    -0.10   0.14  -0.05
  19   1    -0.04   0.03  -0.12    -0.18   0.12  -0.23     0.27  -0.20   0.17
  20   1    -0.06  -0.08   0.03     0.10   0.06   0.17     0.03   0.03   0.05
  21   1     0.09   0.21   0.06    -0.07   0.05  -0.09    -0.20  -0.15  -0.19
  22   1    -0.28   0.04   0.14     0.03  -0.26  -0.01    -0.02   0.11   0.01
  23   1    -0.07  -0.25  -0.22    -0.02  -0.05  -0.06     0.01   0.03   0.03
  24   1    -0.05   0.06   0.05    -0.18   0.12  -0.19    -0.01   0.00  -0.03
  25   1     0.11  -0.23   0.03     0.12  -0.03   0.12     0.20  -0.14   0.16
  26   1     0.16   0.01   0.18    -0.08  -0.02  -0.10     0.10   0.17   0.06
  27   1    -0.08  -0.06  -0.20     0.15   0.11   0.17    -0.30  -0.25  -0.24
                     37                     38                     39
                        a                      a                      a 
 Frequencies --  1160.8195              1189.0530              1225.7173
 Red. masses --     3.4159                 7.0194                 5.2334
 Frc consts  --     0.0000                 0.0000                 0.0000
 IR Inten    --     0.1609                79.7060               117.6128
 Raman Activ --     0.0000                 0.0000                 0.0000
 Depolar     --     0.0000                 0.0000                 0.0000
 Atom AN      X      Y      Z        X      Y      Z        X      Y      Z
   1   7     0.01  -0.00   0.00    -0.01  -0.03  -0.08     0.04   0.06   0.09
   2   6    -0.02   0.01   0.01    -0.03   0.04   0.23     0.01  -0.06  -0.18
   3   6     0.00   0.09  -0.01     0.14   0.02  -0.25    -0.13   0.02   0.10
   4   6     0.10  -0.08   0.09    -0.09  -0.01   0.16     0.08  -0.01  -0.02
   5   6    -0.07  -0.09  -0.20     0.04   0.01  -0.09     0.01   0.01  -0.02
   6   6     0.02   0.25   0.01    -0.05   0.05   0.11     0.00  -0.02   0.10
   7   6    -0.00  -0.03   0.04     0.22  -0.18  -0.40     0.15  -0.12  -0.45
   8   8     0.02   0.02  -0.01    -0.11   0.04   0.15    -0.07   0.06   0.14
   9   8    -0.04  -0.02  -0.00     0.00   0.05   0.05    -0.02   0.01   0.05
  10   6     0.06  -0.08   0.18     0.04  -0.02  -0.07     0.01   0.03   0.01
  11   6    -0.08  -0.07  -0.08    -0.11  -0.02   0.15     0.06  -0.02  -0.01
  12   1    -0.00  -0.00   0.00    -0.07   0.07  -0.00     0.06  -0.08   0.01
  13   1    -0.00   0.00   0.00     0.02  -0.03   0.05    -0.05   0.05  -0.06
  14   1     0.00  -0.00  -0.00     0.04  -0.02   0.04    -0.03  -0.00  -0.04
  15   1     0.01  -0.00   0.01    -0.08   0.04  -0.03     0.16  -0.09   0.01
  16   1    -0.01   0.01   0.00    -0.05  -0.10   0.08    -0.11   0.14  -0.03
  17   1     0.00   0.15  -0.00     0.16   0.02  -0.11    -0.21  -0.11   0.09
  18   1     0.19  -0.12   0.16    -0.03   0.11   0.03     0.11  -0.12   0.07
  19   1     0.04  -0.03  -0.00    -0.00  -0.00  -0.11    -0.11   0.09  -0.08
  20   1    -0.28  -0.24  -0.25     0.10   0.08   0.15    -0.04  -0.03  -0.04
  21   1     0.10   0.15   0.07    -0.15  -0.07  -0.16     0.13   0.10   0.12
  22   1    -0.01   0.40   0.02     0.02  -0.05   0.01    -0.48   0.00   0.23
  23   1    -0.02  -0.04  -0.05     0.06   0.22   0.21     0.05   0.14   0.15
  24   1     0.28  -0.21   0.22     0.13  -0.10   0.16    -0.04   0.04  -0.01
  25   1    -0.10   0.13  -0.05    -0.21   0.10  -0.20     0.08  -0.06   0.07
  26   1    -0.18  -0.13  -0.17    -0.04  -0.13   0.01     0.09   0.11   0.08
  27   1    -0.03  -0.02  -0.00     0.01   0.01  -0.08    -0.06  -0.06  -0.02
                     40                     41                     42
                        a                      a                      a 
 Frequencies --  1234.3820              1257.2158              1261.9668
 Red. masses --     3.0204                 4.1897                 5.5321
 Frc consts  --     0.0000                 0.0000                 0.0000
 IR Inten    --    12.3690                20.5444                 6.0205
 Raman Activ --     0.0000                 0.0000                 0.0000
 Depolar     --     0.0000                 0.0000                 0.0000
 Atom AN      X      Y      Z        X      Y      Z        X      Y      Z
   1   7    -0.11  -0.14  -0.17     0.01   0.01   0.00    -0.00  -0.02   0.04
   2   6     0.07   0.14   0.09     0.03  -0.01  -0.07     0.06   0.03  -0.10
   3   6    -0.12  -0.02   0.16    -0.25   0.10   0.06    -0.07  -0.22   0.04
   4   6     0.09  -0.01   0.00     0.10  -0.07   0.13     0.03   0.10   0.02
   5   6    -0.03  -0.00  -0.03    -0.07   0.06  -0.16     0.00  -0.17  -0.03
   6   6     0.04   0.03   0.02     0.18  -0.12  -0.03    -0.13   0.42   0.10
   7   6     0.02  -0.01  -0.09    -0.08   0.07   0.16     0.05  -0.05   0.02
   8   8    -0.01   0.01   0.03     0.02  -0.02  -0.04    -0.01  -0.00  -0.01
   9   8    -0.01  -0.01   0.01    -0.00  -0.02  -0.02    -0.02   0.00   0.00
  10   6    -0.03  -0.03   0.02    -0.07   0.05  -0.13     0.09  -0.18  -0.15
  11   6     0.08   0.02  -0.08     0.08  -0.04   0.14     0.01   0.13   0.09
  12   1    -0.08   0.14  -0.04     0.01  -0.01  -0.00     0.02  -0.02   0.00
  13   1     0.12  -0.11   0.09    -0.01   0.01  -0.01     0.00  -0.00  -0.01
  14   1     0.04   0.05   0.07    -0.00   0.01  -0.00    -0.04   0.04  -0.02
  15   1    -0.41   0.22  -0.01     0.06  -0.03  -0.01     0.00   0.01   0.00
  16   1     0.54  -0.32  -0.11     0.07   0.00  -0.04    -0.04   0.04  -0.01
  17   1     0.04   0.13   0.02    -0.11  -0.19   0.03    -0.20   0.27   0.08
  18   1     0.05  -0.05   0.02     0.17  -0.12   0.16     0.07  -0.08   0.06
  19   1    -0.09   0.07  -0.03    -0.26   0.19  -0.21    -0.01   0.03   0.05
  20   1    -0.02  -0.01   0.02     0.19   0.18   0.14    -0.06  -0.09  -0.00
  21   1     0.05   0.02   0.05    -0.12  -0.09  -0.15     0.05   0.10   0.07
  22   1    -0.19  -0.03   0.09     0.15   0.15  -0.05     0.25  -0.47  -0.10
  23   1     0.01   0.02   0.02    -0.01  -0.05  -0.04    -0.00   0.01  -0.00
  24   1    -0.04   0.02  -0.04     0.19  -0.14   0.14     0.03  -0.05  -0.00
  25   1     0.11  -0.03   0.10    -0.12   0.07  -0.12    -0.06   0.01  -0.11
  26   1     0.00   0.07  -0.02     0.15   0.13   0.16     0.14   0.07   0.14
  27   1    -0.08  -0.07  -0.04    -0.19  -0.17  -0.14    -0.14  -0.09  -0.19
                     43                     44                     45
                        a                      a                      a 
 Frequencies --  1286.9754              1304.8539              1321.1701
 Red. masses --     3.9684                 6.1121                 3.9085
 Frc consts  --     0.0000                 0.0000                 0.0000
 IR Inten    --     6.9205                16.5504                21.5927
 Raman Activ --     0.0000                 0.0000                 0.0000
 Depolar     --     0.0000                 0.0000                 0.0000
 Atom AN      X      Y      Z        X      Y      Z        X      Y      Z
   1   7     0.00   0.07  -0.08    -0.01  -0.03   0.01    -0.05   0.15  -0.07
   2   6    -0.15  -0.01   0.12     0.03  -0.01  -0.06    -0.18   0.08   0.14
   3   6    -0.08   0.32   0.06     0.05   0.06   0.05    -0.15  -0.28   0.05
   4   6     0.08  -0.08  -0.15    -0.04  -0.06   0.03    -0.05   0.10  -0.03
   5   6    -0.06  -0.03   0.05     0.16   0.13  -0.09     0.05   0.01  -0.05
   6   6    -0.12   0.10   0.07    -0.46  -0.25   0.22    -0.07  -0.04   0.07
   7   6     0.03  -0.03  -0.01     0.10  -0.08  -0.10     0.03  -0.02  -0.04
   8   8    -0.00   0.00  -0.00    -0.04  -0.00   0.03    -0.01   0.00   0.01
   9   8     0.01   0.02   0.00     0.09   0.09   0.01     0.02   0.02   0.00
  10   6     0.10  -0.03  -0.07     0.07   0.08  -0.05    -0.12   0.06  -0.06
  11   6    -0.06  -0.10   0.05    -0.04  -0.05  -0.05     0.08   0.07  -0.05
  12   1    -0.01  -0.02  -0.01     0.00   0.02  -0.00     0.05  -0.13  -0.02
  13   1     0.01   0.00   0.04    -0.00  -0.01  -0.02     0.08  -0.01   0.07
  14   1     0.07  -0.06   0.05    -0.02   0.02  -0.01     0.09  -0.13   0.07
  15   1     0.19  -0.09  -0.04    -0.15   0.06   0.04     0.50  -0.20  -0.16
  16   1     0.23  -0.10  -0.05     0.03   0.01  -0.02     0.18  -0.10  -0.03
  17   1     0.26  -0.45  -0.09    -0.16  -0.04   0.07     0.30   0.22  -0.11
  18   1    -0.14   0.03  -0.17     0.13  -0.05   0.12     0.14  -0.15   0.13
  19   1     0.08  -0.07   0.08    -0.04   0.02  -0.09    -0.05   0.05  -0.04
  20   1    -0.12  -0.09  -0.11    -0.12  -0.10  -0.08     0.03   0.01   0.06
  21   1     0.21   0.12   0.21    -0.00   0.10  -0.04    -0.03   0.01  -0.04
  22   1     0.11  -0.09  -0.04     0.44   0.25  -0.18     0.09  -0.00  -0.03
  23   1     0.00   0.01   0.00     0.02   0.07   0.06     0.01   0.02   0.02
  24   1     0.02  -0.01   0.06    -0.12   0.11  -0.03     0.03  -0.03   0.02
  25   1    -0.09   0.01  -0.11     0.12  -0.17   0.08     0.19  -0.11   0.17
  26   1     0.15   0.10   0.16     0.07   0.06   0.07    -0.07  -0.02  -0.09
  27   1    -0.08  -0.07  -0.07     0.05   0.04   0.05     0.04   0.04   0.05
                     46                     47                     48
                        a                      a                      a 
 Frequencies --  1331.6493              1342.5183              1345.3361
 Red. masses --     4.0373                 4.3268                 4.1191
 Frc consts  --     0.0000                 0.0000                 0.0000
 IR Inten    --     0.6381                 8.0872                27.3563
 Raman Activ --     0.0000                 0.0000                 0.0000
 Depolar     --     0.0000                 0.0000                 0.0000
 Atom AN      X      Y      Z        X      Y      Z        X      Y      Z
   1   7    -0.01  -0.01   0.01    -0.03   0.02   0.00    -0.04   0.09  -0.04
   2   6     0.03  -0.03  -0.01    -0.04   0.01  -0.01    -0.19   0.04   0.02
   3   6     0.01   0.04   0.01     0.10  -0.11   0.05     0.14  -0.07  -0.01
   4   6     0.07  -0.12   0.06     0.03   0.07   0.04     0.00  -0.08   0.08
   5   6     0.11   0.12   0.17    -0.20  -0.14  -0.18     0.17   0.15   0.15
   6   6     0.06   0.12  -0.01     0.06  -0.07   0.02    -0.00  -0.02  -0.14
   7   6    -0.02   0.01   0.01    -0.01  -0.00  -0.00    -0.01   0.03   0.04
   8   8     0.01  -0.00  -0.00     0.00  -0.00   0.00     0.01  -0.01  -0.01
   9   8    -0.01  -0.01   0.00     0.00   0.00   0.00    -0.01  -0.02  -0.01
  10   6    -0.20   0.19  -0.18     0.07   0.06   0.03     0.21  -0.12   0.14
  11   6    -0.10  -0.18  -0.12    -0.28  -0.17  -0.23    -0.12   0.00  -0.03
  12   1     0.01   0.02  -0.00     0.02  -0.00  -0.01     0.04  -0.09  -0.01
  13   1    -0.00   0.00  -0.03     0.04  -0.01  -0.03     0.09  -0.02   0.04
  14   1     0.00  -0.01   0.00     0.01  -0.06   0.00     0.05  -0.11   0.03
  15   1    -0.06   0.02   0.02     0.03  -0.01   0.01     0.20  -0.09  -0.04
  16   1    -0.03   0.02   0.01     0.07  -0.03  -0.02     0.25  -0.08  -0.08
  17   1     0.01   0.04   0.00    -0.06   0.25   0.05    -0.26   0.09   0.11
  18   1    -0.11   0.09  -0.10    -0.05   0.06  -0.04    -0.03   0.03  -0.01
  19   1    -0.12   0.07  -0.12     0.04  -0.01   0.10    -0.10   0.06  -0.13
  20   1    -0.20  -0.15  -0.19     0.21   0.18   0.19    -0.18  -0.14  -0.17
  21   1    -0.14  -0.14  -0.12     0.18   0.13   0.17    -0.21  -0.16  -0.20
  22   1    -0.03  -0.25   0.01     0.01   0.16   0.01    -0.12   0.03   0.02
  23   1    -0.00  -0.00  -0.01     0.00   0.00   0.00    -0.00  -0.01  -0.01
  24   1     0.32  -0.23   0.25     0.05  -0.01   0.11    -0.18   0.14  -0.10
  25   1     0.19  -0.16   0.15    -0.10   0.06  -0.09    -0.24   0.18  -0.20
  26   1     0.14   0.10   0.13     0.29   0.20   0.28     0.10   0.06   0.11
  27   1     0.17   0.11   0.21     0.24   0.20   0.20     0.04   0.06  -0.02
                     49                     50                     51
                        a                      a                      a 
 Frequencies --  1351.6245              1364.3730              1366.3055
 Red. masses --     4.2427                 4.1194                 2.9522
 Frc consts  --     0.0000                 0.0000                 0.0000
 IR Inten    --     5.7661                31.7209               253.2605
 Raman Activ --     0.0000                 0.0000                 0.0000
 Depolar     --     0.0000                 0.0000                 0.0000
 Atom AN      X      Y      Z        X      Y      Z        X      Y      Z
   1   7    -0.01   0.03  -0.02     0.06  -0.10   0.03    -0.30   0.16  -0.00
   2   6    -0.16   0.01  -0.01     0.12  -0.01   0.00     0.15  -0.04  -0.06
   3   6     0.29   0.13  -0.00    -0.18   0.00   0.18    -0.06   0.06   0.02
   4   6    -0.27   0.15  -0.15    -0.20   0.10  -0.19    -0.04   0.01  -0.05
   5   6     0.04  -0.07  -0.01     0.15   0.04   0.09     0.02  -0.01   0.02
   6   6     0.08   0.06  -0.01     0.02   0.02  -0.08     0.01   0.01  -0.01
   7   6    -0.00   0.01  -0.00     0.00   0.01   0.00     0.00   0.00   0.00
   8   8    -0.00   0.00   0.00    -0.01   0.00   0.00    -0.00  -0.00  -0.00
   9   8    -0.01  -0.01   0.00    -0.01  -0.01   0.00    -0.00  -0.00  -0.00
  10   6    -0.11   0.07  -0.09     0.12  -0.04   0.07     0.02  -0.01   0.01
  11   6    -0.01  -0.05   0.07    -0.12  -0.05  -0.14    -0.00  -0.02  -0.00
  12   1     0.00  -0.04  -0.00    -0.06   0.17   0.01     0.45  -0.16  -0.14
  13   1     0.03  -0.01   0.02    -0.14   0.05  -0.07     0.39  -0.13  -0.06
  14   1     0.01  -0.04   0.00    -0.05   0.14  -0.03     0.25  -0.37   0.29
  15   1     0.01  -0.02  -0.00    -0.07   0.04  -0.01    -0.21   0.08   0.09
  16   1     0.25  -0.04  -0.09    -0.10   0.04   0.04    -0.20   0.04   0.06
  17   1    -0.38  -0.25   0.16     0.40  -0.01  -0.12     0.08  -0.03  -0.03
  18   1     0.25  -0.14   0.23     0.30  -0.22   0.25     0.07  -0.03   0.06
  19   1     0.29  -0.21   0.19     0.13  -0.11   0.09     0.04  -0.03   0.04
  20   1     0.06   0.02   0.13    -0.05  -0.06  -0.02    -0.00  -0.01  -0.00
  21   1    -0.07  -0.06  -0.06    -0.15  -0.11  -0.15    -0.03  -0.01  -0.02
  22   1    -0.03  -0.11   0.02    -0.09  -0.03   0.02    -0.01  -0.02   0.00
  23   1     0.00  -0.00   0.00    -0.00   0.00   0.00    -0.00   0.00  -0.00
  24   1     0.13  -0.10   0.11    -0.05   0.05  -0.03    -0.00   0.00  -0.01
  25   1     0.07  -0.05   0.05    -0.12   0.08  -0.10    -0.03   0.01  -0.02
  26   1    -0.04  -0.08  -0.02     0.19   0.14   0.17     0.01   0.05   0.02
  27   1     0.04   0.02   0.06     0.05   0.05   0.06    -0.02  -0.02  -0.04
                     52                     53                     54
                        a                      a                      a 
 Frequencies --  1391.3152              1405.1166              1473.3543
 Red. masses --     1.6188                 1.7076                 1.8450
 Frc consts  --     0.0000                 0.0000                 0.0000
 IR Inten    --   119.2545               102.0878                11.1235
 Raman Activ --     0.0000                 0.0000                 0.0000
 Depolar     --     0.0000                 0.0000                 0.0000
 Atom AN      X      Y      Z        X      Y      Z        X      Y      Z
   1   7     0.07   0.16   0.10     0.03   0.10  -0.17     0.00   0.01  -0.01
   2   6     0.06   0.02   0.01     0.09  -0.00  -0.07     0.02   0.17  -0.19
   3   6    -0.04   0.02   0.02    -0.03   0.01   0.03     0.00   0.01   0.00
   4   6    -0.01   0.00  -0.02    -0.01   0.00  -0.02    -0.00   0.00  -0.00
   5   6     0.01   0.00   0.01     0.01  -0.00   0.01     0.00   0.03  -0.02
   6   6    -0.00   0.00  -0.00     0.01  -0.00  -0.01     0.00   0.01   0.00
   7   6     0.00  -0.00  -0.00    -0.00   0.00   0.00    -0.00  -0.00  -0.00
   8   8    -0.00  -0.00  -0.00     0.00  -0.00   0.00     0.00   0.00   0.00
   9   8    -0.00  -0.00   0.00    -0.00  -0.00  -0.00     0.00   0.00   0.00
  10   6     0.00  -0.00   0.00     0.01   0.01   0.01    -0.01   0.06   0.06
  11   6     0.00  -0.01   0.00    -0.02  -0.02  -0.03    -0.00   0.01  -0.01
  12   1    -0.43  -0.16   0.17    -0.13  -0.59   0.07    -0.02   0.04  -0.00
  13   1     0.41  -0.10  -0.13     0.00  -0.10   0.68    -0.03   0.02  -0.02
  14   1    -0.28  -0.43  -0.48    -0.01   0.25   0.01    -0.00   0.02  -0.01
  15   1    -0.08   0.05   0.02    -0.09   0.04   0.05     0.16  -0.11   0.61
  16   1    -0.02  -0.03   0.02    -0.11   0.02   0.02    -0.17  -0.61   0.10
  17   1     0.06  -0.02  -0.02     0.03  -0.02  -0.01    -0.01  -0.00   0.01
  18   1     0.03  -0.01   0.02     0.03  -0.01   0.02     0.00  -0.01   0.00
  19   1     0.00  -0.01   0.01     0.01  -0.01   0.02     0.01  -0.01   0.00
  20   1    -0.01  -0.01  -0.00     0.00  -0.00  -0.00    -0.05  -0.04   0.07
  21   1    -0.01  -0.01  -0.01    -0.01  -0.00  -0.01     0.03  -0.08   0.01
  22   1    -0.00  -0.01  -0.00    -0.01   0.00   0.00    -0.00  -0.00   0.00
  23   1     0.00   0.00   0.00    -0.00   0.00  -0.00    -0.00  -0.00  -0.00
  24   1     0.00  -0.00  -0.00     0.01  -0.00   0.00     0.10  -0.05  -0.18
  25   1    -0.00  -0.00  -0.00    -0.02   0.01  -0.02    -0.07  -0.17  -0.04
  26   1    -0.01   0.04  -0.00     0.04   0.02   0.03     0.01  -0.03   0.01
  27   1     0.00  -0.00  -0.03     0.03   0.03   0.04    -0.02  -0.01   0.02
                     55                     56                     57
                        a                      a                      a 
 Frequencies --  1496.7423              1503.3483              1503.9996
 Red. masses --     1.8656                 1.9055                 1.9444
 Frc consts  --     0.0000                 0.0000                 0.0000
 IR Inten    --     1.0198                 2.7238                 5.5784
 Raman Activ --     0.0000                 0.0000                 0.0000
 Depolar     --     0.0000                 0.0000                 0.0000
 Atom AN      X      Y      Z        X      Y      Z        X      Y      Z
   1   7     0.00  -0.01   0.00     0.00   0.01   0.01     0.01  -0.00  -0.01
   2   6    -0.01  -0.04   0.04     0.00   0.01  -0.01    -0.00   0.04  -0.05
   3   6     0.00  -0.03   0.00    -0.00  -0.00  -0.02     0.00   0.00  -0.00
   4   6     0.01  -0.07  -0.09     0.01  -0.07  -0.06    -0.00  -0.10  -0.10
   5   6     0.00   0.09  -0.10     0.01   0.15  -0.13     0.01  -0.08   0.08
   6   6    -0.00   0.03  -0.00    -0.01  -0.00  -0.01     0.00  -0.01  -0.00
   7   6    -0.01  -0.00   0.00     0.00   0.01   0.01     0.01   0.00  -0.00
   8   8    -0.00  -0.00  -0.00    -0.00  -0.00  -0.00    -0.01  -0.00   0.00
   9   8     0.00   0.00   0.00    -0.01  -0.01  -0.00    -0.01  -0.01  -0.00
  10   6    -0.01   0.08   0.11     0.02  -0.10  -0.11    -0.01  -0.10  -0.11
  11   6     0.00  -0.10   0.10     0.00   0.08  -0.06     0.00  -0.13   0.10
  12   1     0.01   0.00  -0.00     0.00  -0.00   0.00    -0.00   0.02  -0.00
  13   1    -0.02   0.01   0.01     0.01  -0.00  -0.01    -0.04   0.02  -0.00
  14   1     0.00   0.02   0.01    -0.00  -0.01  -0.00     0.00   0.02   0.00
  15   1    -0.01   0.01  -0.13     0.02  -0.01   0.04     0.06  -0.04   0.15
  16   1     0.04   0.13  -0.02    -0.05  -0.02   0.02    -0.04  -0.16   0.03
  17   1     0.00   0.01  -0.00     0.00   0.00  -0.01    -0.00  -0.02   0.00
  18   1     0.12   0.26   0.10     0.09   0.21   0.07     0.14   0.27   0.11
  19   1    -0.15   0.08   0.23    -0.13   0.07   0.18    -0.16   0.07   0.26
  20   1    -0.15  -0.13   0.26    -0.22  -0.19   0.37     0.12   0.10  -0.21
  21   1     0.16  -0.26   0.07     0.22  -0.39   0.09    -0.14   0.21  -0.07
  22   1    -0.00  -0.00   0.00     0.01   0.00  -0.01     0.00  -0.01  -0.00
  23   1    -0.00  -0.00  -0.00    -0.00   0.00   0.00     0.00   0.00   0.01
  24   1     0.17  -0.10  -0.30    -0.18   0.10   0.30    -0.16   0.09   0.31
  25   1    -0.15  -0.28  -0.10     0.15   0.30   0.10     0.16   0.29   0.12
  26   1    -0.17   0.31  -0.10     0.11  -0.22   0.06    -0.17   0.31  -0.10
  27   1     0.19   0.13  -0.28    -0.13  -0.09   0.18     0.19   0.12  -0.28
                     58                     59                     60
                        a                      a                      a 
 Frequencies --  1511.1500              1723.9991              2860.8504
 Red. masses --     1.9367                13.3862                 1.7591
 Frc consts  --     0.0000                 0.0000                 0.0000
 IR Inten    --     1.6586               649.7654                46.6213
 Raman Activ --     0.0000                 0.0000                 0.0000
 Depolar     --     0.0000                 0.0000                 0.0000
 Atom AN      X      Y      Z        X      Y      Z        X      Y      Z
   1   7     0.00  -0.01   0.00     0.00  -0.00  -0.00    -0.00  -0.00   0.00
   2   6     0.02   0.01  -0.03     0.00  -0.00   0.00     0.00   0.00   0.00
   3   6    -0.00   0.01   0.02    -0.00  -0.00  -0.00    -0.09   0.00  -0.24
   4   6    -0.01   0.14   0.13     0.00   0.00   0.00    -0.01   0.01   0.00
   5   6    -0.00   0.09  -0.07    -0.01  -0.00   0.00     0.00   0.00   0.00
   6   6    -0.00  -0.00  -0.01    -0.05  -0.03   0.03     0.01  -0.00   0.02
   7   6    -0.01   0.00   0.02     0.57   0.54   0.05     0.00   0.00   0.00
   8   8     0.01  -0.00  -0.01    -0.03  -0.03  -0.01    -0.00  -0.00   0.00
   9   8     0.00   0.00  -0.00    -0.42  -0.43  -0.07    -0.00  -0.00   0.00
  10   6     0.00  -0.06  -0.06    -0.01   0.02  -0.00     0.00  -0.00   0.00
  11   6    -0.00  -0.13   0.09     0.00  -0.00  -0.00    -0.01  -0.01   0.00
  12   1     0.00   0.00  -0.00    -0.00   0.00   0.00     0.00  -0.00  -0.00
  13   1    -0.02   0.01   0.01    -0.00   0.00   0.00     0.00   0.00  -0.00
  14   1    -0.00   0.02   0.00    -0.00   0.00  -0.00     0.00   0.00  -0.00
  15   1    -0.02   0.00   0.05    -0.00   0.00  -0.00    -0.00  -0.01   0.00
  16   1    -0.04  -0.03   0.01    -0.00   0.00   0.00    -0.01  -0.00  -0.04
  17   1    -0.00  -0.00   0.01     0.00   0.00  -0.00     0.34  -0.01   0.90
  18   1    -0.19  -0.41  -0.15    -0.01  -0.00  -0.01     0.02   0.00  -0.02
  19   1     0.24  -0.11  -0.37     0.00  -0.00  -0.00    -0.01  -0.01  -0.00
  20   1    -0.12  -0.10   0.21    -0.00   0.00   0.00     0.00  -0.00  -0.00
  21   1     0.13  -0.21   0.06    -0.00   0.00   0.01     0.00   0.00  -0.00
  22   1     0.01   0.00  -0.01     0.03   0.03  -0.01    -0.03   0.00  -0.06
  23   1     0.00  -0.01  -0.01     0.01   0.05   0.05    -0.00   0.00  -0.00
  24   1    -0.10   0.05   0.18     0.01  -0.00  -0.01     0.00   0.00  -0.00
  25   1     0.09   0.18   0.07     0.00  -0.02   0.01     0.00   0.00   0.00
  26   1    -0.16   0.32  -0.09     0.00   0.01   0.00     0.02   0.00  -0.03
  27   1     0.19   0.12  -0.27     0.00   0.00   0.00    -0.01   0.01   0.00
                     61                     62                     63
                        a                      a                      a 
 Frequencies --  2868.2206              2916.3257              2919.0224
 Red. masses --     1.7612                 1.9414                 1.9379
 Frc consts  --     0.0000                 0.0000                 0.0000
 IR Inten    --    43.4085                46.2545                40.5427
 Raman Activ --     0.0000                 0.0000                 0.0000
 Depolar     --     0.0000                 0.0000                 0.0000
 Atom AN      X      Y      Z        X      Y      Z        X      Y      Z
   1   7     0.00  -0.00  -0.00    -0.00  -0.00  -0.00     0.00   0.00   0.00
   2   6    -0.00  -0.00   0.00     0.00   0.00  -0.00     0.00  -0.00   0.00
   3   6     0.01  -0.00   0.02     0.00   0.00  -0.00    -0.00  -0.00   0.00
   4   6     0.00   0.00  -0.00    -0.01  -0.01   0.01    -0.05  -0.04   0.03
   5   6     0.01   0.01  -0.00     0.08  -0.05  -0.04     0.21  -0.13  -0.10
   6   6     0.10  -0.00   0.24    -0.00  -0.01   0.00     0.01  -0.00  -0.00
   7   6     0.00   0.00   0.01    -0.00  -0.00  -0.00    -0.00  -0.00  -0.00
   8   8     0.00  -0.00  -0.00    -0.00   0.00  -0.00    -0.00   0.00   0.00
   9   8    -0.00  -0.00  -0.00     0.00   0.00   0.00     0.00   0.00   0.00
  10   6     0.01  -0.01  -0.00    -0.19  -0.16   0.09     0.06   0.05  -0.03
  11   6     0.00  -0.00  -0.00     0.05  -0.02  -0.04    -0.03   0.01   0.02
  12   1    -0.00   0.00   0.00    -0.00  -0.00   0.00    -0.00   0.00   0.00
  13   1    -0.00   0.00   0.00     0.00   0.00   0.00    -0.00  -0.00  -0.00
  14   1     0.00   0.00   0.00     0.00  -0.00  -0.00     0.00   0.00  -0.00
  15   1     0.00   0.00   0.00    -0.00  -0.00  -0.00     0.00   0.00   0.00
  16   1    -0.00  -0.00  -0.00     0.00   0.00   0.00    -0.00  -0.00  -0.01
  17   1    -0.02   0.00  -0.06     0.00  -0.00   0.00     0.00  -0.00  -0.00
  18   1    -0.00  -0.00   0.00     0.03   0.00  -0.04     0.12  -0.00  -0.14
  19   1     0.00  -0.00   0.00     0.01   0.02   0.00     0.08   0.13   0.02
  20   1     0.02  -0.02  -0.00    -0.16   0.20   0.00    -0.46   0.57   0.01
  21   1    -0.02  -0.00   0.03    -0.10  -0.03   0.14    -0.28  -0.09   0.37
  22   1    -0.38   0.01  -0.88     0.00  -0.00  -0.00    -0.00  -0.00  -0.00
  23   1    -0.00   0.00   0.00    -0.00  -0.00   0.00    -0.00  -0.00   0.00
  24   1     0.01   0.01  -0.00     0.41   0.60   0.05    -0.14  -0.21  -0.02
  25   1    -0.02  -0.00   0.02     0.29  -0.03  -0.38    -0.09   0.01   0.12
  26   1    -0.01  -0.00   0.01    -0.13  -0.02   0.16     0.06   0.01  -0.08
  27   1    -0.00   0.00   0.00    -0.06   0.09  -0.01     0.04  -0.06   0.00
                     64                     65                     66
                        a                      a                      a 
 Frequencies --  2923.2028              2925.7960              2949.7132
 Red. masses --     1.9212                 1.9152                 1.5469
 Frc consts  --     0.0000                 0.0000                 0.0000
 IR Inten    --    28.8045                88.5480                60.3849
 Raman Activ --     0.0000                 0.0000                 0.0000
 Depolar     --     0.0000                 0.0000                 0.0000
 Atom AN      X      Y      Z        X      Y      Z        X      Y      Z
   1   7    -0.00  -0.00   0.00     0.00  -0.00  -0.00     0.00   0.00  -0.00
   2   6    -0.00  -0.01  -0.00    -0.00  -0.00   0.00     0.00   0.01   0.01
   3   6     0.00   0.01   0.00     0.01  -0.00  -0.00     0.00   0.00  -0.00
   4   6     0.16   0.16  -0.06     0.10   0.10  -0.03    -0.01  -0.01   0.01
   5   6     0.04  -0.04  -0.00     0.03  -0.03  -0.00    -0.01  -0.05   0.06
   6   6     0.00  -0.00   0.00     0.00   0.00   0.00     0.00  -0.00  -0.01
   7   6    -0.00  -0.00   0.00    -0.00   0.00   0.00    -0.00  -0.00   0.00
   8   8     0.00   0.00  -0.00     0.00   0.00  -0.00    -0.00  -0.00  -0.00
   9   8     0.00  -0.00  -0.00     0.00  -0.00  -0.00     0.00   0.00   0.00
  10   6    -0.02  -0.02   0.00     0.05   0.05  -0.00     0.06  -0.10  -0.16
  11   6    -0.12   0.08   0.06     0.18  -0.12  -0.09     0.03  -0.01  -0.03
  12   1     0.00   0.00  -0.00     0.00   0.00   0.00     0.00   0.00  -0.00
  13   1     0.00  -0.00  -0.00    -0.00   0.00   0.00    -0.00   0.00  -0.00
  14   1     0.00  -0.00   0.00     0.00   0.00  -0.00    -0.00  -0.00   0.00
  15   1     0.01   0.03   0.00     0.00   0.01   0.00    -0.01  -0.02  -0.00
  16   1     0.00   0.00   0.00    -0.00  -0.00  -0.01    -0.01  -0.00  -0.02
  17   1    -0.00   0.00  -0.01     0.00   0.00   0.01     0.00  -0.00   0.00
  18   1    -0.20   0.02   0.26    -0.11   0.02   0.14     0.03  -0.00  -0.03
  19   1    -0.38  -0.59  -0.05    -0.25  -0.39  -0.03     0.02   0.03   0.00
  20   1    -0.13   0.15   0.01    -0.11   0.13   0.01    -0.13   0.15   0.01
  21   1     0.01  -0.01  -0.01    -0.00  -0.01   0.01     0.19   0.03  -0.23
  22   1    -0.00   0.00  -0.00    -0.00  -0.00  -0.00     0.01  -0.00   0.02
  23   1    -0.00   0.00   0.00    -0.00  -0.00   0.00     0.00   0.00  -0.00
  24   1     0.07   0.10   0.01    -0.14  -0.20  -0.01     0.28   0.37  -0.01
  25   1    -0.00  -0.00  -0.00    -0.01   0.01   0.01    -0.49  -0.01   0.59
  26   1     0.20   0.04  -0.25    -0.29  -0.06   0.36    -0.09  -0.01   0.10
  27   1     0.24  -0.32   0.02    -0.36   0.48  -0.03    -0.02   0.04  -0.01
                     67                     68                     69
                        a                      a                      a 
 Frequencies --  2951.6734              2956.3404              2960.2416
 Red. masses --     1.5388                 1.5168                 1.5776
 Frc consts  --     0.0000                 0.0000                 0.0000
 IR Inten    --    74.9893                77.2780                61.0603
 Raman Activ --     0.0000                 0.0000                 0.0000
 Depolar     --     0.0000                 0.0000                 0.0000
 Atom AN      X      Y      Z        X      Y      Z        X      Y      Z
   1   7     0.00  -0.00   0.00    -0.00  -0.00   0.00     0.00  -0.00  -0.00
   2   6     0.00   0.00   0.01    -0.00  -0.00   0.00    -0.00  -0.00  -0.01
   3   6     0.00   0.00   0.00    -0.00   0.00  -0.01    -0.00   0.00   0.01
   4   6     0.02   0.04   0.01    -0.01   0.02   0.03    -0.09   0.09   0.18
   5   6     0.04   0.12  -0.15    -0.00   0.01   0.00    -0.03   0.00   0.03
   6   6    -0.00   0.00  -0.02     0.00  -0.00  -0.00    -0.00  -0.00   0.00
   7   6    -0.00  -0.00   0.00     0.00   0.00  -0.00     0.00  -0.00  -0.00
   8   8    -0.00  -0.00   0.00    -0.00  -0.00   0.00    -0.00  -0.00   0.00
   9   8     0.00   0.00   0.00    -0.00  -0.00   0.00     0.00   0.00   0.00
  10   6     0.03  -0.04  -0.06     0.02   0.03  -0.00    -0.01   0.00   0.01
  11   6     0.01  -0.01  -0.01     0.03   0.15  -0.15    -0.01  -0.02   0.03
  12   1     0.00  -0.00  -0.00     0.00   0.00   0.00    -0.00  -0.00  -0.00
  13   1     0.00   0.00   0.00     0.00  -0.00  -0.00     0.00   0.00   0.00
  14   1    -0.00  -0.00   0.00     0.00   0.00  -0.00    -0.00  -0.00   0.00
  15   1    -0.00  -0.01   0.00     0.01   0.02   0.00    -0.00  -0.00  -0.00
  16   1    -0.01  -0.00  -0.04    -0.00  -0.00  -0.00     0.01   0.00   0.02
  17   1    -0.00   0.00  -0.00     0.01   0.00   0.03    -0.01   0.00  -0.04
  18   1     0.03   0.01  -0.03     0.10   0.00  -0.12     0.56   0.02  -0.64
  19   1    -0.09  -0.14  -0.01    -0.05  -0.06  -0.00    -0.24  -0.33   0.00
  20   1     0.32  -0.35  -0.04     0.02  -0.02  -0.00     0.02  -0.03   0.00
  21   1    -0.48  -0.09   0.58    -0.00   0.00   0.00     0.08   0.02  -0.10
  22   1     0.02   0.00   0.05    -0.00   0.00   0.00    -0.00   0.00  -0.01
  23   1     0.00   0.00  -0.00    -0.00  -0.00   0.00     0.00   0.00  -0.00
  24   1     0.10   0.14  -0.00    -0.07  -0.10  -0.01    -0.00  -0.00   0.00
  25   1    -0.19  -0.00   0.23     0.01   0.00  -0.01     0.03  -0.00  -0.04
  26   1    -0.02  -0.00   0.02    -0.48  -0.04   0.54     0.10   0.01  -0.11
  27   1    -0.03   0.03  -0.00     0.39  -0.48  -0.01    -0.06   0.07   0.00
                     70                     71                     72
                        a                      a                      a 
 Frequencies --  2972.4166              3005.7905              3259.8206
 Red. masses --     1.9153                 1.5796                 2.0522
 Frc consts  --     0.0000                 0.0000                 0.0000
 IR Inten    --     7.2713                12.5486               203.0959
 Raman Activ --     0.0000                 0.0000                 0.0000
 Depolar     --     0.0000                 0.0000                 0.0000
 Atom AN      X      Y      Z        X      Y      Z        X      Y      Z
   1   7    -0.00   0.00  -0.00     0.00  -0.00  -0.00     0.15   0.09  -0.22
   2   6     0.13   0.23   0.12     0.03  -0.07   0.21     0.00   0.00  -0.01
   3   6     0.01   0.01   0.01    -0.00  -0.00   0.01    -0.00   0.00  -0.00
   4   6     0.00   0.00  -0.00    -0.00  -0.00   0.00     0.00   0.00  -0.00
   5   6    -0.00  -0.00   0.00    -0.00  -0.00   0.01     0.00  -0.00  -0.00
   6   6     0.00  -0.00   0.00    -0.00  -0.00  -0.00     0.00  -0.00   0.00
   7   6     0.00   0.00  -0.00     0.00  -0.00  -0.00     0.00  -0.00   0.00
   8   8    -0.00  -0.00  -0.00    -0.00   0.00   0.00     0.00  -0.00   0.00
   9   8    -0.00  -0.00  -0.00     0.00   0.00   0.00    -0.00   0.00  -0.00
  10   6    -0.00   0.00   0.01    -0.00   0.00   0.00    -0.00   0.00   0.00
  11   6    -0.00   0.00  -0.00    -0.00  -0.00   0.00     0.00   0.00  -0.00
  12   1     0.00  -0.00   0.01     0.01   0.00   0.02     0.15   0.05   0.43
  13   1     0.01   0.02   0.00    -0.00  -0.01  -0.00    -0.09  -0.26  -0.07
  14   1    -0.00  -0.00  -0.00    -0.00  -0.00   0.00    -0.62  -0.12   0.47
  15   1    -0.35  -0.81  -0.07     0.16   0.35   0.06    -0.00  -0.01   0.00
  16   1    -0.10  -0.01  -0.36    -0.28  -0.10  -0.84     0.00   0.00   0.01
  17   1    -0.01   0.00  -0.02    -0.01   0.00  -0.03     0.00   0.00   0.00
  18   1    -0.00   0.00   0.00     0.01   0.00  -0.01    -0.00  -0.00   0.00
  19   1    -0.01  -0.02  -0.00     0.00   0.01   0.00     0.00   0.00   0.00
  20   1    -0.01   0.01   0.00    -0.00   0.00   0.00    -0.00   0.00   0.00
  21   1     0.01   0.00  -0.01     0.02   0.00  -0.02    -0.00  -0.00   0.00
  22   1    -0.00   0.00  -0.00     0.00   0.00   0.00    -0.00  -0.00  -0.00
  23   1    -0.00   0.00   0.00    -0.00  -0.00   0.00     0.00   0.00  -0.00
  24   1    -0.01  -0.02  -0.00    -0.00  -0.00   0.00     0.00  -0.00   0.00
  25   1     0.02   0.00  -0.02     0.01   0.00  -0.02     0.00  -0.00  -0.00
  26   1    -0.00   0.00   0.00     0.01   0.00  -0.01    -0.00  -0.00   0.00
  27   1     0.01  -0.02   0.00    -0.00   0.00   0.00    -0.00  -0.00  -0.00
                     73                     74                     75
                        a                      a                      a 
 Frequencies --  3264.7265              3288.9123              3559.2870
 Red. masses --     2.0402                 1.2911                 1.8608
 Frc consts  --     0.0000                 0.0000                 0.0000
 IR Inten    --   167.5259                56.3402               172.8408
 Raman Activ --     0.0000                 0.0000                 0.0000
 Depolar     --     0.0000                 0.0000                 0.0000
 Atom AN      X      Y      Z        X      Y      Z        X      Y      Z
   1   7     0.14   0.18   0.17     0.08  -0.12   0.01     0.00  -0.00  -0.00
   2   6     0.00   0.00   0.01     0.00  -0.01   0.00    -0.00   0.00  -0.00
   3   6    -0.00   0.00  -0.00    -0.00   0.00  -0.00    -0.00   0.00   0.00
   4   6     0.00   0.00   0.00    -0.00  -0.00  -0.00    -0.00   0.00   0.00
   5   6    -0.00  -0.00   0.00     0.00  -0.00   0.00    -0.00   0.00   0.00
   6   6     0.00   0.00   0.00     0.00   0.00   0.00    -0.00   0.00   0.00
   7   6     0.00  -0.00  -0.00    -0.00   0.00   0.00     0.00  -0.01  -0.01
   8   8    -0.00  -0.00  -0.00    -0.00  -0.00   0.00     0.19   0.04  -0.13
   9   8    -0.00   0.00   0.00     0.00  -0.00   0.00     0.00   0.00   0.00
  10   6    -0.00   0.00   0.00     0.00   0.00   0.00     0.00  -0.00  -0.00
  11   6     0.00  -0.00   0.00    -0.00   0.00  -0.00    -0.00   0.00   0.00
  12   1    -0.20  -0.04  -0.66    -0.15  -0.05  -0.48    -0.00  -0.00  -0.00
  13   1    -0.22  -0.60  -0.09     0.24   0.61   0.10     0.00   0.00   0.00
  14   1    -0.12  -0.01   0.12    -0.41  -0.09   0.32    -0.00  -0.00   0.00
  15   1    -0.01  -0.01  -0.00     0.01   0.01   0.00     0.00  -0.00   0.00
  16   1    -0.01  -0.00  -0.01    -0.00  -0.00  -0.01     0.00   0.00   0.00
  17   1     0.00   0.00  -0.00     0.00  -0.00   0.00     0.00  -0.00  -0.00
  18   1    -0.00  -0.00   0.00    -0.00   0.00   0.00     0.00   0.00  -0.00
  19   1    -0.00  -0.00  -0.00     0.00   0.00   0.00    -0.00  -0.00  -0.00
  20   1    -0.00   0.00  -0.00    -0.00   0.00   0.00     0.00  -0.00  -0.00
  21   1     0.00   0.00  -0.00     0.00  -0.00  -0.00    -0.00  -0.00   0.00
  22   1    -0.00  -0.00  -0.00    -0.00   0.00  -0.00     0.00  -0.00   0.00
  23   1     0.00   0.00   0.00     0.00  -0.00  -0.00    -0.79  -0.16   0.55
  24   1     0.00  -0.00  -0.00    -0.00  -0.00  -0.00     0.00   0.00  -0.00
  25   1     0.00  -0.00  -0.00     0.00   0.00  -0.00    -0.00  -0.00   0.00
  26   1    -0.00  -0.00   0.00    -0.00  -0.00   0.00     0.00  -0.00  -0.00
  27   1    -0.00   0.00  -0.00     0.00  -0.00   0.00    -0.00   0.00   0.00
