16
 energy: -21.135504211741 gnorm: 0.000472777050 xtb: 6.5.1 (fef0646)
N            1.03122814589772        0.18913413793981        0.36629022759586
C            2.48841661306798        0.41821109942354        0.42966653713496
C            2.95287489558575        1.16968691932167       -0.81590273664252
C            4.44572009109884        1.25409928609832       -0.87318990685058
C            5.12837220443416        2.38126272150642       -0.94644635832874
Cl           0.39391332831867       -1.41960613217167       -2.15478770064995
H            0.69744670946869       -0.33523810184290        1.17798099149801
H            0.79769865350737       -0.36979063551466       -0.49473797074717
H            0.52497242118717        1.07538631012733        0.29570753813143
H            2.98944442403053       -0.54851360326020        0.47222864921272
H            2.73298396758508        0.98984887546493        1.32556109672066
H            2.53018040081345        2.17405796016147       -0.83817296487068
H            2.59438585362431        0.62206103785572       -1.69211864201187
H            4.96309702548835        0.30411627556454       -0.85730097149651
H            4.63988600469964        3.34136869553053       -0.97047352941250
H            6.20346926119246        2.39535515379459       -0.99698425928228
