      -----------------------------------------------------------      
     |                   =====================                   |     
     |                           x T B                           |     
     |                   =====================                   |     
     |                         S. Grimme                         |     
     |          Mulliken Center for Theoretical Chemistry        |     
     |                    University of Bonn                     |     
      -----------------------------------------------------------      

   * xtb version 6.5.1 (fef0646) compiled by 'conda@b96dff2e9fd6' on 2023-01-04

   xtb is free software: you can redistribute it and/or modify it under
   the terms of the GNU Lesser General Public License as published by
   the Free Software Foundation, either version 3 of the License, or
   (at your option) any later version.
   
   xtb is distributed in the hope that it will be useful,
   but WITHOUT ANY WARRANTY; without even the implied warranty of
   MERCHANTABILITY or FITNESS FOR A PARTICULAR PURPOSE.  See the
   GNU Lesser General Public License for more details.
   
   Cite this work as:
   * C. Bannwarth, E. Caldeweyher, S. Ehlert, A. Hansen, P. Pracht,
     J. Seibert, S. Spicher, S. Grimme, WIREs Comput. Mol. Sci., 2020, 11,
     e01493. DOI: 10.1002/wcms.1493
   
   for GFN2-xTB:
   * C. Bannwarth, S. Ehlert and S. Grimme., J. Chem. Theory Comput., 2019,
     15, 1652-1671. DOI: 10.1021/acs.jctc.8b01176
   for GFN1-xTB:
   * S. Grimme, C. Bannwarth, P. Shushkov, J. Chem. Theory Comput., 2017,
     13, 1989-2009. DOI: 10.1021/acs.jctc.7b00118
   for GFN0-xTB:
   * P. Pracht, E. Caldeweyher, S. Ehlert, S. Grimme, ChemRxiv, 2019, preprint.
     DOI: 10.26434/chemrxiv.8326202.v1
   for GFN-FF:
   * S. Spicher and S. Grimme, Angew. Chem. Int. Ed., 2020, 59, 15665-15673.
     DOI: 10.1002/anie.202004239
   
   for ALPB and GBSA implicit solvation:
   * S. Ehlert, M. Stahn, S. Spicher, S. Grimme, J. Chem. Theory Comput.,
     2021, 17, 4250-4261. DOI: 10.1021/acs.jctc.1c00471
   
   for DFT-D4:
   * E. Caldeweyher, C. Bannwarth and S. Grimme, J. Chem. Phys., 2017,
     147, 034112. DOI: 10.1063/1.4993215
   * E. Caldeweyher, S. Ehlert, A. Hansen, H. Neugebauer, S. Spicher,
     C. Bannwarth and S. Grimme, J. Chem. Phys., 2019, 150, 154122.
     DOI: 10.1063/1.5090222
   * E. Caldeweyher, J.-M. Mewes, S. Ehlert and S. Grimme, Phys. Chem. Chem. Phys.
     2020, 22, 8499-8512. DOI: 10.1039/D0CP00502A
   
   for sTDA-xTB:
   * S. Grimme and C. Bannwarth, J. Chem. Phys., 2016, 145, 054103.
     DOI: 10.1063/1.4959605
   
   in the mass-spec context:
   * V. Asgeirsson, C. Bauer and S. Grimme, Chem. Sci., 2017, 8, 4879.
     DOI: 10.1039/c7sc00601b
   * J. Koopman and S. Grimme, ACS Omega 2019, 4, 12, 15120-15133.
     DOI: 10.1021/acsomega.9b02011
   
   for metadynamics refer to:
   * S. Grimme, J. Chem. Theory Comput., 2019, 155, 2847-2862
     DOI: 10.1021/acs.jctc.9b00143
   
   for SPH calculations refer to:
   * S. Spicher and S. Grimme, J. Chem. Theory Comput., 2021, 17, 1701-1714
     DOI: 10.1021/acs.jctc.0c01306
   
   with help from (in alphabetical order)
   P. Atkinson, C. Bannwarth, F. Bohle, G. Brandenburg, E. Caldeweyher
   M. Checinski, S. Dohm, S. Ehlert, S. Ehrlich, I. Gerasimov, C. Hölzer
   A. Katbashev, J. Koopman, C. Lavigne, S. Lehtola, F. März, M. Müller,
   F. Musil, H. Neugebauer, J. Pisarek, C. Plett, P. Pracht, F. Pultar,
   J. Seibert, P. Shushkov, S. Spicher, M. Stahn, M. Steiner, T. Strunk,
   J. Stückrath, T. Rose, and J. Unsleber
   
 * started run on 2023/01/24 at 15:20:49.327     

           -------------------------------------------------
          |                Calculation Setup                |
           -------------------------------------------------

          program call               : xtb init.xyz --opt -c 0 -u 0 -P 16 --alpb water
          hostname                   : gpg-woodward
          coordinate file            : init.xyz
          omp threads                :                    16

   ID    Z sym.   atoms
    1    7 N      1
    2    6 C      2-8
    3   17 Cl     9
    4    1 H      10-25

molecular fragmentation (1/2 indicates fragments):
1111111121111111111111111
# atoms in fragment 1/2:    24     1
 fragment masses (1/2) :      114.21       35.45
CMA distance (Bohr)    :   7.381
constraining FC (au)   :  0.0500

           -------------------------------------------------
          |                 G F N 2 - x T B                 |
           -------------------------------------------------

        Reference                      10.1021/acs.jctc.8b01176
      * Hamiltonian:
        H0-scaling (s, p, d)           1.850000    2.230000    2.230000
        zeta-weighting                 0.500000
      * Dispersion:
        s8                             2.700000
        a1                             0.520000
        a2                             5.000000
        s9                             5.000000
      * Repulsion:
        kExp                           1.500000    1.000000
        rExp                           1.000000
      * Coulomb:
        alpha                          2.000000
        third order                    shell-resolved
        anisotropic                    true
        a3                             3.000000
        a5                             4.000000
        cn-shift                       1.200000
        cn-exp                         4.000000
        max-rad                        5.000000

      * Solvation model:               ALPB
        Solvent                        water
        Parameter file                 internal GFN2-xTB/ALPB
        Dielectric constant                8.0200E+01
        Reference state                gsolv [1 M gas/solution]
        Free energy shift                  1.0808E-03 Eh       6.7819E-01 kcal/mol
        Temperature                        2.9815E+02 K
        Density                            1.0000E+00 kg/L
        Solvent mass                       1.8000E+01 g/mol
        Interaction kernel             P16
        Born radius scaling (c1)           1.4744E+00
        Born radii integrator          GBOBC
        Born offset                        0.0000E+00 a0       0.0000E+00 AA
        H-bond correction              true
        Ion screening                  false
        Surface tension                    1.0000E-05 Eh       1.5569E+01 dyn/cm
        Grid points                               230 per atom

          ...................................................
          :                      SETUP                      :
          :.................................................:
          :  # basis functions                  58          :
          :  # atomic orbitals                  57          :
          :  # shells                           35          :
          :  # electrons                        56          :
          :  max. iterations                   250          :
          :  Hamiltonian                  GFN2-xTB          :
          :  restarted?                      false          :
          :  GBSA solvation                   true          :
          :  PC potential                    false          :
          :  electronic temp.          300.0000000     K    :
          :  accuracy                    1.0000000          :
          :  -> integral cutoff          0.2500000E+02      :
          :  -> integral neglect         0.1000000E-07      :
          :  -> SCF convergence          0.1000000E-05 Eh   :
          :  -> wf. convergence          0.1000000E-03 e    :
          :  Broyden damping             0.4000000          :
          ...................................................

 iter      E             dE          RMSdq      gap      omega  full diag
   1    -30.9271473 -0.309271E+02  0.328E+00   11.26       0.0  T
   2    -31.0247638 -0.976165E-01  0.183E+00   10.18       1.0  T
   3    -31.0292998 -0.453607E-02  0.105E+00    9.85       1.0  T
   4    -31.0310311 -0.173124E-02  0.306E-01   10.03       1.0  T
   5    -31.0316198 -0.588685E-03  0.151E-01   10.15       1.0  T
   6    -31.0317904 -0.170623E-03  0.820E-02   10.20       1.0  T
   7    -31.0318342 -0.438388E-04  0.304E-02   10.21       1.0  T
   8    -31.0318367 -0.241876E-05  0.816E-03   10.20       2.5  T
   9    -31.0318370 -0.322958E-06  0.441E-03   10.20       4.5  T
  10    -31.0318370 -0.361226E-07  0.109E-03   10.20      18.3  T
  11    -31.0318370 -0.552799E-08  0.449E-04   10.20      44.6  T
  12    -31.0318370 -0.522082E-09  0.159E-04   10.20     125.9  T

   *** convergence criteria satisfied after 12 iterations ***

         #    Occupation            Energy/Eh            Energy/eV
      -------------------------------------------------------------
         1        2.0000           -1.0064991             -27.3882
       ...           ...                  ...                  ...
        22        2.0000           -0.4270187             -11.6198
        23        2.0000           -0.4146335             -11.2828
        24        2.0000           -0.4082506             -11.1091
        25        2.0000           -0.4068110             -11.0699
        26        2.0000           -0.4038173             -10.9884
        27        2.0000           -0.4029140             -10.9638
        28        2.0000           -0.4015446             -10.9266 (HOMO)
        29                         -0.0266640              -0.7256 (LUMO)
        30                          0.0491640               1.3378
        31                          0.0709095               1.9295
        32                          0.0794551               2.1621
        33                          0.0867256               2.3599
       ...                                ...                  ...
        57                          0.3104118               8.4467
      -------------------------------------------------------------
                  HL-Gap            0.3748806 Eh           10.2010 eV
             Fermi-level           -0.2141043 Eh           -5.8261 eV

 SCC (total)                   0 d,  0 h,  0 min,  0.031 sec
 SCC setup                      ...        0 min,  0.000 sec (  1.560%)
 Dispersion                     ...        0 min,  0.000 sec (  1.247%)
 classical contributions        ...        0 min,  0.000 sec (  0.256%)
 integral evaluation            ...        0 min,  0.002 sec (  6.684%)
 iterations                     ...        0 min,  0.024 sec ( 76.358%)
 molecular gradient             ...        0 min,  0.004 sec ( 12.484%)
 printout                       ...        0 min,  0.000 sec (  0.526%)

         :::::::::::::::::::::::::::::::::::::::::::::::::::::
         ::                     SUMMARY                     ::
         :::::::::::::::::::::::::::::::::::::::::::::::::::::
         :: total energy             -30.671979193677 Eh    ::
         :: total w/o Gsasa/hb       -30.665814597412 Eh    ::
         :: gradient norm              0.042448416964 Eh/a0 ::
         :: HOMO-LUMO gap             10.201020664595 eV    ::
         ::.................................................::
         :: SCC energy               -31.031837015895 Eh    ::
         :: -> isotropic ES            0.115572451024 Eh    ::
         :: -> anisotropic ES         -0.028028988228 Eh    ::
         :: -> anisotropic XC          0.006136177999 Eh    ::
         :: -> dispersion             -0.018406506231 Eh    ::
         :: -> Gsolv                  -0.065421790442 Eh    ::
         ::    -> Gelec               -0.059257194178 Eh    ::
         ::    -> Gsasa               -0.000939191895 Eh    ::
         ::    -> Ghb                 -0.006306164068 Eh    ::
         ::    -> Gshift               0.001080759698 Eh    ::
         :: repulsion energy           0.359641305672 Eh    ::
         :: add. restraining           0.000000000000 Eh    ::
         :: total charge              -0.000000000000 e     ::
         :::::::::::::::::::::::::::::::::::::::::::::::::::::

      ----------------------------------------------------------- 
     |                   =====================                   |
     |                        A N C O P T                        |
     |                   =====================                   |
     |               Approximate Normal Coordinate               |
     |                Rational Function Optimizer                |
      ----------------------------------------------------------- 

          ...................................................
          :                      SETUP                      :
          :.................................................:
          :   optimization level            normal          :
          :   max. optcycles                   200          :
          :   ANC micro-cycles                  20          :
          :   degrees of freedom                69          :
          :.................................................:
          :   RF solver                   davidson          :
          :   write xtbopt.log                true          :
          :   linear?                        false          :
          :   energy convergence         0.5000000E-05 Eh   :
          :   grad. convergence          0.1000000E-02 Eh/α :
          :   maximium RF displ.         1.0000000          :
          :   Hlow (freq-cutoff)         0.1000000E-01      :
          :   Hmax (freq-cutoff)         5.0000000          :
          :   S6 in model hess.         20.0000000          :
          ...................................................

generating ANC from model Hessian ...
Using Lindh-Hessian (1995)
 Shifting diagonal of input Hessian by    8.7774348297476532E-003
 Lowest  eigenvalues of input Hessian
    0.000000    0.000000    0.000000    0.000000    0.000000    0.000000
    0.010000    0.010071    0.011741    0.012636    0.015573    0.016518
    0.017539    0.017897    0.024032    0.027747    0.028027    0.029840
 Highest eigenvalues
    1.220080    1.248967    1.279637    1.283206    1.417546    1.611335


........................................................................
.............................. CYCLE    1 ..............................
........................................................................
   1    -31.0318370 -0.310318E+02  0.102E-04   10.20       0.0  T
   2    -31.0318370 -0.261089E-10  0.821E-05   10.20     243.7  T
   3    -31.0318370 -0.488889E-10  0.273E-05   10.20     731.9  T
     SCC iter.                  ...        0 min,  0.005 sec
     gradient                   ...        0 min,  0.003 sec
 * total energy  :   -30.6719792 Eh     change       -0.1892069E-09 Eh
   gradient norm :     0.0424493 Eh/α   predicted     0.0000000E+00 (-100.00%)
   displ. norm   :     0.4701950 α      lambda       -0.7877165E-02
   maximum displ.:     0.3088653 α      in ANC's #6, #5, #8, ...

........................................................................
.............................. CYCLE    2 ..............................
........................................................................
   1    -31.0412990 -0.310413E+02  0.190E-01   10.05       0.0  T
   2    -31.0413658 -0.668026E-04  0.105E-01   10.03       1.0  T
   3    -31.0413729 -0.706353E-05  0.319E-02   10.02       1.0  T
   4    -31.0413750 -0.209137E-05  0.135E-02   10.02       1.5  T
   5    -31.0413757 -0.691631E-06  0.916E-03   10.02       2.2  T
   6    -31.0413763 -0.631194E-06  0.378E-03   10.02       5.3  T
   7    -31.0413764 -0.101741E-06  0.167E-03   10.02      12.0  T
   8    -31.0413764 -0.139795E-07  0.340E-04   10.02      58.8  T
   9    -31.0413764 -0.347850E-09  0.174E-04   10.02     115.0  T
     SCC iter.                  ...        0 min,  0.015 sec
     gradient                   ...        0 min,  0.003 sec
 * total energy  :   -30.6762946 Eh     change       -0.4315421E-02 Eh
   gradient norm :     0.0286421 Eh/α   predicted    -0.4809482E-02 (  11.45%)
   displ. norm   :     0.2325512 α      lambda       -0.2411972E-02
   maximum displ.:     0.1488954 α      in ANC's #9, #7, #10, ...

........................................................................
.............................. CYCLE    3 ..............................
........................................................................
   1    -31.0468656 -0.310469E+02  0.114E-01   10.04       0.0  T
   2    -31.0468779 -0.123077E-04  0.639E-02   10.04       1.0  T
   3    -31.0468807 -0.280836E-05  0.127E-02   10.04       1.6  T
   4    -31.0468810 -0.347887E-06  0.741E-03   10.04       2.7  T
   5    -31.0468812 -0.198759E-06  0.401E-03   10.04       5.0  T
   6    -31.0468813 -0.952933E-07  0.235E-03   10.03       8.5  T
   7    -31.0468813 -0.375816E-07  0.914E-04   10.03      21.9  T
   8    -31.0468814 -0.596195E-08  0.223E-04   10.03      89.8  T
     SCC iter.                  ...        0 min,  0.013 sec
     gradient                   ...        0 min,  0.003 sec
 * total energy  :   -30.6777914 Eh     change       -0.1496832E-02 Eh
   gradient norm :     0.0099011 Eh/α   predicted    -0.1271208E-02 ( -15.07%)
   displ. norm   :     0.1865014 α      lambda       -0.6213103E-03
   maximum displ.:     0.1024069 α      in ANC's #9, #3, #1, ...

........................................................................
.............................. CYCLE    4 ..............................
........................................................................
   1    -31.0483972 -0.310484E+02  0.666E-02   10.06       0.0  T
   2    -31.0483987 -0.147292E-05  0.387E-02   10.06       1.0  T
   3    -31.0483993 -0.573266E-06  0.475E-03   10.06       4.2  T
   4    -31.0483994 -0.650069E-07  0.340E-03   10.06       5.9  T
   5    -31.0483994 -0.559003E-07  0.181E-03   10.06      11.1  T
   6    -31.0483994 -0.202828E-07  0.112E-03   10.06      17.9  T
   7    -31.0483994 -0.916189E-08  0.202E-04   10.06      98.9  T
   8    -31.0483994 -0.248434E-09  0.601E-05   10.06     332.5  T
     SCC iter.                  ...        0 min,  0.012 sec
     gradient                   ...        0 min,  0.002 sec
 * total energy  :   -30.6782088 Eh     change       -0.4173793E-03 Eh
   gradient norm :     0.0048428 Eh/α   predicted    -0.3214614E-03 ( -22.98%)
   displ. norm   :     0.2020223 α      lambda       -0.2987232E-03
   maximum displ.:     0.1232731 α      in ANC's #3, #9, #1, ...

........................................................................
.............................. CYCLE    5 ..............................
........................................................................
   1    -31.0485292 -0.310485E+02  0.403E-02   10.06       0.0  T
   2    -31.0485298 -0.595412E-06  0.237E-02   10.07       1.0  T
   3    -31.0485301 -0.311033E-06  0.412E-03   10.07       4.8  T
   4    -31.0485302 -0.567943E-07  0.292E-03   10.07       6.9  T
   5    -31.0485302 -0.455242E-07  0.164E-03   10.07      12.2  T
   6    -31.0485302 -0.191651E-07  0.750E-04   10.07      26.7  T
   7    -31.0485302 -0.317566E-08  0.122E-04   10.07     163.3  T
     SCC iter.                  ...        0 min,  0.011 sec
     gradient                   ...        0 min,  0.002 sec
 * total energy  :   -30.6784239 Eh     change       -0.2151042E-03 Eh
   gradient norm :     0.0052427 Eh/α   predicted    -0.1554583E-03 ( -27.73%)
   displ. norm   :     0.2217373 α      lambda       -0.2212562E-03
   maximum displ.:     0.1388592 α      in ANC's #3, #1, #4, ...

........................................................................
.............................. CYCLE    6 ..............................
........................................................................
   1    -31.0485233 -0.310485E+02  0.365E-02   10.05       0.0  T
   2    -31.0485243 -0.100713E-05  0.222E-02   10.05       1.0  T
   3    -31.0485249 -0.645850E-06  0.636E-03   10.05       3.1  T
   4    -31.0485251 -0.151864E-06  0.458E-03   10.05       4.4  T
   5    -31.0485252 -0.140575E-06  0.205E-03   10.05       9.7  T
   6    -31.0485252 -0.308309E-07  0.694E-04   10.05      28.8  T
   7    -31.0485252 -0.149154E-08  0.144E-04   10.05     138.4  T
     SCC iter.                  ...        0 min,  0.011 sec
     gradient                   ...        0 min,  0.002 sec
 * total energy  :   -30.6785953 Eh     change       -0.1713464E-03 Eh
   gradient norm :     0.0047614 Eh/α   predicted    -0.1160678E-03 ( -32.26%)
   displ. norm   :     0.2529145 α      lambda       -0.2053232E-03
   maximum displ.:     0.1446726 α      in ANC's #3, #1, #4, ...

........................................................................
.............................. CYCLE    7 ..............................
........................................................................
   1    -31.0485398 -0.310485E+02  0.410E-02   10.02       0.0  T
   2    -31.0485414 -0.153460E-05  0.255E-02   10.02       1.0  T
   3    -31.0485426 -0.122425E-05  0.864E-03   10.03       2.3  T
   4    -31.0485429 -0.295818E-06  0.634E-03   10.03       3.2  T
   5    -31.0485432 -0.301704E-06  0.215E-03   10.03       9.3  T
   6    -31.0485432 -0.315777E-07  0.695E-04   10.03      28.8  T
   7    -31.0485432 -0.990738E-09  0.198E-04   10.03     101.2  T
     SCC iter.                  ...        0 min,  0.011 sec
     gradient                   ...        0 min,  0.002 sec
 * total energy  :   -30.6787459 Eh     change       -0.1506178E-03 Eh
   gradient norm :     0.0036588 Eh/α   predicted    -0.1092296E-03 ( -27.48%)
   displ. norm   :     0.2308950 α      lambda       -0.1419725E-03
   maximum displ.:     0.1227245 α      in ANC's #4, #1, #3, ...

........................................................................
.............................. CYCLE    8 ..............................
........................................................................
   1    -31.0486014 -0.310486E+02  0.405E-02   10.00       0.0  T
   2    -31.0486026 -0.121223E-05  0.251E-02   10.00       1.0  T
   3    -31.0486037 -0.113964E-05  0.813E-03   10.00       2.5  T
   4    -31.0486040 -0.267451E-06  0.594E-03   10.00       3.4  T
   5    -31.0486043 -0.280058E-06  0.160E-03   10.01      12.5  T
   6    -31.0486043 -0.148805E-07  0.583E-04   10.01      34.3  T
   7    -31.0486043 -0.890626E-09  0.193E-04   10.01     103.8  T
     SCC iter.                  ...        0 min,  0.009 sec
     gradient                   ...        0 min,  0.002 sec
 * total energy  :   -30.6788440 Eh     change       -0.9815472E-04 Eh
   gradient norm :     0.0039725 Eh/α   predicted    -0.7477091E-04 ( -23.82%)
   displ. norm   :     0.1995958 α      lambda       -0.1312459E-03
   maximum displ.:     0.1287881 α      in ANC's #4, #2, #1, ...

........................................................................
.............................. CYCLE    9 ..............................
........................................................................
   1    -31.0487087 -0.310487E+02  0.388E-02    9.99       0.0  T
   2    -31.0487095 -0.787343E-06  0.237E-02   10.00       1.0  T
   3    -31.0487102 -0.747080E-06  0.647E-03   10.00       3.1  T
   4    -31.0487104 -0.178343E-06  0.452E-03   10.00       4.4  T
   5    -31.0487106 -0.161055E-06  0.135E-03   10.00      14.8  T
   6    -31.0487106 -0.113220E-07  0.501E-04   10.00      39.9  T
   7    -31.0487106 -0.675758E-09  0.166E-04   10.00     120.3  T
     SCC iter.                  ...        0 min,  0.009 sec
     gradient                   ...        0 min,  0.002 sec
 * total energy  :   -30.6789655 Eh     change       -0.1214578E-03 Eh
   gradient norm :     0.0052466 Eh/α   predicted    -0.6824364E-04 ( -43.81%)
   displ. norm   :     0.5961745 α      lambda       -0.4845377E-03
   maximum displ.:     0.3955881 α      in ANC's #4, #2, #6, ...

........................................................................
.............................. CYCLE   10 ..............................
........................................................................
   1    -31.0468599 -0.310469E+02  0.122E-01    9.90       0.0  T
   2    -31.0468676 -0.771090E-05  0.746E-02    9.91       1.0  T
   3    -31.0468746 -0.705841E-05  0.198E-02    9.91       1.0  T
   4    -31.0468763 -0.160607E-05  0.141E-02    9.91       1.4  T
   5    -31.0468778 -0.154347E-05  0.457E-03    9.92       4.4  T
   6    -31.0468779 -0.139698E-06  0.157E-03    9.92      12.7  T
   7    -31.0468779 -0.593103E-08  0.463E-04    9.92      43.2  T
   8    -31.0468779 -0.793634E-09  0.174E-04    9.92     115.0  T
     SCC iter.                  ...        0 min,  0.010 sec
     gradient                   ...        0 min,  0.002 sec
 * total energy  :   -30.6792473 Eh     change       -0.2817660E-03 Eh
   gradient norm :     0.0148311 Eh/α   predicted    -0.3283786E-03 (  16.54%)
   displ. norm   :     0.1845307 α      lambda       -0.3632154E-03
   maximum displ.:     0.1207136 α      in ANC's #3, #1, #9, ...

........................................................................
.............................. CYCLE   11 ..............................
........................................................................
   1    -31.0481698 -0.310482E+02  0.350E-02   10.00       0.0  T
   2    -31.0481711 -0.129264E-05  0.212E-02   10.00       1.0  T
   3    -31.0481717 -0.534276E-06  0.642E-03   10.00       3.1  T
   4    -31.0481718 -0.160524E-06  0.440E-03   10.00       4.5  T
   5    -31.0481719 -0.119709E-06  0.237E-03   10.00       8.5  T
   6    -31.0481720 -0.444340E-07  0.724E-04   10.00      27.6  T
   7    -31.0481720 -0.166724E-08  0.277E-04   10.00      72.3  T
     SCC iter.                  ...        0 min,  0.009 sec
     gradient                   ...        0 min,  0.002 sec
 * total energy  :   -30.6795247 Eh     change       -0.2774326E-03 Eh
   gradient norm :     0.0136252 Eh/α   predicted    -0.1877917E-03 ( -32.31%)
   displ. norm   :     0.3961171 α      lambda       -0.7273625E-03
   maximum displ.:     0.2341784 α      in ANC's #4, #3, #8, ...

........................................................................
.............................. CYCLE   12 ..............................
........................................................................
   1    -31.0481943 -0.310482E+02  0.817E-02   10.03       0.0  T
   2    -31.0482013 -0.694311E-05  0.507E-02   10.04       1.0  T
   3    -31.0482050 -0.370798E-05  0.160E-02   10.05       1.2  T
   4    -31.0482061 -0.109713E-05  0.108E-02   10.04       1.8  T
   5    -31.0482068 -0.684962E-06  0.607E-03   10.04       3.3  T
   6    -31.0482071 -0.310126E-06  0.139E-03   10.04      14.4  T
   7    -31.0482071 -0.458823E-08  0.613E-04   10.04      32.6  T
   8    -31.0482071 -0.113642E-08  0.148E-04   10.04     135.0  T
     SCC iter.                  ...        0 min,  0.010 sec
     gradient                   ...        0 min,  0.002 sec
 * total energy  :   -30.6801658 Eh     change       -0.6410966E-03 Eh
   gradient norm :     0.0116538 Eh/α   predicted    -0.4207554E-03 ( -34.37%)
   displ. norm   :     0.5698355 α      lambda       -0.1406303E-02
   maximum displ.:     0.3480129 α      in ANC's #4, #1, #8, ...

........................................................................
.............................. CYCLE   13 ..............................
........................................................................
   1    -31.0489788 -0.310490E+02  0.129E-01   10.03       0.0  T
   2    -31.0489973 -0.185449E-04  0.807E-02   10.04       1.0  T
   3    -31.0490094 -0.120459E-04  0.289E-02   10.05       1.0  T
   4    -31.0490131 -0.373707E-05  0.196E-02   10.05       1.0  T
   5    -31.0490154 -0.227166E-05  0.106E-02   10.05       1.9  T
   6    -31.0490163 -0.940047E-06  0.216E-03   10.05       9.3  T
   7    -31.0490163 -0.871611E-08  0.755E-04   10.05      26.5  T
   8    -31.0490163 -0.111493E-08  0.200E-04   10.05      99.9  T
     SCC iter.                  ...        0 min,  0.010 sec
     gradient                   ...        0 min,  0.002 sec
 * total energy  :   -30.6811366 Eh     change       -0.9707867E-03 Eh
   gradient norm :     0.0067013 Eh/α   predicted    -0.9314837E-03 (  -4.05%)
   displ. norm   :     0.3091308 α      lambda       -0.4796492E-03
   maximum displ.:     0.1772855 α      in ANC's #4, #1, #8, ...

........................................................................
.............................. CYCLE   14 ..............................
........................................................................
   1    -31.0486272 -0.310486E+02  0.663E-02   10.00       0.0  T
   2    -31.0486313 -0.409257E-05  0.426E-02   10.00       1.0  T
   3    -31.0486355 -0.417104E-05  0.155E-02   10.01       1.3  T
   4    -31.0486366 -0.112975E-05  0.103E-02   10.00       1.9  T
   5    -31.0486374 -0.764367E-06  0.400E-03   10.00       5.0  T
   6    -31.0486375 -0.124658E-06  0.110E-03   10.00      18.2  T
   7    -31.0486375 -0.201410E-08  0.256E-04   10.00      78.2  T
   8    -31.0486375 -0.186212E-09  0.977E-05   10.00     204.7  T
     SCC iter.                  ...        0 min,  0.010 sec
     gradient                   ...        0 min,  0.002 sec
 * total energy  :   -30.6814365 Eh     change       -0.2998820E-03 Eh
   gradient norm :     0.0059203 Eh/α   predicted    -0.2627438E-03 ( -12.38%)
   displ. norm   :     0.3142117 α      lambda       -0.4373969E-03
   maximum displ.:     0.2163818 α      in ANC's #9, #1, #7, ...

........................................................................
.............................. CYCLE   15 ..............................
........................................................................
   1    -31.0553627 -0.310554E+02  0.964E-02   10.21       0.0  T
   2    -31.0553665 -0.380846E-05  0.565E-02   10.21       1.0  T
   3    -31.0553681 -0.164712E-05  0.884E-03   10.21       2.3  T
   4    -31.0553684 -0.238445E-06  0.574E-03   10.20       3.5  T
   5    -31.0553685 -0.146215E-06  0.351E-03   10.20       5.7  T
   6    -31.0553686 -0.885883E-07  0.179E-03   10.20      11.2  T
   7    -31.0553686 -0.195392E-07  0.520E-04   10.20      38.4  T
   8    -31.0553686 -0.145364E-08  0.129E-04   10.20     155.6  T
     SCC iter.                  ...        0 min,  0.010 sec
     gradient                   ...        0 min,  0.002 sec
 * total energy  :   -30.6808669 Eh     change        0.5695937E-03 Eh
   gradient norm :     0.0256095 Eh/α   predicted    -0.2403067E-03 (-142.19%)
   displ. norm   :     0.2140666 α      lambda       -0.1359906E-02
   maximum displ.:     0.1068124 α      in ANC's #9, #4, #5, ...

........................................................................
.............................. CYCLE   16 ..............................
........................................................................
   1    -31.0498920 -0.310499E+02  0.813E-02   10.04       0.0  T
   2    -31.0498952 -0.323222E-05  0.480E-02   10.04       1.0  T
   3    -31.0498970 -0.175484E-05  0.103E-02   10.04       1.9  T
   4    -31.0498974 -0.379418E-06  0.741E-03   10.04       2.7  T
   5    -31.0498977 -0.310426E-06  0.406E-03   10.04       4.9  T
   6    -31.0498978 -0.127584E-06  0.165E-03   10.04      12.1  T
   7    -31.0498978 -0.122798E-07  0.583E-04   10.04      34.3  T
   8    -31.0498978 -0.137889E-08  0.121E-04   10.04     165.3  T
     SCC iter.                  ...        0 min,  0.010 sec
     gradient                   ...        0 min,  0.002 sec
 * total energy  :   -30.6815885 Eh     change       -0.7215909E-03 Eh
   gradient norm :     0.0035057 Eh/α   predicted    -0.7111140E-03 (  -1.45%)
   displ. norm   :     0.0301463 α      lambda       -0.2229239E-04
   maximum displ.:     0.0152571 α      in ANC's #3, #4, #7, ...

........................................................................
.............................. CYCLE   17 ..............................
........................................................................
   1    -31.0497742 -0.310498E+02  0.108E-02   10.04       0.0  T
   2    -31.0497743 -0.807121E-07  0.643E-03   10.04       3.1  T
   3    -31.0497743 -0.469063E-07  0.184E-03   10.04      10.9  T
   4    -31.0497743 -0.142073E-07  0.139E-03   10.04      14.4  T
   5    -31.0497744 -0.140252E-07  0.555E-04   10.04      36.0  T
   6    -31.0497744 -0.238163E-08  0.193E-04   10.04     103.8  T
     SCC iter.                  ...        0 min,  0.007 sec
     gradient                   ...        0 min,  0.002 sec
 * total energy  :   -30.6816040 Eh     change       -0.1553467E-04 Eh
   gradient norm :     0.0016933 Eh/α   predicted    -0.1116079E-04 ( -28.16%)
   displ. norm   :     0.0484687 α      lambda       -0.1456722E-04
   maximum displ.:     0.0270160 α      in ANC's #1, #3, #7, ...

........................................................................
.............................. CYCLE   18 ..............................
........................................................................
   1    -31.0499650 -0.310500E+02  0.133E-02   10.06       0.0  T
   2    -31.0499651 -0.128000E-06  0.761E-03   10.06       2.6  T
   3    -31.0499652 -0.140469E-07  0.138E-03   10.06      14.5  T
   4    -31.0499652 -0.112179E-07  0.615E-04   10.06      32.5  T
   5    -31.0499652 -0.106726E-08  0.373E-04   10.06      53.6  T
     SCC iter.                  ...        0 min,  0.006 sec
     gradient                   ...        0 min,  0.002 sec
 * total energy  :   -30.6816132 Eh     change       -0.9242148E-05 Eh
   gradient norm :     0.0013582 Eh/α   predicted    -0.7291779E-05 ( -21.10%)
   displ. norm   :     0.0288835 α      lambda       -0.4900585E-05
   maximum displ.:     0.0217316 α      in ANC's #1, #4, #6, ...

........................................................................
.............................. CYCLE   19 ..............................
........................................................................
   1    -31.0500282 -0.310500E+02  0.675E-03   10.06       0.0  T
   2    -31.0500282 -0.321596E-07  0.428E-03   10.06       4.7  T
   3    -31.0500282 -0.348350E-07  0.141E-03   10.06      14.2  T
   4    -31.0500283 -0.912131E-08  0.948E-04   10.06      21.1  T
   5    -31.0500283 -0.691952E-08  0.288E-04   10.06      69.4  T
     SCC iter.                  ...        0 min,  0.006 sec
     gradient                   ...        0 min,  0.002 sec
 * total energy  :   -30.6816182 Eh     change       -0.4924288E-05 Eh
   gradient norm :     0.0009582 Eh/α   predicted    -0.2454140E-05 ( -50.16%)
   displ. norm   :     0.0321470 α      lambda       -0.5570774E-05
   maximum displ.:     0.0212695 α      in ANC's #1, #8, #11, ...

   *** GEOMETRY OPTIMIZATION CONVERGED AFTER 19 ITERATIONS ***

------------------------------------------------------------------------
 total energy gain   :        -0.0096390 Eh       -6.0485 kcal/mol
 total RMSD          :         0.5179918 a0        0.2741 Å
 total power (kW/mol):        -1.3319540 (step)  -89.1991 (real)
------------------------------------------------------------------------

 ANCopt (total)                0 d,  0 h,  0 min,  0.284 sec
 optimizer setup                ...        0 min,  0.000 sec (  0.037%)
 model hessian                  ...        0 min,  0.027 sec (  9.471%)
 ANC generation                 ...        0 min,  0.002 sec (  0.866%)
 coordinate transformation      ...        0 min,  0.000 sec (  0.137%)
 single point calculation       ...        0 min,  0.247 sec ( 87.216%)
 optimization log               ...        0 min,  0.002 sec (  0.711%)
 hessian update                 ...        0 min,  0.000 sec (  0.157%)
 rational function              ...        0 min,  0.002 sec (  0.782%)

================
 final structure:
================
25
 xtb: 6.5.1 (fef0646)
N            1.25316931697129       -0.21619231807178       -0.23740341466903
C            2.69279751982902       -0.09629957222220        0.07552687194748
C            3.09696280815519        1.32282816903189        0.48119283056592
C            2.63099936748684        1.66111823287357        1.89872088802281
C            3.12417607914462        3.04881120855857        2.30064588292166
C            2.61996138977282        4.09844132050317        1.31504534914103
C            3.07952399250968        3.75962323420697       -0.09987177397057
C            2.57014259552004        2.37580587337979       -0.49603923680343
Cl          -1.01919583006426        1.07247125418674        1.36789749776743
H            0.97143414389934       -1.19658875420317       -0.30167879968167
H            1.03545236885262        0.25108092644407       -1.11960541207220
H            0.63076337027907        0.23095479137392        0.47721962535524
H            3.25999306693923       -0.39695697608635       -0.80670539494023
H            2.93056994234978       -0.77289346806357        0.89636463403939
H            4.19140024026136        1.36081312906612        0.47149521299847
H            3.01379282353134        0.92284381385840        2.60613315910276
H            1.54090202657274        1.64387595022289        1.95031893645020
H            4.21696673355076        3.06097513387755        2.31336778290883
H            2.77516631538556        3.28871750965484        3.30741839146711
H            2.98104790174422        5.08818676054448        1.60320454726203
H            1.52731625175888        4.11985486680843        1.34593124456158
H            4.17100583469733        3.77998249581221       -0.13871287482597
H            2.70434046716540        4.50974018742097       -0.79893198429226
H            2.89320061097693        2.14787558115456       -1.51328118768277
H            1.47955066271019        2.39920064966807       -0.45818277557368

 Bond Distances (Angstroems)
 ---------------------------
N1-C2=1.4781         N1-H10=1.0221        N1-H11=1.0218        N1-H12=1.0479        C2-N1=1.4781         C2-C3=1.5303         
C2-H13=1.0911        C2-H14=1.0900        C3-C2=1.5303         C3-C4=1.5300         C3-C8=1.5301         C3-H15=1.0951        
C4-C3=1.5300         C4-C5=1.5266         C4-H16=1.0918        C4-H17=1.0915        C5-C4=1.5266         C5-C6=1.5256         
C5-H18=1.0929        C5-H19=1.0922        C6-C5=1.5256         C6-C7=1.5258         C6-H20=1.0923        C6-H21=1.0933        
C7-C6=1.5258         C7-C8=1.5269         C7-H22=1.0924        C7-H23=1.0918        C8-C3=1.5301         C8-C7=1.5269         
C8-H24=1.0914        C8-H25=1.0915        H10-N1=1.0221        H11-N1=1.0218        H12-N1=1.0479        H13-C2=1.0911        
H14-C2=1.0900        H15-C3=1.0951        H16-C4=1.0918        H17-C4=1.0915        H18-C5=1.0929        H19-C5=1.0922        
H20-C6=1.0923        H21-C6=1.0933        H22-C7=1.0924        H23-C7=1.0918        H24-C8=1.0914        H25-C8=1.0915        
 C  H  Rav=1.0921 sigma=0.0012  Rmin=1.0900  Rmax=1.0951    13
 C  C  Rav=1.5279 sigma=0.0020  Rmin=1.5256  Rmax=1.5303     7
 N  H  Rav=1.0306 sigma=0.0122  Rmin=1.0218  Rmax=1.0479     3
 N  C  Rav=1.4781 sigma=0.0000  Rmin=1.4781  Rmax=1.4781     1

 selected bond angles (degree)
 --------------------
H10-N1-C2=111.07               H11-N1-C2=110.68               H11-N1-H10=109.00              H12-N1-C2=113.55               
H12-N1-H10=106.77              H12-N1-H11=105.49              C3-C2-N1=112.87                H13-C2-N1=108.23               
H13-C2-C3=109.43               H14-C2-N1=108.76               H14-C2-C3=108.57               H14-C2-H13=108.93              
C4-C3-C2=111.73                C8-C3-C2=112.21                C8-C3-C4=109.55                H15-C3-C2=107.08               
H15-C3-C4=107.75               H15-C3-C8=108.33               C5-C4-C3=110.27                H16-C4-C3=110.12               
H16-C4-C5=109.32               H17-C4-C3=110.15               H17-C4-C5=108.94               H17-C4-H16=107.99              
C6-C5-C4=110.40                H18-C5-C4=109.65               H18-C5-C6=109.29               H19-C5-C4=109.82               
H19-C5-C6=109.80               H19-C5-H18=107.84              C7-C6-C5=110.29                H20-C6-C5=110.11               
H20-C6-C7=110.26               H21-C6-C5=109.00               H21-C6-C7=109.36               H21-C6-H20=107.77              
C8-C7-C6=109.96                H22-C7-C6=109.26               H22-C7-C8=109.94               H23-C7-C6=109.74               
H23-C7-C8=109.99               H23-C7-H22=107.93              C7-C8-C3=110.07                H24-C8-C3=110.47               
H24-C8-C7=109.41               H25-C8-C3=109.67               H25-C8-C7=107.75               H25-C8-H24=109.42              

 selected dihedral angles (degree)
 ---------------------------------
C3-C2-N1-H10=192.55           C3-C2-N1-H11= 71.31           C3-C2-N1-H12=312.89           H13-C2-N1-H10= 71.29          
H13-C2-N1-H11=310.05          H13-C2-N1-H12=191.63          H14-C2-N1-H10=313.08          H14-C2-N1-H11=191.85          
H14-C2-N1-H12= 73.43          C4-C3-C2-N1= 74.66            C4-C3-C2-H13=195.24           C4-C3-C2-H14=314.02           
C8-C3-C2-N1=311.17            C8-C3-C2-H13= 71.75           C8-C3-C2-H14=190.52           H15-C3-C2-N1=192.43           
H15-C3-C2-H13=313.00          H15-C3-C2-H14= 71.78          C5-C4-C3-C2=176.54            C5-C4-C3-C8=301.52            
C5-C4-C3-H15= 59.18           H16-C4-C3-C2= 55.82           H16-C4-C3-C8=180.80           H16-C4-C3-H15=298.45          
H17-C4-C3-C2=296.82           H17-C4-C3-C8= 61.80           H17-C4-C3-H15=179.45          C6-C5-C4-C3= 57.95            
C6-C5-C4-H16=179.16           C6-C5-C4-H17=296.95           H18-C5-C4-C3=297.49           H18-C5-C4-H16= 58.69          
H18-C5-C4-H17=176.49          H19-C5-C4-C3=179.17           H19-C5-C4-H16=300.37          H19-C5-C4-H17= 58.17          
C7-C6-C5-C4=302.29            C7-C6-C5-H18= 62.96           C7-C6-C5-H19=181.06           H20-C6-C5-C4=180.38           
H20-C6-C5-H18=301.06          H20-C6-C5-H19= 59.15          H21-C6-C5-C4= 62.36           H21-C6-C5-H18=183.04          
H21-C6-C5-H19=301.13          C8-C7-C6-C5= 58.24            C8-C7-C6-H20=180.05           C8-C7-C6-H21=298.38           
H22-C7-C6-C5=297.50           H22-C7-C6-H20= 59.31          H22-C7-C6-H21=177.64          H23-C7-C6-C5=179.35           
H23-C7-C6-H20=301.17          H23-C7-C6-H21= 59.50          C7-C8-C3-C2=183.84            C7-C8-C3-C4= 59.14            
C7-C8-C3-H15=301.85           H24-C8-C3-C2=304.77           H24-C8-C3-C4=180.07           H24-C8-C3-H15= 62.78          
H25-C8-C3-C2= 65.46           H25-C8-C3-C4=300.76           H25-C8-C3-H15=183.47          C3-C8-C7-C6=300.86            
C3-C8-C7-H22= 61.19           C3-C8-C7-H23=179.90           H24-C8-C7-C6=179.30           H24-C8-C7-H22=299.63          
H24-C8-C7-H23= 58.34          H25-C8-C7-C6= 60.41           H25-C8-C7-H22=180.75          H25-C8-C7-H23=299.45          

 CMA Distance (Angstroems)
 ---------------------------
R(CMA):  3.7878
           -------------------------------------------------
          |                Final Singlepoint                |
           -------------------------------------------------

          ...................................................
          :                      SETUP                      :
          :.................................................:
          :  # basis functions                  58          :
          :  # atomic orbitals                  57          :
          :  # shells                           35          :
          :  # electrons                        56          :
          :  max. iterations                   250          :
          :  Hamiltonian                  GFN2-xTB          :
          :  restarted?                      false          :
          :  GBSA solvation                   true          :
          :  PC potential                    false          :
          :  electronic temp.          300.0000000     K    :
          :  accuracy                    1.0000000          :
          :  -> integral cutoff          0.2500000E+02      :
          :  -> integral neglect         0.1000000E-07      :
          :  -> SCF convergence          0.1000000E-05 Eh   :
          :  -> wf. convergence          0.1000000E-03 e    :
          :  Broyden damping             0.4000000          :
          ...................................................

 iter      E             dE          RMSdq      gap      omega  full diag
   1    -31.0500283 -0.310500E+02  0.922E-05   10.06       0.0  T
   2    -31.0500283 -0.996181E-11  0.568E-05   10.06     352.2  T
   3    -31.0500283 -0.411049E-11  0.208E-05   10.06     959.4  T

   *** convergence criteria satisfied after 3 iterations ***

         #    Occupation            Energy/Eh            Energy/eV
      -------------------------------------------------------------
         1        2.0000           -1.0059116             -27.3722
       ...           ...                  ...                  ...
        22        2.0000           -0.4267262             -11.6118
        23        2.0000           -0.4157103             -11.3121
        24        2.0000           -0.4092106             -11.1352
        25        2.0000           -0.4046090             -11.0100
        26        2.0000           -0.4021766             -10.9438
        27        2.0000           -0.4003641             -10.8945
        28        2.0000           -0.3975316             -10.8174 (HOMO)
        29                         -0.0277663              -0.7556 (LUMO)
        30                          0.0625696               1.7026
        31                          0.0768057               2.0900
        32                          0.0866857               2.3588
        33                          0.1015165               2.7624
       ...                                ...                  ...
        57                          0.3242612               8.8236
      -------------------------------------------------------------
                  HL-Gap            0.3697653 Eh           10.0618 eV
             Fermi-level           -0.2126490 Eh           -5.7865 eV

 SCC (total)                   0 d,  0 h,  0 min,  0.007 sec
 SCC setup                      ...        0 min,  0.000 sec (  2.832%)
 Dispersion                     ...        0 min,  0.000 sec (  1.871%)
 classical contributions        ...        0 min,  0.000 sec (  0.402%)
 integral evaluation            ...        0 min,  0.001 sec ( 10.035%)
 iterations                     ...        0 min,  0.004 sec ( 55.379%)
 molecular gradient             ...        0 min,  0.002 sec ( 26.388%)
 printout                       ...        0 min,  0.000 sec (  1.597%)

         :::::::::::::::::::::::::::::::::::::::::::::::::::::
         ::                     SUMMARY                     ::
         :::::::::::::::::::::::::::::::::::::::::::::::::::::
         :: total energy             -30.681618169728 Eh    ::
         :: total w/o Gsasa/hb       -30.675116364915 Eh    ::
         :: gradient norm              0.000958674794 Eh/a0 ::
         :: HOMO-LUMO gap             10.061826886289 eV    ::
         ::.................................................::
         :: SCC energy               -31.050028261981 Eh    ::
         :: -> isotropic ES            0.122384957680 Eh    ::
         :: -> anisotropic ES         -0.029270524183 Eh    ::
         :: -> anisotropic XC          0.005792399456 Eh    ::
         :: -> dispersion             -0.018780970521 Eh    ::
         :: -> Gsolv                  -0.071995310015 Eh    ::
         ::    -> Gelec               -0.065493505202 Eh    ::
         ::    -> Gsasa               -0.000948875925 Eh    ::
         ::    -> Ghb                 -0.006633688586 Eh    ::
         ::    -> Gshift               0.001080759698 Eh    ::
         :: repulsion energy           0.368198072516 Eh    ::
         :: add. restraining           0.000000000000 Eh    ::
         :: total charge               0.000000000000 e     ::
         :::::::::::::::::::::::::::::::::::::::::::::::::::::

           -------------------------------------------------
          |                Property Printout                |
           -------------------------------------------------

    * Orbital Energies and Occupations

         #    Occupation            Energy/Eh            Energy/eV
      -------------------------------------------------------------
         1        2.0000           -1.0059116             -27.3722
       ...           ...                  ...                  ...
        16        2.0000           -0.4855111             -13.2114
        17        2.0000           -0.4785765             -13.0227
        18        2.0000           -0.4579326             -12.4610
        19        2.0000           -0.4565798             -12.4242
        20        2.0000           -0.4483039             -12.1990
        21        2.0000           -0.4303009             -11.7091
        22        2.0000           -0.4267262             -11.6118
        23        2.0000           -0.4157103             -11.3121
        24        2.0000           -0.4092106             -11.1352
        25        2.0000           -0.4046090             -11.0100
        26        2.0000           -0.4021766             -10.9438
        27        2.0000           -0.4003641             -10.8945
        28        2.0000           -0.3975316             -10.8174 (HOMO)
        29                         -0.0277663              -0.7556 (LUMO)
        30                          0.0625696               1.7026
        31                          0.0768057               2.0900
        32                          0.0866857               2.3588
        33                          0.1015165               2.7624
        34                          0.1056726               2.8755
        35                          0.1149323               3.1275
        36                          0.1172510               3.1906
        37                          0.1184470               3.2231
        38                          0.1194855               3.2514
        39                          0.1199398               3.2637
       ...                                ...                  ...
        57                          0.3242612               8.8236
      -------------------------------------------------------------
                  HL-Gap            0.3697653 Eh           10.0618 eV
             Fermi-level           -0.2126490 Eh           -5.7865 eV

     #   Z          covCN         q      C6AA      α(0)
     1   7 N        3.483    -0.161    24.467     7.347
     2   6 C        3.734    -0.035    21.295     6.586
     3   6 C        3.856    -0.028    21.036     6.523
     4   6 C        3.808    -0.072    21.866     6.656
     5   6 C        3.806    -0.056    21.583     6.614
     6   6 C        3.806    -0.056    21.578     6.613
     7   6 C        3.806    -0.059    21.639     6.622
     8   6 C        3.808    -0.076    21.945     6.668
     9  17 Cl       0.026    -0.953   125.093    17.022
    10   1 H        0.859     0.304     0.701     1.312
    11   1 H        0.860     0.290     0.743     1.350
    12   1 H        0.883     0.292     0.736     1.343
    13   1 H        0.924     0.107     1.721     2.052
    14   1 H        0.925     0.102     1.769     2.080
    15   1 H        0.924     0.063     2.166     2.302
    16   1 H        0.924     0.034     2.523     2.484
    17   1 H        0.924     0.049     2.327     2.386
    18   1 H        0.924     0.033     2.538     2.491
    19   1 H        0.924     0.017     2.780     2.607
    20   1 H        0.924     0.019     2.748     2.592
    21   1 H        0.924     0.023     2.685     2.563
    22   1 H        0.924     0.037     2.491     2.468
    23   1 H        0.924     0.027     2.630     2.536
    24   1 H        0.924     0.049     2.338     2.391
    25   1 H        0.924     0.050     2.324     2.384

 Mol. C6AA /au·bohr⁶  :       5060.022676
 Mol. C8AA /au·bohr⁸  :     121399.349945
 Mol. α(0) /au        :        105.992224


Wiberg/Mayer (AO) data.
largest (>0.10) Wiberg bond orders for each atom

 ---------------------------------------------------------------------------
     #   Z sym  total        # sym  WBO       # sym  WBO       # sym  WBO
 ---------------------------------------------------------------------------
     1   7 N    3.649 --     2 C    0.966    11 H    0.898    10 H    0.893
                            12 H    0.841
     2   6 C    3.928 --     3 C    0.997    14 H    0.967    13 H    0.967
                             1 N    0.966
     3   6 C    3.993 --     4 C    0.998     2 C    0.997     8 C    0.997
                            15 H    0.960
     4   6 C    3.996 --     5 C    1.008     3 C    0.998    16 H    0.976
                            17 H    0.970
     5   6 C    3.998 --     6 C    1.009     4 C    1.008    19 H    0.978
                            18 H    0.977
     6   6 C    3.998 --     7 C    1.009     5 C    1.009    20 H    0.978
                            21 H    0.978
     7   6 C    3.998 --     6 C    1.009     8 C    1.008    23 H    0.978
                            22 H    0.977
     8   6 C    3.996 --     7 C    1.008     3 C    0.997    24 H    0.975
                            25 H    0.973
     9  17 Cl   0.092
    10   1 H    0.907 --     1 N    0.893
    11   1 H    0.916 --     1 N    0.898
    12   1 H    0.915 --     1 N    0.841
    13   1 H    0.988 --     2 C    0.967
    14   1 H    0.989 --     2 C    0.967
    15   1 H    0.996 --     3 C    0.960
    16   1 H    0.999 --     4 C    0.976
    17   1 H    0.998 --     4 C    0.970
    18   1 H    0.999 --     5 C    0.977
    19   1 H    0.999 --     5 C    0.978
    20   1 H    0.999 --     6 C    0.978
    21   1 H    0.999 --     6 C    0.978
    22   1 H    0.999 --     7 C    0.977
    23   1 H    0.999 --     7 C    0.978
    24   1 H    0.998 --     8 C    0.975
    25   1 H    0.998 --     8 C    0.973
 ---------------------------------------------------------------------------

Topologies differ in total number of bonds
Writing topology from bond orders to xtbtopo.mol

molecular dipole:
                 x           y           z       tot (Debye)
 q only:        4.327      -2.375      -2.952
   full:        3.554      -2.061      -2.585      12.338
molecular quadrupole (traceless):
                xx          xy          yy          xz          yz          zz
 q only:       10.213       4.070      -3.658       5.204      -8.322      -6.556
  q+dip:        9.298       1.656      -3.729       2.212      -6.085      -5.570
   full:        8.886       1.868      -3.289       2.483      -5.913      -5.597

           -------------------------------------------------
          |                Geometry Summary                 |
           -------------------------------------------------

      molecular mass/u    :      149.6618441
   center of mass at/Å    :        1.7375831       1.7365217       0.8074512
  moments of inertia/u·Å² :        0.3448606E+03   0.6172301E+03   0.7619634E+03
rotational constants/cm⁻¹ :        0.4888245E-01   0.2731175E-01   0.2212394E-01

 * 24 selected distances

     #   Z          #   Z                                           value/Å
     1   7 N        2   6 C                                       1.4781168
     2   6 C        3   6 C                                       1.5303066 (max)
     3   6 C        4   6 C                                       1.5300158
     4   6 C        5   6 C                                       1.5265842
     5   6 C        6   6 C                                       1.5255703
     6   6 C        7   6 C                                       1.5257740
     3   6 C        8   6 C                                       1.5301257
     7   6 C        8   6 C                                       1.5268821
     1   7 N       10   1 H                                       1.0220975
     1   7 N       11   1 H                                       1.0217757 (min)
     1   7 N       12   1 H                                       1.0478626
     2   6 C       13   1 H                                       1.0910727
     2   6 C       14   1 H                                       1.0899954
     3   6 C       15   1 H                                       1.0951395
     4   6 C       16   1 H                                       1.0917932
     4   6 C       17   1 H                                       1.0914541
     5   6 C       18   1 H                                       1.0929325
     5   6 C       19   1 H                                       1.0922243
     6   6 C       20   1 H                                       1.0922525
     6   6 C       21   1 H                                       1.0932914
     7   6 C       22   1 H                                       1.0923626
     7   6 C       23   1 H                                       1.0918441
     8   6 C       24   1 H                                       1.0913753
     8   6 C       25   1 H                                       1.0914996

 * 4 distinct bonds (by element types)

   Z      Z             #   av. dist./Å        max./Å        min./Å
   1 H    6 C          13     1.0920952     1.0951395     1.0899954
   6 C    6 C           7     1.5278941     1.5303066     1.5255703
   1 H    7 N           3     1.0305786     1.0478626     1.0217757
   6 C    7 N           1     1.4781168     1.4781168     1.4781168


optimized geometry written to: xtbopt.xyz


           -------------------------------------------------
          | TOTAL ENERGY              -30.681618169728 Eh   |
          | GRADIENT NORM               0.000958674794 Eh/α |
          | HOMO-LUMO GAP              10.061826886289 eV   |
           -------------------------------------------------

------------------------------------------------------------------------
 * finished run on 2023/01/24 at 15:20:49.674     
------------------------------------------------------------------------
 total:
 * wall-time:     0 d,  0 h,  0 min,  0.346 sec
 *  cpu-time:     0 d,  0 h,  0 min, 35.236 sec
 * ratio c/w:   101.693 speedup
 SCF:
 * wall-time:     0 d,  0 h,  0 min,  0.032 sec
 *  cpu-time:     0 d,  0 h,  0 min,  4.376 sec
 * ratio c/w:   137.865 speedup
 ANC optimizer:
 * wall-time:     0 d,  0 h,  0 min,  0.292 sec
 *  cpu-time:     0 d,  0 h,  0 min, 27.888 sec
 * ratio c/w:    95.625 speedup

