      -----------------------------------------------------------      
     |                   =====================                   |     
     |                           x T B                           |     
     |                   =====================                   |     
     |                         S. Grimme                         |     
     |          Mulliken Center for Theoretical Chemistry        |     
     |                    University of Bonn                     |     
      -----------------------------------------------------------      

   * xtb version 6.5.1 (fef0646) compiled by 'conda@b96dff2e9fd6' on 2023-01-04

   xtb is free software: you can redistribute it and/or modify it under
   the terms of the GNU Lesser General Public License as published by
   the Free Software Foundation, either version 3 of the License, or
   (at your option) any later version.
   
   xtb is distributed in the hope that it will be useful,
   but WITHOUT ANY WARRANTY; without even the implied warranty of
   MERCHANTABILITY or FITNESS FOR A PARTICULAR PURPOSE.  See the
   GNU Lesser General Public License for more details.
   
   Cite this work as:
   * C. Bannwarth, E. Caldeweyher, S. Ehlert, A. Hansen, P. Pracht,
     J. Seibert, S. Spicher, S. Grimme, WIREs Comput. Mol. Sci., 2020, 11,
     e01493. DOI: 10.1002/wcms.1493
   
   for GFN2-xTB:
   * C. Bannwarth, S. Ehlert and S. Grimme., J. Chem. Theory Comput., 2019,
     15, 1652-1671. DOI: 10.1021/acs.jctc.8b01176
   for GFN1-xTB:
   * S. Grimme, C. Bannwarth, P. Shushkov, J. Chem. Theory Comput., 2017,
     13, 1989-2009. DOI: 10.1021/acs.jctc.7b00118
   for GFN0-xTB:
   * P. Pracht, E. Caldeweyher, S. Ehlert, S. Grimme, ChemRxiv, 2019, preprint.
     DOI: 10.26434/chemrxiv.8326202.v1
   for GFN-FF:
   * S. Spicher and S. Grimme, Angew. Chem. Int. Ed., 2020, 59, 15665-15673.
     DOI: 10.1002/anie.202004239
   
   for ALPB and GBSA implicit solvation:
   * S. Ehlert, M. Stahn, S. Spicher, S. Grimme, J. Chem. Theory Comput.,
     2021, 17, 4250-4261. DOI: 10.1021/acs.jctc.1c00471
   
   for DFT-D4:
   * E. Caldeweyher, C. Bannwarth and S. Grimme, J. Chem. Phys., 2017,
     147, 034112. DOI: 10.1063/1.4993215
   * E. Caldeweyher, S. Ehlert, A. Hansen, H. Neugebauer, S. Spicher,
     C. Bannwarth and S. Grimme, J. Chem. Phys., 2019, 150, 154122.
     DOI: 10.1063/1.5090222
   * E. Caldeweyher, J.-M. Mewes, S. Ehlert and S. Grimme, Phys. Chem. Chem. Phys.
     2020, 22, 8499-8512. DOI: 10.1039/D0CP00502A
   
   for sTDA-xTB:
   * S. Grimme and C. Bannwarth, J. Chem. Phys., 2016, 145, 054103.
     DOI: 10.1063/1.4959605
   
   in the mass-spec context:
   * V. Asgeirsson, C. Bauer and S. Grimme, Chem. Sci., 2017, 8, 4879.
     DOI: 10.1039/c7sc00601b
   * J. Koopman and S. Grimme, ACS Omega 2019, 4, 12, 15120-15133.
     DOI: 10.1021/acsomega.9b02011
   
   for metadynamics refer to:
   * S. Grimme, J. Chem. Theory Comput., 2019, 155, 2847-2862
     DOI: 10.1021/acs.jctc.9b00143
   
   for SPH calculations refer to:
   * S. Spicher and S. Grimme, J. Chem. Theory Comput., 2021, 17, 1701-1714
     DOI: 10.1021/acs.jctc.0c01306
   
   with help from (in alphabetical order)
   P. Atkinson, C. Bannwarth, F. Bohle, G. Brandenburg, E. Caldeweyher
   M. Checinski, S. Dohm, S. Ehlert, S. Ehrlich, I. Gerasimov, C. Hölzer
   A. Katbashev, J. Koopman, C. Lavigne, S. Lehtola, F. März, M. Müller,
   F. Musil, H. Neugebauer, J. Pisarek, C. Plett, P. Pracht, F. Pultar,
   J. Seibert, P. Shushkov, S. Spicher, M. Stahn, M. Steiner, T. Strunk,
   J. Stückrath, T. Rose, and J. Unsleber
   
 * started run on 2023/01/23 at 18:57:16.054     

           -------------------------------------------------
          |                Calculation Setup                |
           -------------------------------------------------

          program call               : xtb init.xyz --opt -c 0 -u 0 -P 16 --input xtb.inp
          hostname                   : gpg-woodward
          coordinate file            : init.xyz
          omp threads                :                    16

   ID    Z sym.   atoms
    1    7 N      1
    2    6 C      2-8
    3   17 Cl     9
    4    1 H      10-25

molecular fragmentation (1/2 indicates fragments):
1111111121111111111111111
# atoms in fragment 1/2:    24     1
 fragment masses (1/2) :      114.21       35.45
CMA distance (Bohr)    :   7.475
constraining FC (au)   :  0.0500

           -------------------------------------------------
          |                 G F N 2 - x T B                 |
           -------------------------------------------------

        Reference                      10.1021/acs.jctc.8b01176
      * Hamiltonian:
        H0-scaling (s, p, d)           1.850000    2.230000    2.230000
        zeta-weighting                 0.500000
      * Dispersion:
        s8                             2.700000
        a1                             0.520000
        a2                             5.000000
        s9                             5.000000
      * Repulsion:
        kExp                           1.500000    1.000000
        rExp                           1.000000
      * Coulomb:
        alpha                          2.000000
        third order                    shell-resolved
        anisotropic                    true
        a3                             3.000000
        a5                             4.000000
        cn-shift                       1.200000
        cn-exp                         4.000000
        max-rad                        5.000000


          ...................................................
          :                      SETUP                      :
          :.................................................:
          :  # basis functions                  58          :
          :  # atomic orbitals                  57          :
          :  # shells                           35          :
          :  # electrons                        56          :
          :  max. iterations                   250          :
          :  Hamiltonian                  GFN2-xTB          :
          :  restarted?                      false          :
          :  GBSA solvation                  false          :
          :  PC potential                    false          :
          :  electronic temp.          300.0000000     K    :
          :  accuracy                    1.0000000          :
          :  -> integral cutoff          0.2500000E+02      :
          :  -> integral neglect         0.1000000E-07      :
          :  -> SCF convergence          0.1000000E-05 Eh   :
          :  -> wf. convergence          0.1000000E-03 e    :
          :  Broyden damping             0.4000000          :
          ...................................................

 iter      E             dE          RMSdq      gap      omega  full diag
   1    -30.8213123 -0.308213E+02  0.335E+00   11.09       0.0  T
   2    -30.9658867 -0.144574E+00  0.184E+00    7.99       1.0  T
   3    -30.9694599 -0.357319E-02  0.113E+00    7.24       1.0  T
   4    -30.9713022 -0.184233E-02  0.317E-01    6.75       1.0  T
   5    -30.9717257 -0.423529E-03  0.206E-01    6.82       1.0  T
   6    -30.9720402 -0.314419E-03  0.965E-02    6.90       1.0  T
   7    -30.9721093 -0.691248E-04  0.455E-02    6.92       1.0  T
   8    -30.9721224 -0.131329E-04  0.726E-03    6.91       2.8  T
   9    -30.9721225 -0.112910E-06  0.315E-03    6.91       6.3  T
  10    -30.9721226 -0.291299E-07  0.676E-04    6.91      29.6  T
  11    -30.9721226 -0.135755E-08  0.327E-04    6.91      61.1  T

   *** convergence criteria satisfied after 11 iterations ***

         #    Occupation            Energy/Eh            Energy/eV
      -------------------------------------------------------------
         1        2.0000           -0.9426086             -25.6497
       ...           ...                  ...                  ...
        22        2.0000           -0.4485617             -12.2060
        23        2.0000           -0.4329364             -11.7808
        24        2.0000           -0.4277047             -11.6384
        25        2.0000           -0.4266156             -11.6088
        26        2.0000           -0.3422712              -9.3137
        27        2.0000           -0.3378413              -9.1931
        28        2.0000           -0.3364332              -9.1548 (HOMO)
        29                         -0.0825171              -2.2454 (LUMO)
        30                          0.0124992               0.3401
        31                          0.0308382               0.8391
        32                          0.0434779               1.1831
        33                          0.0562430               1.5305
       ...                                ...                  ...
        57                          0.2898084               7.8861
      -------------------------------------------------------------
                  HL-Gap            0.2539161 Eh            6.9094 eV
             Fermi-level           -0.2094752 Eh           -5.7001 eV

 SCC (total)                   0 d,  0 h,  0 min,  0.031 sec
 SCC setup                      ...        0 min,  0.000 sec (  0.669%)
 Dispersion                     ...        0 min,  0.001 sec (  1.756%)
 classical contributions        ...        0 min,  0.000 sec (  0.309%)
 integral evaluation            ...        0 min,  0.003 sec (  8.804%)
 iterations                     ...        0 min,  0.022 sec ( 70.501%)
 molecular gradient             ...        0 min,  0.005 sec ( 16.888%)
 printout                       ...        0 min,  0.000 sec (  0.605%)

         :::::::::::::::::::::::::::::::::::::::::::::::::::::
         ::                     SUMMARY                     ::
         :::::::::::::::::::::::::::::::::::::::::::::::::::::
         :: total energy             -30.612153847089 Eh    ::
         :: gradient norm              0.034780535916 Eh/a0 ::
         :: HOMO-LUMO gap              6.909408199159 eV    ::
         ::.................................................::
         :: SCC energy               -30.972122558475 Eh    ::
         :: -> isotropic ES            0.100947917325 Eh    ::
         :: -> anisotropic ES         -0.022581875850 Eh    ::
         :: -> anisotropic XC          0.005436846696 Eh    ::
         :: -> dispersion             -0.018316037451 Eh    ::
         :: repulsion energy           0.359749907337 Eh    ::
         :: add. restraining           0.000000000000 Eh    ::
         :: total charge              -0.000000000000 e     ::
         :::::::::::::::::::::::::::::::::::::::::::::::::::::

      ----------------------------------------------------------- 
     |                   =====================                   |
     |                        A N C O P T                        |
     |                   =====================                   |
     |               Approximate Normal Coordinate               |
     |                Rational Function Optimizer                |
      ----------------------------------------------------------- 

          ...................................................
          :                      SETUP                      :
          :.................................................:
          :   optimization level            normal          :
          :   max. optcycles                   200          :
          :   ANC micro-cycles                  20          :
          :   degrees of freedom                69          :
          :.................................................:
          :   RF solver                   davidson          :
          :   write xtbopt.log                true          :
          :   linear?                        false          :
          :   energy convergence         0.5000000E-05 Eh   :
          :   grad. convergence          0.1000000E-02 Eh/α :
          :   maximium RF displ.         1.0000000          :
          :   Hlow (freq-cutoff)         0.1000000E-01      :
          :   Hmax (freq-cutoff)         5.0000000          :
          :   S6 in model hess.         20.0000000          :
          ...................................................

generating ANC from model Hessian ...
Using Lindh-Hessian (1995)
 Shifting diagonal of input Hessian by    9.1838845995255870E-003
 Lowest  eigenvalues of input Hessian
    0.000000    0.000000    0.000000    0.000000    0.000000    0.000000
    0.010000    0.010344    0.011858    0.012082    0.015248    0.017622
    0.017975    0.019155    0.024592    0.028377    0.028460    0.030116
 Highest eigenvalues
    1.222176    1.251236    1.280544    1.281743    1.407222    1.615124


........................................................................
.............................. CYCLE    1 ..............................
........................................................................
   1    -30.9721226 -0.309721E+02  0.169E-04    6.91       0.0  T
   2    -30.9721226 -0.773994E-10  0.134E-04    6.91     149.2  T
   3    -30.9721226 -0.117325E-09  0.594E-05    6.91     336.5  T
     SCC iter.                  ...        0 min,  0.005 sec
     gradient                   ...        0 min,  0.004 sec
 * total energy  :   -30.6121538 Eh     change       -0.6168079E-09 Eh
   gradient norm :     0.0347815 Eh/α   predicted     0.0000000E+00 (-100.00%)
   displ. norm   :     0.5560100 α      lambda       -0.1095040E-01
   maximum displ.:     0.3146809 α      in ANC's #8, #6, #3, ...

........................................................................
.............................. CYCLE    2 ..............................
........................................................................
   1    -30.9733031 -0.309733E+02  0.407E-01    7.63       0.0  T
   2    -30.9737057 -0.402604E-03  0.238E-01    7.81       1.0  T
   3    -30.9737357 -0.299931E-04  0.661E-02    7.89       1.0  T
   4    -30.9737427 -0.699558E-05  0.229E-02    7.91       1.0  T
   5    -30.9737449 -0.225459E-05  0.160E-02    7.90       1.3  T
   6    -30.9737465 -0.153311E-05  0.950E-03    7.90       2.1  T
   7    -30.9737472 -0.767641E-06  0.402E-03    7.90       5.0  T
   8    -30.9737474 -0.151554E-06  0.113E-03    7.90      17.7  T
   9    -30.9737474 -0.499626E-08  0.246E-04    7.90      81.2  T
  10    -30.9737474 -0.250594E-09  0.175E-04    7.90     114.4  T
     SCC iter.                  ...        0 min,  0.016 sec
     gradient                   ...        0 min,  0.003 sec
 * total energy  :   -30.6119260 Eh     change        0.2278311E-03 Eh
   gradient norm :     0.0425156 Eh/α   predicted    -0.7167907E-02 (*******%)
   displ. norm   :     0.3749928 α      lambda       -0.1196468E-01
   maximum displ.:     0.1885202 α      in ANC's #8, #1, #3, ...

........................................................................
.............................. CYCLE    3 ..............................
........................................................................
   1    -30.9800135 -0.309800E+02  0.276E-01    7.39       0.0  T
   2    -30.9801793 -0.165761E-03  0.158E-01    7.29       1.0  T
   3    -30.9801955 -0.161710E-04  0.463E-02    7.25       1.0  T
   4    -30.9801999 -0.445551E-05  0.201E-02    7.25       1.0  T
   5    -30.9802016 -0.166989E-05  0.149E-02    7.25       1.3  T
   6    -30.9802032 -0.159958E-05  0.764E-03    7.25       2.6  T
   7    -30.9802037 -0.475047E-06  0.278E-03    7.26       7.2  T
   8    -30.9802037 -0.587530E-07  0.722E-04    7.26      27.7  T
   9    -30.9802037 -0.205232E-08  0.127E-04    7.26     157.0  T
     SCC iter.                  ...        0 min,  0.014 sec
     gradient                   ...        0 min,  0.003 sec
 * total energy  :   -30.6172733 Eh     change       -0.5347330E-02 Eh
   gradient norm :     0.0112447 Eh/α   predicted    -0.6823604E-02 (  27.61%)
   displ. norm   :     0.3331168 α      lambda       -0.1935483E-02
   maximum displ.:     0.1773158 α      in ANC's #1, #4, #9, ...

........................................................................
.............................. CYCLE    4 ..............................
........................................................................
   1    -30.9825532 -0.309826E+02  0.855E-02    7.26       0.0  T
   2    -30.9825707 -0.174178E-04  0.491E-02    7.30       1.0  T
   3    -30.9825728 -0.213701E-05  0.130E-02    7.33       1.5  T
   4    -30.9825730 -0.247129E-06  0.495E-03    7.34       4.0  T
   5    -30.9825731 -0.978383E-07  0.320E-03    7.33       6.2  T
   6    -30.9825732 -0.559383E-07  0.206E-03    7.33       9.7  T
   7    -30.9825732 -0.340937E-07  0.642E-04    7.33      31.2  T
   8    -30.9825732 -0.280161E-08  0.234E-04    7.34      85.3  T
     SCC iter.                  ...        0 min,  0.012 sec
     gradient                   ...        0 min,  0.003 sec
 * total energy  :   -30.6193607 Eh     change       -0.2087326E-02 Eh
   gradient norm :     0.0157654 Eh/α   predicted    -0.1075126E-02 ( -48.49%)
   displ. norm   :     0.3853148 α      lambda       -0.2747602E-02
   maximum displ.:     0.2284452 α      in ANC's #1, #4, #8, ...

........................................................................
.............................. CYCLE    5 ..............................
........................................................................
   1    -30.9840881 -0.309841E+02  0.111E-01    7.30       0.0  T
   2    -30.9841297 -0.415816E-04  0.647E-02    7.37       1.0  T
   3    -30.9841344 -0.467772E-05  0.208E-02    7.42       1.0  T
   4    -30.9841351 -0.669193E-06  0.815E-03    7.43       2.5  T
   5    -30.9841353 -0.261723E-06  0.564E-03    7.43       3.5  T
   6    -30.9841355 -0.192602E-06  0.341E-03    7.43       5.9  T
   7    -30.9841356 -0.890466E-07  0.846E-04    7.43      23.6  T
   8    -30.9841356 -0.470902E-08  0.302E-04    7.43      66.2  T
     SCC iter.                  ...        0 min,  0.012 sec
     gradient                   ...        0 min,  0.003 sec
 * total energy  :   -30.6224172 Eh     change       -0.3056514E-02 Eh
   gradient norm :     0.0229281 Eh/α   predicted    -0.1577768E-02 ( -48.38%)
   displ. norm   :     0.4126833 α      lambda       -0.3784391E-02
   maximum displ.:     0.2409948 α      in ANC's #1, #8, #4, ...

........................................................................
.............................. CYCLE    6 ..............................
........................................................................
   1    -30.9853437 -0.309853E+02  0.148E-01    7.37       0.0  T
   2    -30.9854272 -0.834406E-04  0.872E-02    7.47       1.0  T
   3    -30.9854368 -0.966372E-05  0.313E-02    7.54       1.0  T
   4    -30.9854389 -0.210869E-05  0.143E-02    7.56       1.4  T
   5    -30.9854398 -0.884340E-06  0.994E-03    7.55       2.0  T
   6    -30.9854405 -0.715531E-06  0.513E-03    7.55       3.9  T
   7    -30.9854407 -0.201773E-06  0.109E-03    7.55      18.4  T
   8    -30.9854407 -0.798538E-08  0.444E-04    7.55      45.1  T
   9    -30.9854408 -0.899373E-09  0.205E-04    7.55      97.6  T
     SCC iter.                  ...        0 min,  0.013 sec
     gradient                   ...        0 min,  0.003 sec
 * total energy  :   -30.6262214 Eh     change       -0.3804219E-02 Eh
   gradient norm :     0.0294178 Eh/α   predicted    -0.2214452E-02 ( -41.79%)
   displ. norm   :     0.9069278 α      lambda       -0.9919601E-02
   maximum displ.:     0.4646491 α      in ANC's #8, #1, #4, ...

........................................................................
.............................. CYCLE    7 ..............................
........................................................................
   1    -30.9840546 -0.309841E+02  0.451E-01    7.42       0.0  T
   2    -30.9848754 -0.820843E-03  0.264E-01    7.74       1.0  T
   3    -30.9849934 -0.117951E-03  0.102E-01    7.94       1.0  T
   4    -30.9850262 -0.327915E-04  0.582E-02    7.99       1.0  T
   5    -30.9850433 -0.171090E-04  0.395E-02    7.98       1.0  T
   6    -30.9850573 -0.140524E-04  0.171E-02    7.97       1.2  T
   7    -30.9850598 -0.242426E-05  0.459E-03    7.97       4.4  T
   8    -30.9850599 -0.160145E-06  0.247E-03    7.97       8.1  T
   9    -30.9850600 -0.393112E-07  0.156E-03    7.97      12.8  T
  10    -30.9850600 -0.176663E-07  0.101E-03    7.97      19.9  T
  11    -30.9850600 -0.111720E-07  0.254E-04    7.96      78.7  T
  12    -30.9850600 -0.393545E-09  0.100E-04    7.96     199.3  T
     SCC iter.                  ...        0 min,  0.018 sec
     gradient                   ...        0 min,  0.003 sec
 * total energy  :   -30.6325767 Eh     change       -0.6355313E-02 Eh
   gradient norm :     0.0438328 Eh/α   predicted    -0.9039322E-02 (  42.23%)
   displ. norm   :     0.2486217 α      lambda       -0.3928533E-02
   maximum displ.:     0.0954161 α      in ANC's #8, #36, #42, ...

........................................................................
.............................. CYCLE    8 ..............................
........................................................................
   1    -30.9929019 -0.309929E+02  0.315E-01    8.56       0.0  T
   2    -30.9934537 -0.551777E-03  0.174E-01    8.77       1.0  T
   3    -30.9935152 -0.614756E-04  0.837E-02    8.85       1.0  T
   4    -30.9935406 -0.254450E-04  0.467E-02    8.88       1.0  T
   5    -30.9935523 -0.116810E-04  0.348E-02    8.87       1.0  T
   6    -30.9935662 -0.139132E-04  0.145E-02    8.85       1.4  T
   7    -30.9935688 -0.259840E-05  0.436E-03    8.85       4.6  T
   8    -30.9935690 -0.212712E-06  0.129E-03    8.85      15.5  T
   9    -30.9935690 -0.861257E-08  0.584E-04    8.85      34.2  T
  10    -30.9935690 -0.141859E-08  0.424E-04    8.85      47.2  T
     SCC iter.                  ...        0 min,  0.014 sec
     gradient                   ...        0 min,  0.003 sec
 * total energy  :   -30.6341389 Eh     change       -0.1562148E-02 Eh
   gradient norm :     0.0255202 Eh/α   predicted    -0.2085685E-02 (  33.51%)
   displ. norm   :     0.2970178 α      lambda       -0.2398662E-02
   maximum displ.:     0.1840558 α      in ANC's #4, #1, #3, ...

........................................................................
.............................. CYCLE    9 ..............................
........................................................................
   1    -30.9936216 -0.309936E+02  0.173E-01    8.46       0.0  T
   2    -30.9936368 -0.152382E-04  0.103E-01    8.48       1.0  T
   3    -30.9936471 -0.102911E-04  0.231E-02    8.50       1.0  T
   4    -30.9936497 -0.258533E-05  0.160E-02    8.50       1.3  T
   5    -30.9936515 -0.180761E-05  0.107E-02    8.50       1.9  T
   6    -30.9936526 -0.114799E-05  0.315E-03    8.51       6.3  T
   7    -30.9936527 -0.877199E-07  0.125E-03    8.51      16.0  T
   8    -30.9936527 -0.915304E-08  0.895E-04    8.51      22.4  T
   9    -30.9936527 -0.694726E-08  0.595E-04    8.51      33.6  T
     SCC iter.                  ...        0 min,  0.012 sec
     gradient                   ...        0 min,  0.003 sec
 * total energy  :   -30.6354040 Eh     change       -0.1265153E-02 Eh
   gradient norm :     0.0202510 Eh/α   predicted    -0.1305138E-02 (   3.16%)
   displ. norm   :     0.3135909 α      lambda       -0.2320539E-02
   maximum displ.:     0.1515906 α      in ANC's #3, #5, #1, ...

........................................................................
.............................. CYCLE   10 ..............................
........................................................................
   1    -30.9900602 -0.309901E+02  0.171E-01    8.56       0.0  T
   2    -30.9901537 -0.935465E-04  0.103E-01    8.65       1.0  T
   3    -30.9901696 -0.158778E-04  0.386E-02    8.69       1.0  T
   4    -30.9901747 -0.509777E-05  0.233E-02    8.70       1.0  T
   5    -30.9901775 -0.283299E-05  0.169E-02    8.69       1.2  T
   6    -30.9901810 -0.345246E-05  0.721E-03    8.68       2.8  T
   7    -30.9901817 -0.708599E-06  0.154E-03    8.68      13.0  T
   8    -30.9901817 -0.132119E-07  0.102E-03    8.68      19.5  T
   9    -30.9901817 -0.603519E-08  0.605E-04    8.68      33.0  T
  10    -30.9901817 -0.259978E-08  0.347E-04    8.68      57.7  T
     SCC iter.                  ...        0 min,  0.014 sec
     gradient                   ...        0 min,  0.003 sec
 * total energy  :   -30.6367277 Eh     change       -0.1323643E-02 Eh
   gradient norm :     0.0259368 Eh/α   predicted    -0.1274372E-02 (  -3.72%)
   displ. norm   :     0.2129287 α      lambda       -0.1946261E-02
   maximum displ.:     0.1114653 α      in ANC's #1, #9, #3, ...

........................................................................
.............................. CYCLE   11 ..............................
........................................................................
   1    -30.9949674 -0.309950E+02  0.129E-01    8.83       0.0  T
   2    -30.9950330 -0.655808E-04  0.720E-02    8.88       1.0  T
   3    -30.9950401 -0.708671E-05  0.292E-02    8.91       1.0  T
   4    -30.9950427 -0.266732E-05  0.159E-02    8.91       1.3  T
   5    -30.9950439 -0.118124E-05  0.119E-02    8.91       1.7  T
   6    -30.9950454 -0.148389E-05  0.429E-03    8.90       4.7  T
   7    -30.9950456 -0.195630E-06  0.150E-03    8.90      13.4  T
   8    -30.9950456 -0.186515E-07  0.101E-03    8.90      19.7  T
   9    -30.9950456 -0.763540E-08  0.675E-04    8.90      29.6  T
  10    -30.9950456 -0.512646E-08  0.317E-04    8.90      63.0  T
     SCC iter.                  ...        0 min,  0.014 sec
     gradient                   ...        0 min,  0.002 sec
 * total energy  :   -30.6380929 Eh     change       -0.1365265E-02 Eh
   gradient norm :     0.0132175 Eh/α   predicted    -0.1017264E-02 ( -25.49%)
   displ. norm   :     0.2220718 α      lambda       -0.1025376E-02
   maximum displ.:     0.1092149 α      in ANC's #3, #4, #42, ...

........................................................................
.............................. CYCLE   12 ..............................
........................................................................
   1    -30.9967726 -0.309968E+02  0.150E-01    9.02       0.0  T
   2    -30.9968904 -0.117815E-03  0.819E-02    9.08       1.0  T
   3    -30.9969019 -0.114488E-04  0.342E-02    9.10       1.0  T
   4    -30.9969052 -0.330550E-05  0.169E-02    9.11       1.2  T
   5    -30.9969065 -0.138050E-05  0.130E-02    9.10       1.5  T
   6    -30.9969085 -0.195300E-05  0.675E-03    9.10       3.0  T
   7    -30.9969092 -0.664702E-06  0.264E-03    9.09       7.6  T
   8    -30.9969093 -0.955701E-07  0.771E-04    9.09      25.9  T
   9    -30.9969093 -0.245884E-08  0.406E-04    9.09      49.3  T
     SCC iter.                  ...        0 min,  0.012 sec
     gradient                   ...        0 min,  0.003 sec
 * total energy  :   -30.6386751 Eh     change       -0.5821874E-03 Eh
   gradient norm :     0.0062142 Eh/α   predicted    -0.5379759E-03 (  -7.59%)
   displ. norm   :     0.0727564 α      lambda       -0.2417022E-03
   maximum displ.:     0.0364701 α      in ANC's #3, #10, #8, ...

........................................................................
.............................. CYCLE   13 ..............................
........................................................................
   1    -30.9981920 -0.309982E+02  0.456E-02    8.98       0.0  T
   2    -30.9981939 -0.188695E-05  0.281E-02    8.98       1.0  T
   3    -30.9981953 -0.133689E-05  0.855E-03    8.99       2.3  T
   4    -30.9981957 -0.397581E-06  0.638E-03    8.99       3.1  T
   5    -30.9981960 -0.391505E-06  0.381E-03    8.99       5.2  T
   6    -30.9981962 -0.157961E-06  0.172E-03    8.99      11.6  T
   7    -30.9981962 -0.324741E-07  0.628E-04    9.00      31.8  T
   8    -30.9981962 -0.232438E-08  0.464E-04    9.00      43.1  T
     SCC iter.                  ...        0 min,  0.011 sec
     gradient                   ...        0 min,  0.003 sec
 * total energy  :   -30.6387817 Eh     change       -0.1065801E-03 Eh
   gradient norm :     0.0062139 Eh/α   predicted    -0.1214919E-03 (  13.99%)
   displ. norm   :     0.0663515 α      lambda       -0.9686410E-04
   maximum displ.:     0.0434896 α      in ANC's #3, #2, #5, ...

........................................................................
.............................. CYCLE   14 ..............................
........................................................................
   1    -30.9979219 -0.309979E+02  0.346E-02    9.02       0.0  T
   2    -30.9979285 -0.660884E-05  0.196E-02    9.03       1.0  T
   3    -30.9979292 -0.702816E-06  0.854E-03    9.04       2.3  T
   4    -30.9979294 -0.203867E-06  0.409E-03    9.04       4.9  T
   5    -30.9979295 -0.894839E-07  0.304E-03    9.04       6.6  T
   6    -30.9979296 -0.105173E-06  0.169E-03    9.04      11.8  T
   7    -30.9979297 -0.438658E-07  0.519E-04    9.03      38.5  T
   8    -30.9979297 -0.306511E-08  0.209E-04    9.03      95.7  T
     SCC iter.                  ...        0 min,  0.010 sec
     gradient                   ...        0 min,  0.003 sec
 * total energy  :   -30.6388471 Eh     change       -0.6539924E-04 Eh
   gradient norm :     0.0038293 Eh/α   predicted    -0.4864950E-04 ( -25.61%)
   displ. norm   :     0.0626760 α      lambda       -0.6137915E-04
   maximum displ.:     0.0344738 α      in ANC's #3, #4, #10, ...

........................................................................
.............................. CYCLE   15 ..............................
........................................................................
   1    -30.9981503 -0.309982E+02  0.192E-02    9.05       0.0  T
   2    -30.9981518 -0.156057E-05  0.108E-02    9.05       1.8  T
   3    -30.9981520 -0.167377E-06  0.411E-03    9.05       4.9  T
   4    -30.9981521 -0.384395E-07  0.186E-03    9.05      10.8  T
   5    -30.9981521 -0.159471E-07  0.140E-03    9.05      14.3  T
   6    -30.9981521 -0.197351E-07  0.813E-04    9.05      24.6  T
   7    -30.9981521 -0.997883E-08  0.281E-04    9.05      71.2  T
     SCC iter.                  ...        0 min,  0.009 sec
     gradient                   ...        0 min,  0.003 sec
 * total energy  :   -30.6388914 Eh     change       -0.4427724E-04 Eh
   gradient norm :     0.0027523 Eh/α   predicted    -0.3081546E-04 ( -30.40%)
   displ. norm   :     0.0779190 α      lambda       -0.5352344E-04
   maximum displ.:     0.0417570 α      in ANC's #3, #4, #10, ...

........................................................................
.............................. CYCLE   16 ..............................
........................................................................
   1    -30.9980171 -0.309980E+02  0.170E-02    9.04       0.0  T
   2    -30.9980175 -0.337430E-06  0.998E-03    9.04       2.0  T
   3    -30.9980175 -0.330903E-07  0.182E-03    9.05      11.0  T
   4    -30.9980175 -0.991376E-08  0.644E-04    9.05      31.0  T
   5    -30.9980175 -0.131956E-08  0.320E-04    9.05      62.5  T
     SCC iter.                  ...        0 min,  0.006 sec
     gradient                   ...        0 min,  0.003 sec
 * total energy  :   -30.6389281 Eh     change       -0.3674497E-04 Eh
   gradient norm :     0.0020091 Eh/α   predicted    -0.2692652E-04 ( -26.72%)
   displ. norm   :     0.0634581 α      lambda       -0.3313110E-04
   maximum displ.:     0.0305782 α      in ANC's #4, #10, #3, ...

........................................................................
.............................. CYCLE   17 ..............................
........................................................................
   1    -30.9980281 -0.309980E+02  0.142E-02    9.05       0.0  T
   2    -30.9980282 -0.991832E-07  0.837E-03    9.05       2.4  T
   3    -30.9980282 -0.117204E-07  0.107E-03    9.05      18.8  T
   4    -30.9980282 -0.614059E-08  0.499E-04    9.05      40.1  T
   5    -30.9980282 -0.747900E-09  0.256E-04    9.05      78.0  T
     SCC iter.                  ...        0 min,  0.006 sec
     gradient                   ...        0 min,  0.003 sec
 * total energy  :   -30.6389516 Eh     change       -0.2346924E-04 Eh
   gradient norm :     0.0017238 Eh/α   predicted    -0.1663365E-04 ( -29.13%)
   displ. norm   :     0.0838680 α      lambda       -0.2507394E-04
   maximum displ.:     0.0388413 α      in ANC's #2, #10, #5, ...

........................................................................
.............................. CYCLE   18 ..............................
........................................................................
   1    -30.9977682 -0.309978E+02  0.195E-02    9.04       0.0  T
   2    -30.9977684 -0.204006E-06  0.115E-02    9.04       1.7  T
   3    -30.9977684 -0.471292E-07  0.199E-03    9.04      10.1  T
   4    -30.9977685 -0.165419E-07  0.127E-03    9.04      15.7  T
   5    -30.9977685 -0.740541E-08  0.750E-04    9.04      26.7  T
   6    -30.9977685 -0.351671E-08  0.464E-04    9.04      43.1  T
     SCC iter.                  ...        0 min,  0.008 sec
     gradient                   ...        0 min,  0.002 sec
 * total energy  :   -30.6389721 Eh     change       -0.2054981E-04 Eh
   gradient norm :     0.0020888 Eh/α   predicted    -0.1258038E-04 ( -38.78%)
   displ. norm   :     0.0236878 α      lambda       -0.1133119E-04
   maximum displ.:     0.0147538 α      in ANC's #2, #5, #4, ...

........................................................................
.............................. CYCLE   19 ..............................
........................................................................
   1    -30.9979195 -0.309979E+02  0.629E-03    9.05       0.0  T
   2    -30.9979195 -0.575042E-07  0.371E-03    9.05       5.4  T
   3    -30.9979195 -0.117902E-07  0.114E-03    9.05      17.5  T
   4    -30.9979196 -0.567355E-08  0.735E-04    9.05      27.2  T
   5    -30.9979196 -0.299789E-08  0.536E-04    9.05      37.3  T
     SCC iter.                  ...        0 min,  0.007 sec
     gradient                   ...        0 min,  0.003 sec
 * total energy  :   -30.6389815 Eh     change       -0.9405991E-05 Eh
   gradient norm :     0.0017353 Eh/α   predicted    -0.5671985E-05 ( -39.70%)
   displ. norm   :     0.1130058 α      lambda       -0.3038052E-04
   maximum displ.:     0.0678751 α      in ANC's #2, #5, #1, ...

........................................................................
.............................. CYCLE   20 ..............................
........................................................................
   1    -30.9977384 -0.309977E+02  0.255E-02    9.05       0.0  T
   2    -30.9977390 -0.561726E-06  0.151E-02    9.05       1.3  T
   3    -30.9977392 -0.172317E-06  0.379E-03    9.06       5.3  T
   4    -30.9977392 -0.610061E-07  0.264E-03    9.06       7.6  T
   5    -30.9977393 -0.386063E-07  0.165E-03    9.05      12.1  T
   6    -30.9977393 -0.257581E-07  0.662E-04    9.05      30.2  T
   7    -30.9977393 -0.357995E-08  0.222E-04    9.05      90.0  T
     SCC iter.                  ...        0 min,  0.009 sec
     gradient                   ...        0 min,  0.003 sec
 * total energy  :   -30.6390025 Eh     change       -0.2095368E-04 Eh
   gradient norm :     0.0019507 Eh/α   predicted    -0.1527748E-04 ( -27.09%)
   displ. norm   :     0.0351145 α      lambda       -0.1163984E-04
   maximum displ.:     0.0189701 α      in ANC's #10, #5, #1, ...
 * RMSD in coord.:     0.5475433 α      energy gain  -0.2684865E-01 Eh

generating ANC from model Hessian ...
Using Lindh-Hessian (1995)
 Shifting diagonal of input Hessian by    9.8714017449099811E-003
 Lowest  eigenvalues of input Hessian
    0.000000    0.000000    0.000000    0.000000    0.000000    0.000000
    0.010000    0.010788    0.012178    0.013679    0.014638    0.018117
    0.019524    0.022896    0.025688    0.029336    0.029893    0.032903
 Highest eigenvalues
    1.227844    1.232844    1.283637    1.287680    1.370848    1.440048


........................................................................
.............................. CYCLE   21 ..............................
........................................................................
   1    -30.9978143 -0.309978E+02  0.889E-03    9.07       0.0  T
   2    -30.9978146 -0.219906E-06  0.517E-03    9.07       3.9  T
   3    -30.9978146 -0.306418E-07  0.182E-03    9.07      11.0  T
   4    -30.9978146 -0.871242E-08  0.899E-04    9.07      22.2  T
   5    -30.9978146 -0.403415E-08  0.682E-04    9.07      29.3  T
     SCC iter.                  ...        0 min,  0.008 sec
     gradient                   ...        0 min,  0.003 sec
 * total energy  :   -30.6390164 Eh     change       -0.1394045E-04 Eh
   gradient norm :     0.0015241 Eh/α   predicted     0.0000000E+00 (-100.00%)
   displ. norm   :     0.0507947 α      lambda       -0.2197158E-04
   maximum displ.:     0.0344075 α      in ANC's #2, #3, #5, ...

........................................................................
.............................. CYCLE   22 ..............................
........................................................................
   1    -30.9977785 -0.309978E+02  0.173E-02    9.06       0.0  T
   2    -30.9977787 -0.195049E-06  0.105E-02    9.06       1.9  T
   3    -30.9977788 -0.121386E-06  0.291E-03    9.06       6.9  T
   4    -30.9977789 -0.341682E-07  0.226E-03    9.06       8.9  T
   5    -30.9977789 -0.373962E-07  0.102E-03    9.06      19.5  T
   6    -30.9977789 -0.834423E-08  0.316E-04    9.06      63.4  T
   7    -30.9977789 -0.525290E-09  0.101E-04    9.06     198.7  T
     SCC iter.                  ...        0 min,  0.010 sec
     gradient                   ...        0 min,  0.003 sec
 * total energy  :   -30.6390298 Eh     change       -0.1339847E-04 Eh
   gradient norm :     0.0007678 Eh/α   predicted    -0.1103573E-04 ( -17.63%)
   displ. norm   :     0.0646694 α      lambda       -0.1700945E-04
   maximum displ.:     0.0525316 α      in ANC's #1, #2, #7, ...

........................................................................
.............................. CYCLE   23 ..............................
........................................................................
   1    -30.9977530 -0.309978E+02  0.245E-02    9.05       0.0  T
   2    -30.9977533 -0.329095E-06  0.152E-02    9.05       1.3  T
   3    -30.9977536 -0.343335E-06  0.469E-03    9.05       4.3  T
   4    -30.9977537 -0.826217E-07  0.372E-03    9.05       5.4  T
   5    -30.9977538 -0.120265E-06  0.819E-04    9.05      24.4  T
   6    -30.9977538 -0.496890E-08  0.269E-04    9.05      74.3  T
     SCC iter.                  ...        0 min,  0.009 sec
     gradient                   ...        0 min,  0.003 sec
 * total energy  :   -30.6390420 Eh     change       -0.1212953E-04 Eh
   gradient norm :     0.0010666 Eh/α   predicted    -0.8525221E-05 ( -29.72%)
   displ. norm   :     0.0542129 α      lambda       -0.1003155E-04
   maximum displ.:     0.0397621 α      in ANC's #1, #2, #3, ...

........................................................................
.............................. CYCLE   24 ..............................
........................................................................
   1    -30.9978325 -0.309978E+02  0.152E-02    9.05       0.0  T
   2    -30.9978326 -0.802469E-07  0.927E-03    9.05       2.2  T
   3    -30.9978327 -0.928600E-07  0.237E-03    9.05       8.4  T
   4    -30.9978327 -0.228658E-07  0.179E-03    9.05      11.2  T
   5    -30.9978328 -0.281204E-07  0.478E-04    9.05      41.8  T
   6    -30.9978328 -0.159447E-08  0.158E-04    9.05     126.7  T
     SCC iter.                  ...        0 min,  0.009 sec
     gradient                   ...        0 min,  0.003 sec
 * total energy  :   -30.6390529 Eh     change       -0.1096546E-04 Eh
   gradient norm :     0.0006381 Eh/α   predicted    -0.5022630E-05 ( -54.20%)
   displ. norm   :     0.1218097 α      lambda       -0.1454572E-04
   maximum displ.:     0.0958069 α      in ANC's #1, #3, #2, ...

........................................................................
.............................. CYCLE   25 ..............................
........................................................................
   1    -30.9979228 -0.309979E+02  0.236E-02    9.05       0.0  T
   2    -30.9979230 -0.189051E-06  0.144E-02    9.05       1.4  T
   3    -30.9979232 -0.189352E-06  0.339E-03    9.05       5.9  T
   4    -30.9979232 -0.455739E-07  0.256E-03    9.05       7.8  T
   5    -30.9979233 -0.514793E-07  0.971E-04    9.05      20.6  T
   6    -30.9979233 -0.822673E-08  0.259E-04    9.05      77.3  T
     SCC iter.                  ...        0 min,  0.009 sec
     gradient                   ...        0 min,  0.003 sec
 * total energy  :   -30.6390708 Eh     change       -0.1790616E-04 Eh
   gradient norm :     0.0006473 Eh/α   predicted    -0.7326288E-05 ( -59.09%)
   displ. norm   :     0.2661640 α      lambda       -0.2710909E-04
   maximum displ.:     0.2130556 α      in ANC's #1, #3, #2, ...

........................................................................
.............................. CYCLE   26 ..............................
........................................................................
   1    -30.9976279 -0.309976E+02  0.478E-02    9.04       0.0  T
   2    -30.9976286 -0.726126E-06  0.290E-02    9.04       1.0  T
   3    -30.9976293 -0.715881E-06  0.654E-03    9.04       3.1  T
   4    -30.9976295 -0.175590E-06  0.480E-03    9.04       4.2  T
   5    -30.9976297 -0.180044E-06  0.188E-03    9.04      10.7  T
   6    -30.9976297 -0.290393E-07  0.555E-04    9.04      36.0  T
   7    -30.9976297 -0.130565E-08  0.167E-04    9.04     120.1  T
     SCC iter.                  ...        0 min,  0.010 sec
     gradient                   ...        0 min,  0.003 sec
 * total energy  :   -30.6391029 Eh     change       -0.3201685E-04 Eh
   gradient norm :     0.0011133 Eh/α   predicted    -0.1398156E-04 ( -56.33%)
   displ. norm   :     0.2422486 α      lambda       -0.2223217E-04
   maximum displ.:     0.1950799 α      in ANC's #1, #3, #2, ...

........................................................................
.............................. CYCLE   27 ..............................
........................................................................
   1    -30.9974896 -0.309975E+02  0.444E-02    9.04       0.0  T
   2    -30.9974903 -0.635324E-06  0.268E-02    9.04       1.0  T
   3    -30.9974908 -0.573192E-06  0.583E-03    9.04       3.4  T
   4    -30.9974910 -0.135754E-06  0.432E-03    9.04       4.6  T
   5    -30.9974911 -0.143112E-06  0.183E-03    9.04      10.9  T
   6    -30.9974911 -0.265946E-07  0.516E-04    9.04      38.8  T
   7    -30.9974911 -0.111167E-08  0.152E-04    9.04     131.4  T
     SCC iter.                  ...        0 min,  0.010 sec
     gradient                   ...        0 min,  0.003 sec
 * total energy  :   -30.6391283 Eh     change       -0.2548431E-04 Eh
   gradient norm :     0.0013379 Eh/α   predicted    -0.1140665E-04 ( -55.24%)
   displ. norm   :     0.1719630 α      lambda       -0.1371678E-04
   maximum displ.:     0.1380615 α      in ANC's #1, #3, #4, ...

........................................................................
.............................. CYCLE   28 ..............................
........................................................................
   1    -30.9976493 -0.309976E+02  0.329E-02    9.05       0.0  T
   2    -30.9976496 -0.333117E-06  0.198E-02    9.05       1.0  T
   3    -30.9976499 -0.303709E-06  0.423E-03    9.04       4.7  T
   4    -30.9976500 -0.690885E-07  0.319E-03    9.04       6.3  T
   5    -30.9976501 -0.821174E-07  0.136E-03    9.04      14.8  T
   6    -30.9976501 -0.134449E-07  0.369E-04    9.04      54.2  T
   7    -30.9976501 -0.807649E-09  0.168E-04    9.04     118.7  T
     SCC iter.                  ...        0 min,  0.010 sec
     gradient                   ...        0 min,  0.003 sec
 * total energy  :   -30.6391432 Eh     change       -0.1482849E-04 Eh
   gradient norm :     0.0009111 Eh/α   predicted    -0.6950186E-05 ( -53.13%)
   displ. norm   :     0.1402945 α      lambda       -0.7466049E-05
   maximum displ.:     0.1146069 α      in ANC's #1, #3, #2, ...

........................................................................
.............................. CYCLE   29 ..............................
........................................................................
   1    -30.9976946 -0.309977E+02  0.273E-02    9.04       0.0  T
   2    -30.9976949 -0.264210E-06  0.165E-02    9.04       1.2  T
   3    -30.9976952 -0.249701E-06  0.394E-03    9.04       5.1  T
   4    -30.9976952 -0.556665E-07  0.310E-03    9.04       6.4  T
   5    -30.9976953 -0.813903E-07  0.100E-03    9.04      20.0  T
   6    -30.9976953 -0.666421E-08  0.321E-04    9.04      62.3  T
   7    -30.9976953 -0.522153E-09  0.119E-04    9.04     168.1  T
     SCC iter.                  ...        0 min,  0.010 sec
     gradient                   ...        0 min,  0.003 sec
 * total energy  :   -30.6391520 Eh     change       -0.8796791E-05 Eh
   gradient norm :     0.0009388 Eh/α   predicted    -0.3769405E-05 ( -57.15%)
   displ. norm   :     0.3158058 α      lambda       -0.1215916E-04
   maximum displ.:     0.2549743 α      in ANC's #1, #3, #2, ...

........................................................................
.............................. CYCLE   30 ..............................
........................................................................
   1    -30.9973515 -0.309974E+02  0.580E-02    9.03       0.0  T
   2    -30.9973526 -0.108814E-05  0.351E-02    9.03       1.0  T
   3    -30.9973537 -0.110910E-05  0.818E-03    9.03       2.4  T
   4    -30.9973540 -0.259295E-06  0.615E-03    9.03       3.3  T
   5    -30.9973543 -0.316172E-06  0.205E-03    9.03       9.7  T
   6    -30.9973543 -0.285266E-07  0.623E-04    9.03      32.1  T
   7    -30.9973543 -0.178678E-08  0.221E-04    9.03      90.6  T
     SCC iter.                  ...        0 min,  0.010 sec
     gradient                   ...        0 min,  0.003 sec
 * total energy  :   -30.6391629 Eh     change       -0.1095479E-04 Eh
   gradient norm :     0.0018203 Eh/α   predicted    -0.6351945E-05 ( -42.02%)
   displ. norm   :     0.1727743 α      lambda       -0.9515926E-05
   maximum displ.:     0.1347427 α      in ANC's #1, #3, #2, ...

........................................................................
.............................. CYCLE   31 ..............................
........................................................................
   1    -30.9977449 -0.309977E+02  0.313E-02    9.06       0.0  T
   2    -30.9977452 -0.366309E-06  0.188E-02    9.06       1.1  T
   3    -30.9977456 -0.324459E-06  0.441E-03    9.06       4.5  T
   4    -30.9977457 -0.818707E-07  0.329E-03    9.06       6.1  T
   5    -30.9977457 -0.922572E-07  0.138E-03    9.06      14.5  T
   6    -30.9977458 -0.167928E-07  0.555E-04    9.06      36.1  T
   7    -30.9977458 -0.184077E-08  0.242E-04    9.05      82.8  T
     SCC iter.                  ...        0 min,  0.010 sec
     gradient                   ...        0 min,  0.003 sec
 * total energy  :   -30.6391731 Eh     change       -0.1019316E-04 Eh
   gradient norm :     0.0009651 Eh/α   predicted    -0.4821595E-05 ( -52.70%)
   displ. norm   :     0.3344910 α      lambda       -0.1049254E-04
   maximum displ.:     0.2621331 α      in ANC's #1, #3, #2, ...

........................................................................
.............................. CYCLE   32 ..............................
........................................................................
   1    -30.9973659 -0.309974E+02  0.614E-02    9.05       0.0  T
   2    -30.9973672 -0.135740E-05  0.371E-02    9.05       1.0  T
   3    -30.9973685 -0.125377E-05  0.872E-03    9.05       2.3  T
   4    -30.9973688 -0.302930E-06  0.645E-03    9.05       3.1  T
   5    -30.9973691 -0.331700E-06  0.251E-03    9.05       8.0  T
   6    -30.9973692 -0.504190E-07  0.856E-04    9.05      23.4  T
   7    -30.9973692 -0.322418E-08  0.274E-04    9.05      73.0  T
     SCC iter.                  ...        0 min,  0.010 sec
     gradient                   ...        0 min,  0.003 sec
 * total energy  :   -30.6391828 Eh     change       -0.9697482E-05 Eh
   gradient norm :     0.0015957 Eh/α   predicted    -0.5507902E-05 ( -43.20%)
   displ. norm   :     0.1438727 α      lambda       -0.1369376E-04
   maximum displ.:     0.0994765 α      in ANC's #1, #2, #3, ...

........................................................................
.............................. CYCLE   33 ..............................
........................................................................
   1    -30.9981795 -0.309982E+02  0.312E-02    9.09       0.0  T
   2    -30.9981802 -0.612799E-06  0.189E-02    9.09       1.1  T
   3    -30.9981806 -0.447294E-06  0.526E-03    9.09       3.8  T
   4    -30.9981807 -0.125003E-06  0.390E-03    9.09       5.1  T
   5    -30.9981809 -0.138652E-06  0.155E-03    9.09      12.9  T
   6    -30.9981809 -0.238525E-07  0.688E-04    9.09      29.1  T
   7    -30.9981809 -0.334218E-08  0.334E-04    9.09      59.8  T
     SCC iter.                  ...        0 min,  0.010 sec
     gradient                   ...        0 min,  0.002 sec
 * total energy  :   -30.6391928 Eh     change       -0.9951387E-05 Eh
   gradient norm :     0.0006526 Eh/α   predicted    -0.6911479E-05 ( -30.55%)
   displ. norm   :     0.2474798 α      lambda       -0.6204251E-05
   maximum displ.:     0.1923816 α      in ANC's #1, #3, #2, ...

........................................................................
.............................. CYCLE   34 ..............................
........................................................................
   1    -30.9976416 -0.309976E+02  0.463E-02    9.07       0.0  T
   2    -30.9976423 -0.727469E-06  0.280E-02    9.07       1.0  T
   3    -30.9976430 -0.667389E-06  0.635E-03    9.07       3.1  T
   4    -30.9976432 -0.162994E-06  0.462E-03    9.07       4.3  T
   5    -30.9976433 -0.161817E-06  0.200E-03    9.07      10.0  T
   6    -30.9976434 -0.318870E-07  0.653E-04    9.07      30.6  T
   7    -30.9976434 -0.196190E-08  0.163E-04    9.07     122.9  T
     SCC iter.                  ...        0 min,  0.009 sec
     gradient                   ...        0 min,  0.002 sec
 * total energy  :   -30.6391982 Eh     change       -0.5426152E-05 Eh
   gradient norm :     0.0011134 Eh/α   predicted    -0.3187123E-05 ( -41.26%)
   displ. norm   :     0.0978732 α      lambda       -0.3369926E-05
   maximum displ.:     0.0727811 α      in ANC's #1, #2, #3, ...

........................................................................
.............................. CYCLE   35 ..............................
........................................................................
   1    -30.9976388 -0.309976E+02  0.186E-02    9.08       0.0  T
   2    -30.9976389 -0.111946E-06  0.111E-02    9.08       1.8  T
   3    -30.9976390 -0.996678E-07  0.245E-03    9.08       8.2  T
   4    -30.9976390 -0.241886E-07  0.183E-03    9.08      10.9  T
   5    -30.9976390 -0.267116E-07  0.808E-04    9.08      24.8  T
   6    -30.9976390 -0.585242E-08  0.315E-04    9.08      63.5  T
     SCC iter.                  ...        0 min,  0.006 sec
     gradient                   ...        0 min,  0.002 sec
 * total energy  :   -30.6392024 Eh     change       -0.4247645E-05 Eh
   gradient norm :     0.0010791 Eh/α   predicted    -0.1694115E-05 ( -60.12%)
   displ. norm   :     0.3659878 α      lambda       -0.1192036E-04
   maximum displ.:     0.2783892 α      in ANC's #1, #2, #3, ...

........................................................................
.............................. CYCLE   36 ..............................
........................................................................
   1    -30.9977517 -0.309978E+02  0.715E-02    9.07       0.0  T
   2    -30.9977530 -0.139100E-05  0.429E-02    9.07       1.0  T
   3    -30.9977545 -0.141915E-05  0.922E-03    9.07       2.2  T
   4    -30.9977548 -0.355380E-06  0.667E-03    9.07       3.0  T
   5    -30.9977552 -0.362261E-06  0.245E-03    9.07       8.2  T
   6    -30.9977552 -0.421091E-07  0.819E-04    9.07      24.4  T
   7    -30.9977552 -0.233689E-08  0.221E-04    9.07      90.6  T
     SCC iter.                  ...        0 min,  0.007 sec
     gradient                   ...        0 min,  0.002 sec
 * total energy  :   -30.6392125 Eh     change       -0.1004307E-04 Eh
   gradient norm :     0.0013136 Eh/α   predicted    -0.6318035E-05 ( -37.09%)
   displ. norm   :     0.1482248 α      lambda       -0.1553427E-04
   maximum displ.:     0.0894483 α      in ANC's #1, #2, #4, ...

........................................................................
.............................. CYCLE   37 ..............................
........................................................................
   1    -30.9987081 -0.309987E+02  0.335E-02    9.13       0.0  T
   2    -30.9987087 -0.514348E-06  0.198E-02    9.13       1.0  T
   3    -30.9987090 -0.329447E-06  0.427E-03    9.13       4.7  T
   4    -30.9987091 -0.761450E-07  0.312E-03    9.13       6.4  T
   5    -30.9987091 -0.731760E-07  0.204E-03    9.12       9.8  T
   6    -30.9987092 -0.463766E-07  0.637E-04    9.12      31.4  T
   7    -30.9987092 -0.462096E-08  0.334E-04    9.12      59.9  T
     SCC iter.                  ...        0 min,  0.007 sec
     gradient                   ...        0 min,  0.002 sec
 * total energy  :   -30.6392156 Eh     change       -0.3075517E-05 Eh
   gradient norm :     0.0017503 Eh/α   predicted    -0.7848630E-05 ( 155.20%)
   displ. norm   :     0.5248849 α      lambda       -0.2160368E-04
   maximum displ.:     0.3885806 α      in ANC's #1, #2, #3, ...

........................................................................
.............................. CYCLE   38 ..............................
........................................................................
   1    -30.9959146 -0.309959E+02  0.102E-01    9.05       0.0  T
   2    -30.9959176 -0.305373E-05  0.610E-02    9.05       1.0  T
   3    -30.9959199 -0.228838E-05  0.117E-02    9.06       1.7  T
   4    -30.9959204 -0.488764E-06  0.876E-03    9.06       2.3  T
   5    -30.9959210 -0.533809E-06  0.437E-03    9.05       4.6  T
   6    -30.9959211 -0.145664E-06  0.146E-03    9.05      13.7  T
   7    -30.9959211 -0.121873E-07  0.311E-04    9.05      64.2  T
   8    -30.9959211 -0.281528E-09  0.137E-04    9.05     145.7  T
     SCC iter.                  ...        0 min,  0.008 sec
     gradient                   ...        0 min,  0.002 sec
 * total energy  :   -30.6391980 Eh     change        0.1756051E-04 Eh
   gradient norm :     0.0058397 Eh/α   predicted    -0.1213225E-04 (-169.09%)
   displ. norm   :     0.2321486 α      lambda       -0.6073900E-04
   maximum displ.:     0.1673015 α      in ANC's #1, #2, #3, ...

........................................................................
.............................. CYCLE   39 ..............................
........................................................................
   1    -30.9975774 -0.309976E+02  0.451E-02    9.09       0.0  T
   2    -30.9975780 -0.609203E-06  0.269E-02    9.08       1.0  T
   3    -30.9975784 -0.379691E-06  0.472E-03    9.08       4.2  T
   4    -30.9975784 -0.755866E-07  0.350E-03    9.08       5.7  T
   5    -30.9975785 -0.809401E-07  0.182E-03    9.08      11.0  T
   6    -30.9975785 -0.262075E-07  0.728E-04    9.08      27.5  T
   7    -30.9975785 -0.343085E-08  0.188E-04    9.08     106.7  T
     SCC iter.                  ...        0 min,  0.007 sec
     gradient                   ...        0 min,  0.002 sec
 * total energy  :   -30.6392294 Eh     change       -0.3136932E-04 Eh
   gradient norm :     0.0014938 Eh/α   predicted    -0.3200624E-04 (   2.03%)
   displ. norm   :     0.0456499 α      lambda       -0.4454707E-05
   maximum displ.:     0.0297057 α      in ANC's #1, #2, #16, ...

........................................................................
.............................. CYCLE   40 ..............................
........................................................................
   1    -30.9980744 -0.309981E+02  0.108E-02    9.10       0.0  T
   2    -30.9980744 -0.393795E-07  0.644E-03    9.10       3.1  T
   3    -30.9980744 -0.344807E-07  0.143E-03    9.09      13.9  T
   4    -30.9980744 -0.834033E-08  0.103E-03    9.09      19.5  T
   5    -30.9980744 -0.796681E-08  0.492E-04    9.09      40.6  T
   6    -30.9980744 -0.174361E-08  0.151E-04    9.09     132.5  T
     SCC iter.                  ...        0 min,  0.006 sec
     gradient                   ...        0 min,  0.002 sec
 * total energy  :   -30.6392338 Eh     change       -0.4471703E-05 Eh
   gradient norm :     0.0004132 Eh/α   predicted    -0.2233122E-05 ( -50.06%)
   displ. norm   :     0.1333062 α      lambda       -0.4181555E-05
   maximum displ.:     0.0922350 α      in ANC's #1, #2, #3, ...

   *** GEOMETRY OPTIMIZATION CONVERGED AFTER 40 ITERATIONS ***

------------------------------------------------------------------------
 total energy gain   :        -0.0270800 Eh      -16.9929 kcal/mol
 total RMSD          :         0.8076749 a0        0.4274 Å
 total power (kW/mol):        -1.7774623 (step) -110.1203 (real)
------------------------------------------------------------------------

 ANCopt (total)                0 d,  0 h,  0 min,  0.646 sec
 optimizer setup                ...        0 min,  0.000 sec (  0.015%)
 model hessian                  ...        0 min,  0.052 sec (  7.980%)
 ANC generation                 ...        0 min,  0.009 sec (  1.415%)
 coordinate transformation      ...        0 min,  0.001 sec (  0.114%)
 single point calculation       ...        0 min,  0.568 sec ( 88.027%)
 optimization log               ...        0 min,  0.005 sec (  0.772%)
 hessian update                 ...        0 min,  0.001 sec (  0.157%)
 rational function              ...        0 min,  0.006 sec (  0.967%)

================
 final structure:
================
25
 xtb: 6.5.1 (fef0646)
N            1.26581860875654       -0.12009103305030       -0.57551215993206
C            2.56579395477107        0.04355309072428        0.07821659351749
C            2.84059722224941       -1.01600094088619        1.15183000983881
C            2.80559738281420       -2.43934272070605        0.59110792353753
C            3.20267320914538       -3.44187866970883        1.67159864656595
C            2.26191132378502       -3.33089773725486        2.86736117404041
C            2.27221218933627       -1.91035695648865        3.42307181185700
C            1.88325517464886       -0.90946274290453        2.33836244273951
Cl          -1.23776297329627        0.30705121842389        0.87836607290760
H            1.15369346915664        0.57836775555335       -1.30286079233405
H           -0.01640871595695        0.09645375116698        0.27116600449032
H            1.19797767089737       -1.03766828008572       -1.00362929987724
H            2.56920116924063        1.03196072659145        0.54476066760618
H            3.38330395994127        0.01273097970821       -0.65791531906638
H            3.85710193420366       -0.82278850225728        1.51605241800341
H            3.48455854091252       -2.52409712325361       -0.26177013741603
H            1.79485200140841       -2.67882776513118        0.25403016383623
H            4.22732031671751       -3.24258721224227        1.99470584051690
H            3.17184429125968       -4.45515462453612        1.26499611444496
H            2.56236975605355       -4.03817561678721        3.64305872492847
H            1.24750971172480       -3.58731064085181        2.55423359092926
H            3.27192735775221       -1.67535985331791        3.79740292579153
H            1.57572539356567       -1.83434053417028        4.25975532328288
H            1.90915636048105        0.10378217224511        2.74255372503743
H            0.86518069043531       -1.11075874077948        2.00822753475475

 Bond Distances (Angstroems)
 ---------------------------
N1-C2=1.4643         N1-H10=1.0146        N1-H12=1.0148        C2-N1=1.4643         C2-C3=1.5332         C2-H13=1.0930        
C2-H14=1.1005        C3-C2=1.5332         C3-C4=1.5302         C3-C8=1.5283         C3-H15=1.0969        C4-C3=1.5302         
C4-C5=1.5265         C4-H16=1.0934        C4-H17=1.0921        C5-C4=1.5265         C5-C6=1.5255         C5-H18=1.0927        
C5-H19=1.0922        C6-C5=1.5255         C6-C7=1.5254         C6-H20=1.0919        C6-H21=1.0922        C7-C6=1.5254         
C7-C8=1.5263         C7-H22=1.0931        C7-H23=1.0913        C8-C3=1.5283         C8-C7=1.5263         C8-H24=1.0912        
C8-H25=1.0890        Cl9-H11=1.3801       H10-N1=1.0146        H11-Cl9=1.3801       H12-N1=1.0148        H13-C2=1.0930        
H14-C2=1.1005        H15-C3=1.0969        H16-C4=1.0934        H17-C4=1.0921        H18-C5=1.0927        H19-C5=1.0922        
H20-C6=1.0919        H21-C6=1.0922        H22-C7=1.0931        H23-C7=1.0913        H24-C8=1.0912        H25-C8=1.0890        
 C  H  Rav=1.0930 sigma=0.0027  Rmin=1.0890  Rmax=1.1005    13
 C  C  Rav=1.5279 sigma=0.0027  Rmin=1.5254  Rmax=1.5332     7
 N  H  Rav=1.0147 sigma=0.0001  Rmin=1.0146  Rmax=1.0148     2
 N  C  Rav=1.4643 sigma=0.0000  Rmin=1.4643  Rmax=1.4643     1
 Cl H  Rav=1.3801 sigma=0.0000  Rmin=1.3801  Rmax=1.3801     1

 selected bond angles (degree)
 --------------------
H10-N1-C2=109.95               H12-N1-C2=110.41               H12-N1-H10=108.22              C3-C2-N1=113.24                
H13-C2-N1=107.12               H13-C2-C3=108.99               H14-C2-N1=110.96               H14-C2-C3=108.41               
H14-C2-H13=107.97              C4-C3-C2=112.46                C8-C3-C2=112.53                C8-C3-C4=109.57                
H15-C3-C2=106.07               H15-C3-C4=107.86               H15-C3-C8=108.08               C5-C4-C3=110.22                
H16-C4-C3=110.10               H16-C4-C5=109.86               H17-C4-C3=109.77               H17-C4-C5=108.37               
H17-C4-H16=108.48              C6-C5-C4=110.28                H18-C5-C4=109.48               H18-C5-C6=109.46               
H19-C5-C4=109.78               H19-C5-C6=109.99               H19-C5-H18=107.80              C7-C6-C5=110.43                
H20-C6-C5=109.88               H20-C6-C7=110.03               H21-C6-C5=109.33               H21-C6-C7=109.23               
H21-C6-H20=107.89              C8-C7-C6=110.49                H22-C7-C6=109.34               H22-C7-C8=109.60               
H23-C7-C6=109.87               H23-C7-C8=109.67               H23-C7-H22=107.83              C7-C8-C3=110.27                
H24-C8-C3=109.72               H24-C8-C7=109.85               H25-C8-C3=109.72               H25-C8-C7=109.42               
H25-C8-H24=107.83              

 selected dihedral angles (degree)
 ---------------------------------
C3-C2-N1-H10=182.56           C3-C2-N1-H12=301.90           H13-C2-N1-H10= 62.37          H13-C2-N1-H12=181.70          
H14-C2-N1-H10=304.74          H14-C2-N1-H12= 64.08          C4-C3-C2-N1= 58.90            C4-C3-C2-H13=178.02           
C4-C3-C2-H14=295.31           C8-C3-C2-N1=294.57            C8-C3-C2-H13= 53.69           C8-C3-C2-H14=170.98           
H15-C3-C2-N1=176.58           H15-C3-C2-H13=295.70          H15-C3-C2-H14= 52.99          C5-C4-C3-C2=175.14            
C5-C4-C3-C8=301.09            C5-C4-C3-H15= 58.52           H16-C4-C3-C2= 53.79           H16-C4-C3-C8=179.74           
H16-C4-C3-H15=297.17          H17-C4-C3-C2=294.43           H17-C4-C3-C8= 60.39           H17-C4-C3-H15=177.82          
C6-C5-C4-C3= 58.45            C6-C5-C4-H16=179.95           C6-C5-C4-H17=298.31           H18-C5-C4-C3=297.95           
H18-C5-C4-H16= 59.45          H18-C5-C4-H17=177.81          H19-C5-C4-C3=179.80           H19-C5-C4-H16=301.29          
H19-C5-C4-H17= 59.66          C7-C6-C5-C4=302.56            C7-C6-C5-H18= 63.06           C7-C6-C5-H19=181.33           
H20-C6-C5-C4=180.99           H20-C6-C5-H18=301.50          H20-C6-C5-H19= 59.77          H21-C6-C5-C4= 62.77           
H21-C6-C5-H18=183.27          H21-C6-C5-H19=301.54          C8-C7-C6-C5= 57.28            C8-C7-C6-H20=178.76           
C8-C7-C6-H21=297.02           H22-C7-C6-C5=296.57           H22-C7-C6-H20= 58.05          H22-C7-C6-H21=176.31          
H23-C7-C6-C5=178.42           H23-C7-C6-H20=299.89          H23-C7-C6-H21= 58.15          C7-C8-C3-C2=184.57            
C7-C8-C3-C4= 58.66            C7-C8-C3-H15=301.36           H24-C8-C3-C2=305.70           H24-C8-C3-C4=179.79           
H24-C8-C3-H15= 62.49          H25-C8-C3-C2= 63.99           H25-C8-C3-C4=298.07           H25-C8-C3-H15=180.78          
C3-C8-C7-C6=301.93            C3-C8-C7-H22= 62.49           C3-C8-C7-H23=180.68           H24-C8-C7-C6=180.88           
H24-C8-C7-H22=301.44          H24-C8-C7-H23= 59.63          H25-C8-C7-C6= 62.70           H25-C8-C7-H22=183.25          
H25-C8-C7-H23=301.44          

 CMA Distance (Angstroems)
 ---------------------------
R(CMA):  4.0984
           -------------------------------------------------
          |                Final Singlepoint                |
           -------------------------------------------------

          ...................................................
          :                      SETUP                      :
          :.................................................:
          :  # basis functions                  58          :
          :  # atomic orbitals                  57          :
          :  # shells                           35          :
          :  # electrons                        56          :
          :  max. iterations                   250          :
          :  Hamiltonian                  GFN2-xTB          :
          :  restarted?                      false          :
          :  GBSA solvation                  false          :
          :  PC potential                    false          :
          :  electronic temp.          300.0000000     K    :
          :  accuracy                    1.0000000          :
          :  -> integral cutoff          0.2500000E+02      :
          :  -> integral neglect         0.1000000E-07      :
          :  -> SCF convergence          0.1000000E-05 Eh   :
          :  -> wf. convergence          0.1000000E-03 e    :
          :  Broyden damping             0.4000000          :
          ...................................................

 iter      E             dE          RMSdq      gap      omega  full diag
   1    -30.9980744 -0.309981E+02  0.432E-05    9.09       0.0  T
   2    -30.9980744 -0.645528E-11  0.336E-05    9.09     594.9  T
   3    -30.9980744 -0.722622E-11  0.241E-05    9.09     831.2  T

   *** convergence criteria satisfied after 3 iterations ***

         #    Occupation            Energy/Eh            Energy/eV
      -------------------------------------------------------------
         1        2.0000           -1.0158881             -27.6437
       ...           ...                  ...                  ...
        22        2.0000           -0.4371771             -11.8962
        23        2.0000           -0.4228594             -11.5066
        24        2.0000           -0.4189820             -11.4011
        25        2.0000           -0.4140515             -11.2669
        26        2.0000           -0.3967911             -10.7972
        27        2.0000           -0.3928564             -10.6902
        28        2.0000           -0.3921102             -10.6699 (HOMO)
        29                         -0.0578883              -1.5752 (LUMO)
        30                          0.0208098               0.5663
        31                          0.0524001               1.4259
        32                          0.0676022               1.8395
        33                          0.0688613               1.8738
       ...                                ...                  ...
        57                          0.3142222               8.5504
      -------------------------------------------------------------
                  HL-Gap            0.3342219 Eh            9.0946 eV
             Fermi-level           -0.2249993 Eh           -6.1225 eV

 SCC (total)                   0 d,  0 h,  0 min,  0.007 sec
 SCC setup                      ...        0 min,  0.000 sec (  1.204%)
 Dispersion                     ...        0 min,  0.000 sec (  2.181%)
 classical contributions        ...        0 min,  0.000 sec (  0.390%)
 integral evaluation            ...        0 min,  0.001 sec ( 13.447%)
 iterations                     ...        0 min,  0.003 sec ( 47.341%)
 molecular gradient             ...        0 min,  0.002 sec ( 32.585%)
 printout                       ...        0 min,  0.000 sec (  1.608%)

         :::::::::::::::::::::::::::::::::::::::::::::::::::::
         ::                     SUMMARY                     ::
         :::::::::::::::::::::::::::::::::::::::::::::::::::::
         :: total energy             -30.639233832474 Eh    ::
         :: gradient norm              0.000414928598 Eh/a0 ::
         :: HOMO-LUMO gap              9.094641728536 eV    ::
         ::.................................................::
         :: SCC energy               -30.998074449702 Eh    ::
         :: -> isotropic ES            0.029151054083 Eh    ::
         :: -> anisotropic ES         -0.002181425776 Eh    ::
         :: -> anisotropic XC          0.012184077886 Eh    ::
         :: -> dispersion             -0.019049783907 Eh    ::
         :: repulsion energy           0.358646308225 Eh    ::
         :: add. restraining           0.000000000000 Eh    ::
         :: total charge               0.000000000000 e     ::
         :::::::::::::::::::::::::::::::::::::::::::::::::::::

           -------------------------------------------------
          |                Property Printout                |
           -------------------------------------------------

    * Orbital Energies and Occupations

         #    Occupation            Energy/Eh            Energy/eV
      -------------------------------------------------------------
         1        2.0000           -1.0158881             -27.6437
       ...           ...                  ...                  ...
        16        2.0000           -0.4923560             -13.3977
        17        2.0000           -0.4840956             -13.1729
        18        2.0000           -0.4674303             -12.7194
        19        2.0000           -0.4649776             -12.6527
        20        2.0000           -0.4598558             -12.5133
        21        2.0000           -0.4411257             -12.0036
        22        2.0000           -0.4371771             -11.8962
        23        2.0000           -0.4228594             -11.5066
        24        2.0000           -0.4189820             -11.4011
        25        2.0000           -0.4140515             -11.2669
        26        2.0000           -0.3967911             -10.7972
        27        2.0000           -0.3928564             -10.6902
        28        2.0000           -0.3921102             -10.6699 (HOMO)
        29                         -0.0578883              -1.5752 (LUMO)
        30                          0.0208098               0.5663
        31                          0.0524001               1.4259
        32                          0.0676022               1.8395
        33                          0.0688613               1.8738
        34                          0.0724445               1.9713
        35                          0.0744423               2.0257
        36                          0.0747784               2.0348
        37                          0.0814080               2.2152
        38                          0.1033521               2.8124
        39                          0.1070635               2.9133
       ...                                ...                  ...
        57                          0.3142222               8.5504
      -------------------------------------------------------------
                  HL-Gap            0.3342219 Eh            9.0946 eV
             Fermi-level           -0.2249993 Eh           -6.1225 eV

     #   Z          covCN         q      C6AA      α(0)
     1   7 N        2.701    -0.304    27.833     7.835
     2   6 C        3.732     0.005    20.587     6.476
     3   6 C        3.856    -0.025    20.981     6.515
     4   6 C        3.807    -0.060    21.645     6.623
     5   6 C        3.806    -0.055    21.558     6.610
     6   6 C        3.806    -0.058    21.613     6.618
     7   6 C        3.806    -0.055    21.565     6.611
     8   6 C        3.808    -0.073    21.881     6.659
     9  17 Cl       0.836    -0.489   115.293    16.426
    10   1 H        0.860     0.166     1.298     1.785
    11   1 H        0.908     0.331     0.623     1.235
    12   1 H        0.860     0.171     1.269     1.765
    13   1 H        0.924     0.049     2.330     2.387
    14   1 H        0.923     0.021     2.715     2.577
    15   1 H        0.924     0.037     2.483     2.464
    16   1 H        0.924     0.023     2.692     2.566
    17   1 H        0.924     0.036     2.500     2.473
    18   1 H        0.924     0.031     2.577     2.511
    19   1 H        0.924     0.028     2.617     2.530
    20   1 H        0.924     0.028     2.616     2.529
    21   1 H        0.924     0.036     2.501     2.473
    22   1 H        0.924     0.029     2.603     2.523
    23   1 H        0.924     0.033     2.544     2.494
    24   1 H        0.924     0.035     2.510     2.478
    25   1 H        0.925     0.060     2.197     2.318

 Mol. C6AA /au·bohr⁶  :       5187.033685
 Mol. C8AA /au·bohr⁸  :     122740.658066
 Mol. α(0) /au        :        107.480371


Wiberg/Mayer (AO) data.
largest (>0.10) Wiberg bond orders for each atom

 ---------------------------------------------------------------------------
     #   Z sym  total        # sym  WBO       # sym  WBO       # sym  WBO
 ---------------------------------------------------------------------------
     1   7 N    3.243 --     2 C    1.003    10 H    0.959    12 H    0.952
                            11 H    0.214
     2   6 C    3.974 --     1 N    1.003     3 C    0.993    13 H    0.974
                            14 H    0.972
     3   6 C    3.993 --     8 C    0.998     4 C    0.997     2 C    0.993
                            15 H    0.964
     4   6 C    3.998 --     5 C    1.007     3 C    0.997    16 H    0.977
                            17 H    0.972
     5   6 C    3.998 --     6 C    1.009     4 C    1.007    19 H    0.978
                            18 H    0.977
     6   6 C    3.998 --     5 C    1.009     7 C    1.009    20 H    0.978
                            21 H    0.977
     7   6 C    3.998 --     6 C    1.009     8 C    1.008    22 H    0.977
                            23 H    0.977
     8   6 C    3.994 --     7 C    1.008     3 C    0.998    24 H    0.976
                            25 H    0.970
     9  17 Cl   0.765 --    11 H    0.670
    10   1 H    0.972 --     1 N    0.959
    11   1 H    0.890 --     9 Cl   0.670     1 N    0.214
    12   1 H    0.971 --     1 N    0.952
    13   1 H    0.997 --     2 C    0.974
    14   1 H    0.999 --     2 C    0.972
    15   1 H    0.999 --     3 C    0.964
    16   1 H    0.999 --     4 C    0.977
    17   1 H    0.999 --     4 C    0.972
    18   1 H    0.999 --     5 C    0.977
    19   1 H    0.999 --     5 C    0.978
    20   1 H    0.999 --     6 C    0.978
    21   1 H    0.999 --     6 C    0.977
    22   1 H    0.999 --     7 C    0.977
    23   1 H    0.999 --     7 C    0.977
    24   1 H    0.999 --     8 C    0.976
    25   1 H    0.996 --     8 C    0.970
 ---------------------------------------------------------------------------

Topologies differ in total number of bonds
Writing topology from bond orders to xtbtopo.mol

molecular dipole:
                 x           y           z       tot (Debye)
 q only:        1.706      -0.395      -0.760
   full:        1.527      -0.313      -0.910       4.588
molecular quadrupole (traceless):
                xx          xy          yy          xz          yz          zz
 q only:       -1.440       0.482       1.036       2.945      -1.502       0.404
  q+dip:        1.460       0.206      -0.827       0.089      -0.175      -0.634
   full:        1.154      -0.056      -0.725       0.020      -0.466      -0.430

           -------------------------------------------------
          |                Geometry Summary                 |
           -------------------------------------------------

      molecular mass/u    :      149.6618441
   center of mass at/Å    :        1.5004945      -1.1517447       1.2726347
  moments of inertia/u·Å² :        0.2880852E+03   0.7168559E+03   0.8594605E+03
rotational constants/cm⁻¹ :        0.5851614E-01   0.2351607E-01   0.1961420E-01

 * 23 selected distances

     #   Z          #   Z                                           value/Å
     1   7 N        2   6 C                                       1.4642667
     2   6 C        3   6 C                                       1.5332377 (max)
     3   6 C        4   6 C                                       1.5302080
     4   6 C        5   6 C                                       1.5265019
     5   6 C        6   6 C                                       1.5255157
     6   6 C        7   6 C                                       1.5254039
     3   6 C        8   6 C                                       1.5283042
     7   6 C        8   6 C                                       1.5263262
     1   7 N       10   1 H                                       1.0146196 (min)
     1   7 N       12   1 H                                       1.0148078
     2   6 C       13   1 H                                       1.0929890
     2   6 C       14   1 H                                       1.1005285
     3   6 C       15   1 H                                       1.0969371
     4   6 C       16   1 H                                       1.0934225
     4   6 C       17   1 H                                       1.0920535
     5   6 C       18   1 H                                       1.0927110
     5   6 C       19   1 H                                       1.0922474
     6   6 C       20   1 H                                       1.0918902
     6   6 C       21   1 H                                       1.0921572
     7   6 C       22   1 H                                       1.0930590
     7   6 C       23   1 H                                       1.0912891
     8   6 C       24   1 H                                       1.0911952
     8   6 C       25   1 H                                       1.0890294

 * 4 distinct bonds (by element types)

   Z      Z             #   av. dist./Å        max./Å        min./Å
   1 H    6 C          13     1.0930392     1.1005285     1.0890294
   6 C    6 C           7     1.5279282     1.5332377     1.5254039
   1 H    7 N           2     1.0147137     1.0148078     1.0146196
   6 C    7 N           1     1.4642667     1.4642667     1.4642667


optimized geometry written to: xtbopt.xyz


           -------------------------------------------------
          | TOTAL ENERGY              -30.639233832474 Eh   |
          | GRADIENT NORM               0.000414928598 Eh/α |
          | HOMO-LUMO GAP               9.094641728536 eV   |
           -------------------------------------------------

------------------------------------------------------------------------
 * finished run on 2023/01/23 at 18:57:16.758     
------------------------------------------------------------------------
 total:
 * wall-time:     0 d,  0 h,  0 min,  0.704 sec
 *  cpu-time:     0 d,  0 h,  1 min,  1.135 sec
 * ratio c/w:    86.829 speedup
 SCF:
 * wall-time:     0 d,  0 h,  0 min,  0.031 sec
 *  cpu-time:     0 d,  0 h,  0 min,  4.042 sec
 * ratio c/w:   130.284 speedup
 ANC optimizer:
 * wall-time:     0 d,  0 h,  0 min,  0.654 sec
 *  cpu-time:     0 d,  0 h,  0 min, 54.725 sec
 * ratio c/w:    83.722 speedup

