25
 energy: -30.639233832474 gnorm: 0.000414928598 xtb: 6.5.1 (fef0646)
N            1.26581860875654       -0.12009103305030       -0.57551215993206
C            2.56579395477107        0.04355309072428        0.07821659351749
C            2.84059722224941       -1.01600094088619        1.15183000983881
C            2.80559738281420       -2.43934272070605        0.59110792353753
C            3.20267320914538       -3.44187866970883        1.67159864656595
C            2.26191132378502       -3.33089773725486        2.86736117404041
C            2.27221218933627       -1.91035695648865        3.42307181185700
C            1.88325517464886       -0.90946274290453        2.33836244273951
Cl          -1.23776297329627        0.30705121842389        0.87836607290760
H            1.15369346915664        0.57836775555335       -1.30286079233405
H           -0.01640871595695        0.09645375116698        0.27116600449032
H            1.19797767089737       -1.03766828008572       -1.00362929987724
H            2.56920116924063        1.03196072659145        0.54476066760618
H            3.38330395994127        0.01273097970821       -0.65791531906638
H            3.85710193420366       -0.82278850225728        1.51605241800341
H            3.48455854091252       -2.52409712325361       -0.26177013741603
H            1.79485200140841       -2.67882776513118        0.25403016383623
H            4.22732031671751       -3.24258721224227        1.99470584051690
H            3.17184429125968       -4.45515462453612        1.26499611444496
H            2.56236975605355       -4.03817561678721        3.64305872492847
H            1.24750971172480       -3.58731064085181        2.55423359092926
H            3.27192735775221       -1.67535985331791        3.79740292579153
H            1.57572539356567       -1.83434053417028        4.25975532328288
H            1.90915636048105        0.10378217224511        2.74255372503743
H            0.86518069043531       -1.11075874077948        2.00822753475475
