41
 energy: -42.484460039318 gnorm: 0.000194926976 xtb: 6.5.1 (fef0646)
N            0.82766791278621        0.00166744836159       -0.01363408111786
C            2.32719925151531        0.00394409070543       -0.02800700357507
C            2.84664125429567       -0.11367893002858       -1.45243607750086
C            4.37797021030163       -0.11372022275401       -1.47722670083622
C            4.91530776149391       -0.22981688350497       -2.90267912310698
C            6.44207987669926       -0.23177762500882       -2.93230411689100
C            6.98254951884525       -0.34617375659331       -4.35574763597197
C            8.50896322630538       -0.34866701269696       -4.38762973789122
C            9.05035682831441       -0.46259733836069       -5.81046433539077
C           10.57671383105896       -0.46534863003082       -5.84522713366466
C           11.11523108803203       -0.57929661838383       -7.26911942876210
C           12.64136698739171       -0.58259559715621       -7.31048716875358
C           13.16759361684071       -0.69664893368566       -8.73574842822831
H            0.45829315960441        0.08071809632320        0.94207296380201
H            0.47916256104345       -0.87003791844480       -0.43441496985457
H            0.47529464190394        0.78976893690214       -0.57319915237680
H            2.67853102560738       -0.83391209555719        0.57562852476507
H            2.67444154141635        0.93183832654594        0.42833546230999
H            2.48591052282537        0.72400326492235       -2.05276194882825
H            2.48828368636531       -1.03990085201789       -1.90622993647080
H            4.75170200566578       -0.94918061570867       -0.88336159719855
H            4.74944512241693        0.80822911553257       -1.02738284571822
H            4.54600004473759        0.60610152539557       -3.50023084762902
H            4.54653052493886       -1.15170973718326       -3.35692157026827
H            6.81495019429807       -1.06805151921156       -2.33731359281806
H            6.81447292204987        0.68909618952194       -2.47874044973134
H            6.61126078389702        0.49014535941414       -4.95227755355160
H            6.61132339534206       -1.26704152073303       -4.81107740589966
H            8.88156340594010       -1.18510880368706       -3.79199311369760
H            8.88148783364868        0.57195340041905       -3.93272943005696
H            8.67804456591263        0.37382984094139       -6.40660076530606
H            8.67807481634658       -1.38323896239660       -6.26590861164227
H           10.95026560044492       -1.30181570050421       -5.24980344569417
H           10.95022878970549        0.45518991985828       -5.39042661294884
H           10.74140927295942        0.25734758999932       -7.86423057250953
H           10.74142186306271       -1.49994221389851       -7.72359895816231
H           13.01653148355445       -1.41940868900962       -6.71688877765512
H           13.01651898485677        0.33797464909893       -6.85752415816367
H           12.82061942889031       -1.61820716239951       -9.19813226998263
H           14.25477638784288       -0.69728698988442       -8.74376450040270
H           12.82061407084222        0.13964657489830       -9.33880289261949
