 Entering Gaussian System
 *********************************************
 Gaussian 98:
 frequency output generated by the xtb code
 *********************************************
                         Standard orientation:
 --------------------------------------------------------------------
  Center     Atomic     Atomic              Coordinates (Angstroms)
  Number     Number      Type              X           Y           Z
 --------------------------------------------------------------------
    1          7             0        3.959412    1.404237   -1.607076
    2          6             0        2.626032    1.028935   -1.055811
    3          6             0        2.575796   -0.426695   -0.605388
    4          6             0        1.247356   -0.808867   -0.023423
    5          6             0        0.223690   -1.268013   -0.840349
    6          6             0       -1.010079   -1.578305   -0.314844
    7          6             0        0.999691   -0.658433    1.334078
    8          6             0       -0.233169   -0.966826    1.863993
    9          6             0       -1.259874   -1.427902    1.045527
   10          7             0       -2.522424   -1.701914    1.573442
   11          7             0       -3.571892   -1.174629    1.157325
   12          6             0       -3.598290   -0.148991    0.210603
   13          6             0       -2.867754    1.019696    0.407328
   14          6             0       -2.869892    2.016804   -0.542314
   15          6             0       -3.605487    1.866376   -1.701931
   16          6             0       -4.340413    0.714869   -1.907996
   17          6             0       -4.338855   -0.285009   -0.960624
   18         17             0        6.268207    0.685939    0.943107
   19          1             0        3.999176    2.393706   -1.885668
   20          1             0        4.191326    0.831904   -2.429026
   21          1             0        4.696194    1.241874   -0.900069
   22          1             0        1.846720    1.211827   -1.804729
   23          1             0        2.376908    1.681997   -0.211401
   24          1             0        3.364418   -0.613507    0.131259
   25          1             0        2.808290   -1.084957   -1.448728
   26          1             0        0.402426   -1.373396   -1.897019
   27          1             0       -1.803754   -1.928012   -0.951640
   28          1             0        1.784596   -0.289436    1.972464
   29          1             0       -0.423704   -0.843743    2.915843
   30          1             0       -2.292840    1.125414    1.310746
   31          1             0       -2.295166    2.914382   -0.381377
   32          1             0       -3.606185    2.646955   -2.445152
   33          1             0       -4.914607    0.597701   -2.812634
   34          1             0       -4.903091   -1.188086   -1.115681
 --------------------------------------------------------------------
     1 basis functions        1 primitive gaussians
     1 alpha electrons        1 beta electrons

 Harmonic frequencies (cm**-1), IR intensities (km*mol⁻¹),
 Raman scattering activities (A**4/amu), Raman depolarization ratios,
 reduced masses (AMU), force constants (mDyne/A) and normal coordinates:
                      1                      2                      3
                        a                      a                      a 
 Frequencies --   -46.5019               -41.9322               -29.4377
 Red. masses --    11.2854                21.4437                10.4227
 Frc consts  --     0.0000                 0.0000                 0.0000
 IR Inten    --    13.8454                85.1657                 7.1634
 Raman Activ --     0.0000                 0.0000                 0.0000
 Depolar     --     0.0000                 0.0000                 0.0000
 Atom AN      X      Y      Z        X      Y      Z        X      Y      Z
   1   7     0.13   0.01   0.21     0.24  -0.07   0.38     0.06  -0.09  -0.04
   2   6     0.10   0.01   0.14     0.17  -0.03   0.23     0.05  -0.04  -0.02
   3   6     0.06  -0.01   0.06     0.03  -0.09   0.02     0.05  -0.00   0.11
   4   6     0.04  -0.02   0.03     0.01  -0.05   0.00     0.03   0.03   0.08
   5   6    -0.00   0.17  -0.02     0.04  -0.15   0.03    -0.05   0.35   0.00
   6   6    -0.01   0.17  -0.04     0.03  -0.13   0.03    -0.06   0.36  -0.03
   7   6     0.08  -0.21   0.06    -0.03   0.10  -0.02     0.09  -0.26   0.12
   8   6     0.07  -0.21   0.04    -0.04   0.13  -0.02     0.08  -0.26   0.09
   9   6     0.02  -0.01  -0.01    -0.00   0.00   0.00    -0.00   0.05   0.02
  10   7     0.02   0.04   0.00    -0.01  -0.01  -0.01     0.01   0.04   0.03
  11   7     0.02   0.07   0.03    -0.00  -0.01  -0.03    -0.00   0.02   0.02
  12   6    -0.01   0.03   0.00     0.02  -0.00  -0.02    -0.03   0.01   0.00
  13   6     0.21  -0.06  -0.22    -0.05   0.03   0.06    -0.24   0.12   0.09
  14   6     0.17  -0.12  -0.28    -0.04   0.06   0.10    -0.25   0.10   0.06
  15   6    -0.09  -0.08  -0.12     0.04   0.06   0.04    -0.04  -0.05  -0.05
  16   6    -0.32   0.03   0.11     0.13   0.02  -0.05     0.17  -0.16  -0.14
  17   6    -0.28   0.09   0.17     0.12  -0.01  -0.08     0.17  -0.14  -0.11
  18  17    -0.16   0.07  -0.14    -0.45   0.10  -0.48    -0.05  -0.02  -0.15
  19   1     0.04   0.01   0.07     0.09  -0.01   0.13     0.02  -0.03  -0.02
  20   1     0.04   0.01   0.05     0.07  -0.00   0.09     0.02  -0.04  -0.00
  21   1     0.03  -0.01   0.06     0.05  -0.05   0.12     0.02  -0.02  -0.01
  22   1     0.03   0.02   0.04     0.06   0.04   0.06     0.02  -0.03  -0.01
  23   1     0.02  -0.01   0.05     0.05  -0.04   0.09     0.01   0.01  -0.02
  24   1     0.01  -0.02   0.02     0.01  -0.07  -0.01     0.01   0.02   0.04
  25   1     0.01   0.01   0.01    -0.01   0.00  -0.02     0.03  -0.02   0.05
  26   1    -0.01   0.09  -0.01     0.02  -0.07   0.01    -0.03   0.17  -0.01
  27   1    -0.01   0.09  -0.02     0.02  -0.06   0.01    -0.03   0.17  -0.03
  28   1     0.04  -0.11   0.03    -0.02   0.05  -0.01     0.05  -0.15   0.05
  29   1     0.03  -0.11   0.02    -0.02   0.07  -0.01     0.04  -0.15   0.04
  30   1     0.12  -0.03  -0.10    -0.04   0.01   0.03    -0.11   0.06   0.05
  31   1     0.10  -0.06  -0.13    -0.03   0.02   0.05    -0.12   0.05   0.04
  32   1    -0.04  -0.04  -0.05     0.01   0.02   0.02    -0.01  -0.02  -0.02
  33   1    -0.15   0.02   0.07     0.06   0.00  -0.03     0.10  -0.08  -0.07
  34   1    -0.13   0.05   0.10     0.05  -0.01  -0.04     0.10  -0.07  -0.05
                      4                      5                      6
                        a                      a                      a 
 Frequencies --    20.6982                29.5632                38.5172
 Red. masses --    14.8150                16.9133                21.0517
 Frc consts  --     0.0000                 0.0000                 0.0000
 IR Inten    --     1.9837                 9.2692                18.9505
 Raman Activ --     0.0000                 0.0000                 0.0000
 Depolar     --     0.0000                 0.0000                 0.0000
 Atom AN      X      Y      Z        X      Y      Z        X      Y      Z
   1   7    -0.20  -0.03  -0.17    -0.04   0.18   0.06     0.07  -0.11  -0.27
   2   6    -0.17  -0.05  -0.12    -0.05   0.12   0.00     0.06  -0.08  -0.25
   3   6    -0.04   0.02   0.12    -0.10   0.02  -0.32     0.16   0.02   0.06
   4   6    -0.04  -0.03   0.10    -0.05   0.00  -0.22     0.15   0.03   0.04
   5   6    -0.03   0.02   0.05    -0.13   0.02  -0.12     0.18   0.01   0.02
   6   6    -0.03  -0.01   0.02    -0.08   0.04   0.01     0.16   0.01  -0.01
   7   6    -0.05  -0.14   0.11     0.10  -0.02  -0.19     0.10   0.07   0.03
   8   6    -0.06  -0.17   0.07     0.15  -0.00  -0.06     0.09   0.06  -0.00
   9   6    -0.05  -0.10   0.02     0.05   0.03   0.03     0.12   0.03  -0.02
  10   7    -0.09  -0.09  -0.02     0.09   0.11   0.17     0.13  -0.01  -0.06
  11   7    -0.05  -0.01  -0.03     0.08   0.12   0.21     0.12  -0.05  -0.06
  12   6     0.06   0.03   0.01     0.07   0.04   0.11     0.05  -0.02  -0.02
  13   6     0.18  -0.06   0.05     0.05   0.06   0.03     0.02   0.00  -0.01
  14   6     0.36  -0.06   0.05     0.09  -0.03  -0.06    -0.11   0.06   0.05
  15   6     0.41   0.03   0.01     0.16  -0.15  -0.09    -0.20   0.11   0.11
  16   6     0.26   0.13  -0.02     0.16  -0.17  -0.01    -0.15   0.07   0.08
  17   6     0.08   0.13  -0.02     0.11  -0.07   0.09    -0.02   0.01   0.02
  18  17    -0.31   0.25  -0.11    -0.39  -0.20   0.25    -0.60  -0.12   0.22
  19   1    -0.07  -0.01  -0.07    -0.01   0.06   0.05     0.01  -0.04  -0.10
  20   1    -0.04  -0.03  -0.03    -0.01   0.08  -0.01     0.03  -0.05  -0.05
  21   1    -0.05   0.02  -0.04    -0.02   0.02   0.01     0.01  -0.00  -0.06
  22   1    -0.05  -0.07  -0.05    -0.02   0.09   0.02     0.02  -0.08  -0.09
  23   1    -0.07   0.02  -0.07     0.00  -0.02   0.04    -0.01   0.02  -0.11
  24   1    -0.02   0.06   0.05    -0.01  -0.06  -0.13     0.04   0.07   0.04
  25   1     0.02  -0.03   0.07    -0.08   0.05  -0.14     0.08  -0.04   0.06
  26   1    -0.00   0.03   0.01    -0.07   0.01  -0.04     0.06  -0.01   0.01
  27   1    -0.01   0.01  -0.01    -0.04   0.01   0.02     0.05  -0.00  -0.01
  28   1    -0.02  -0.05   0.04     0.05  -0.02  -0.08     0.02   0.03   0.01
  29   1    -0.02  -0.07   0.02     0.08  -0.00  -0.01     0.01   0.02  -0.00
  30   1     0.04  -0.04   0.02     0.00   0.04   0.01     0.03  -0.01  -0.01
  31   1     0.13  -0.04   0.02     0.02  -0.00  -0.03    -0.04   0.02   0.02
  32   1     0.16   0.01  -0.00     0.06  -0.07  -0.05    -0.09   0.05   0.05
  33   1     0.08   0.06  -0.01     0.06  -0.07  -0.01    -0.06   0.03   0.03
  34   1    -0.01   0.06  -0.01     0.04  -0.03   0.04     0.01  -0.00   0.00
                      7                      8                      9
                        a                      a                      a 
 Frequencies --    40.9936                79.8618               143.9622
 Red. masses --    20.4692                11.2305                10.2877
 Frc consts  --     0.0000                 0.0000                 0.0000
 IR Inten    --    27.6123                 7.8498                 8.7653
 Raman Activ --     0.0000                 0.0000                 0.0000
 Depolar     --     0.0000                 0.0000                 0.0000
 Atom AN      X      Y      Z        X      Y      Z        X      Y      Z
   1   7     0.10  -0.26  -0.01    -0.35   0.23   0.05     0.10  -0.18  -0.12
   2   6     0.07  -0.24  -0.05    -0.22  -0.02   0.14     0.08   0.14   0.06
   3   6    -0.01  -0.27  -0.18     0.03  -0.06   0.03    -0.20   0.09  -0.12
   4   6    -0.02  -0.21  -0.15     0.10  -0.22   0.07    -0.17   0.16  -0.01
   5   6    -0.08  -0.12  -0.11     0.10  -0.25   0.08    -0.21   0.12   0.06
   6   6    -0.08  -0.03  -0.06     0.09  -0.18   0.08    -0.11  -0.04   0.18
   7   6     0.05  -0.20  -0.13     0.12  -0.22   0.08    -0.04   0.04   0.03
   8   6     0.05  -0.11  -0.08     0.10  -0.15   0.08     0.04  -0.09   0.15
   9   6    -0.01  -0.03  -0.04     0.08  -0.08   0.07     0.01  -0.12   0.21
  10   7    -0.01   0.05   0.01     0.04   0.12   0.06    -0.03  -0.05   0.18
  11   7     0.00   0.09   0.05     0.11   0.17  -0.04     0.08  -0.05  -0.11
  12   6    -0.01   0.08   0.05     0.13   0.08  -0.11     0.22  -0.13  -0.20
  13   6    -0.03   0.09   0.06     0.04   0.14  -0.13     0.22  -0.14  -0.17
  14   6    -0.06   0.10   0.07    -0.13   0.18  -0.10     0.02   0.01  -0.01
  15   6    -0.06   0.10   0.07    -0.19   0.15  -0.06    -0.17   0.17   0.09
  16   6    -0.03   0.08   0.06    -0.03   0.05  -0.08    -0.03   0.10  -0.03
  17   6     0.00   0.07   0.04     0.13   0.02  -0.11     0.19  -0.06  -0.19
  18  17     0.06   0.56   0.26    -0.01  -0.03  -0.09    -0.01   0.03   0.02
  19   1     0.03  -0.07  -0.01    -0.14   0.07   0.04     0.08  -0.06  -0.05
  20   1     0.04  -0.08   0.01    -0.10   0.10  -0.01    -0.04  -0.08  -0.03
  21   1     0.02  -0.05   0.01    -0.07   0.07  -0.01     0.04  -0.08  -0.05
  22   1     0.03  -0.04  -0.01    -0.09  -0.02   0.06     0.00   0.12   0.06
  23   1     0.03  -0.09   0.00    -0.07  -0.03   0.06     0.11   0.03   0.05
  24   1     0.00  -0.11  -0.07     0.03  -0.00  -0.01    -0.04  -0.05  -0.07
  25   1    -0.03  -0.06  -0.07     0.02   0.01  -0.01    -0.12   0.05  -0.07
  26   1    -0.04  -0.04  -0.03     0.03  -0.08   0.03    -0.09   0.05   0.01
  27   1    -0.04   0.01  -0.01     0.02  -0.05   0.03    -0.04  -0.03   0.07
  28   1     0.03  -0.07  -0.05     0.04  -0.07   0.02     0.00   0.01  -0.01
  29   1     0.03  -0.03  -0.02     0.03  -0.04   0.02     0.04  -0.04   0.05
  30   1    -0.01   0.03   0.01     0.03   0.05  -0.05     0.09  -0.06  -0.07
  31   1    -0.02   0.03   0.02    -0.06   0.07  -0.03    -0.00   0.01   0.01
  32   1    -0.03   0.03   0.02    -0.10   0.05  -0.00    -0.12   0.09   0.07
  33   1    -0.01   0.02   0.02    -0.01   0.00  -0.02    -0.03   0.05   0.00
  34   1     0.01   0.02   0.01     0.07  -0.01  -0.03     0.07  -0.02  -0.08
                     10                     11                     12
                        a                      a                      a 
 Frequencies --   147.0195               160.3231               211.3758
 Red. masses --     7.6877                10.8363                10.6151
 Frc consts  --     0.0000                 0.0000                 0.0000
 IR Inten    --    15.5047                 4.5476                 5.0508
 Raman Activ --     0.0000                 0.0000                 0.0000
 Depolar     --     0.0000                 0.0000                 0.0000
 Atom AN      X      Y      Z        X      Y      Z        X      Y      Z
   1   7    -0.16  -0.10  -0.38    -0.12   0.10   0.10    -0.24  -0.06   0.10
   2   6     0.16   0.08   0.49    -0.09  -0.17  -0.03    -0.13  -0.24   0.14
   3   6     0.07  -0.06   0.02     0.05  -0.21  -0.14     0.03  -0.22   0.13
   4   6     0.08  -0.05   0.03     0.09  -0.12  -0.01    -0.05  -0.03   0.00
   5   6     0.08  -0.00   0.00    -0.04   0.06   0.05    -0.06   0.22  -0.12
   6   6     0.05   0.06  -0.04    -0.04   0.27   0.13    -0.08   0.23  -0.17
   7   6     0.03  -0.01   0.02     0.18  -0.01  -0.00    -0.12   0.20  -0.04
   8   6    -0.00   0.06  -0.03     0.14   0.23   0.08    -0.13   0.22  -0.10
   9   6     0.01   0.08  -0.05     0.04   0.31   0.15    -0.00   0.03  -0.14
  10   7     0.01   0.01  -0.09     0.05   0.18   0.08     0.08  -0.14  -0.07
  11   7    -0.03  -0.04  -0.03    -0.06  -0.21  -0.18     0.12   0.00   0.04
  12   6    -0.08   0.01   0.02    -0.11  -0.19  -0.16     0.23   0.01   0.05
  13   6    -0.07  -0.00   0.04    -0.05  -0.25  -0.01     0.27   0.00  -0.06
  14   6     0.01  -0.03   0.02     0.07  -0.14   0.11     0.06   0.02  -0.04
  15   6     0.08  -0.05  -0.02     0.07   0.04   0.08    -0.15   0.01   0.09
  16   6     0.00  -0.00  -0.01    -0.03   0.13  -0.05     0.04  -0.11   0.08
  17   6    -0.08   0.03   0.02    -0.12  -0.00  -0.18     0.25  -0.12   0.06
  18  17    -0.08   0.03   0.02     0.01  -0.01  -0.01     0.00   0.00  -0.01
  19   1    -0.05  -0.02  -0.09    -0.07   0.04   0.06    -0.10  -0.01   0.04
  20   1    -0.22  -0.02  -0.16     0.01   0.06   0.01    -0.06  -0.00   0.02
  21   1     0.07  -0.07  -0.23    -0.04   0.03   0.03    -0.05  -0.00   0.01
  22   1    -0.09   0.15   0.31    -0.02  -0.06  -0.02    -0.06  -0.10   0.05
  23   1     0.27  -0.04   0.25    -0.07  -0.08   0.00    -0.06  -0.08   0.04
  24   1     0.04  -0.12  -0.04     0.04  -0.07  -0.07    -0.01  -0.05   0.06
  25   1    -0.04   0.06  -0.07    -0.02  -0.05  -0.06     0.02  -0.07   0.05
  26   1     0.03  -0.00   0.00    -0.03   0.01   0.01    -0.00   0.09  -0.03
  27   1     0.02   0.03  -0.02    -0.04   0.10   0.06    -0.03   0.09  -0.06
  28   1     0.01  -0.01   0.01     0.08  -0.03  -0.02    -0.04   0.07  -0.01
  29   1    -0.01   0.03  -0.01     0.07   0.10   0.02    -0.07   0.08  -0.04
  30   1    -0.03  -0.00   0.02    -0.03  -0.11   0.01     0.11   0.01  -0.04
  31   1     0.01  -0.01   0.01     0.04  -0.06   0.07     0.00   0.02  -0.03
  32   1     0.05  -0.02  -0.02     0.04   0.03   0.05    -0.12   0.02   0.04
  33   1     0.01   0.00  -0.01    -0.01   0.08  -0.02    -0.01  -0.05   0.04
  34   1    -0.04   0.01   0.01    -0.05   0.02  -0.09     0.10  -0.05   0.03
                     13                     14                     15
                        a                      a                      a 
 Frequencies --   261.8144               298.8068               322.7885
 Red. masses --    11.5414                 7.3498                 4.8812
 Frc consts  --     0.0000                 0.0000                 0.0000
 IR Inten    --     8.9231                15.0403                 8.0628
 Raman Activ --     0.0000                 0.0000                 0.0000
 Depolar     --     0.0000                 0.0000                 0.0000
 Atom AN      X      Y      Z        X      Y      Z        X      Y      Z
   1   7     0.05   0.05  -0.06     0.17   0.37  -0.18    -0.09  -0.29   0.11
   2   6     0.07   0.06   0.04     0.26  -0.17  -0.14    -0.20   0.03  -0.04
   3   6     0.10   0.09   0.19     0.13  -0.18  -0.05    -0.09   0.09   0.08
   4   6     0.01  -0.04  -0.07     0.04   0.02   0.05    -0.05   0.04   0.01
   5   6     0.04  -0.10  -0.10    -0.04   0.05   0.10     0.04  -0.01  -0.06
   6   6    -0.03  -0.02  -0.16    -0.04  -0.02   0.08     0.04   0.00  -0.08
   7   6    -0.06  -0.09  -0.08    -0.08  -0.01   0.04     0.01   0.09   0.00
   8   6    -0.08  -0.06  -0.15    -0.11  -0.01   0.02     0.07  -0.05   0.00
   9   6    -0.11   0.06  -0.18    -0.13  -0.08   0.07     0.11  -0.01  -0.07
  10   7    -0.01   0.40   0.24    -0.19  -0.11   0.01     0.17   0.10   0.04
  11   7    -0.12   0.25   0.33    -0.13   0.02   0.03     0.14   0.02   0.03
  12   6    -0.10  -0.14  -0.08    -0.00   0.04   0.04     0.00  -0.06  -0.06
  13   6     0.07  -0.25  -0.05     0.07   0.00  -0.03    -0.10  -0.01   0.02
  14   6     0.09  -0.14   0.09     0.02   0.01  -0.03    -0.02  -0.01   0.02
  15   6    -0.09   0.06   0.19    -0.07   0.02   0.02     0.08  -0.01  -0.03
  16   6     0.03   0.01  -0.01     0.03  -0.03  -0.01    -0.04   0.05   0.00
  17   6     0.08  -0.16  -0.18     0.06  -0.02   0.00    -0.06   0.02  -0.03
  18  17    -0.00  -0.00  -0.00    -0.01   0.01   0.01     0.01   0.04   0.01
  19   1     0.00   0.01  -0.04     0.01   0.20   0.31     0.20   0.03   0.44
  20   1     0.01  -0.00  -0.01    -0.03   0.40  -0.28    -0.22   0.21  -0.23
  21   1     0.02   0.03  -0.02     0.10  -0.13  -0.16    -0.01  -0.51  -0.08
  22   1     0.01  -0.01   0.01     0.06  -0.05  -0.03    -0.04   0.01  -0.03
  23   1     0.03   0.04  -0.01     0.05  -0.07  -0.02    -0.06   0.03  -0.03
  24   1    -0.02   0.07   0.11     0.04  -0.07  -0.02    -0.04   0.08   0.05
  25   1     0.12   0.01   0.09     0.00  -0.08   0.00     0.02   0.01   0.05
  26   1     0.03  -0.05  -0.02    -0.02   0.02   0.03     0.03  -0.01  -0.01
  27   1     0.00  -0.01  -0.06     0.00  -0.01   0.00     0.00   0.00  -0.01
  28   1    -0.02  -0.04  -0.01    -0.04  -0.01   0.03     0.01   0.04  -0.01
  29   1    -0.03  -0.03  -0.04    -0.02   0.01   0.01     0.01  -0.04   0.00
  30   1     0.03  -0.12  -0.02     0.03   0.00  -0.02    -0.05  -0.00   0.02
  31   1     0.05  -0.06   0.04     0.01   0.00  -0.02    -0.01  -0.01   0.02
  32   1    -0.07   0.06   0.10    -0.05   0.02   0.02     0.05  -0.01  -0.02
  33   1     0.02   0.03  -0.01     0.01  -0.02  -0.00    -0.02   0.03   0.01
  34   1     0.04  -0.05  -0.09     0.03  -0.01   0.00    -0.03   0.01  -0.02
                     16                     17                     18
                        a                      a                      a 
 Frequencies --   334.3479               348.8685               356.1976
 Red. masses --    10.0748                 8.8237                 8.9900
 Frc consts  --     0.0000                 0.0000                 0.0000
 IR Inten    --     3.1882                 7.6833                 1.0069
 Raman Activ --     0.0000                 0.0000                 0.0000
 Depolar     --     0.0000                 0.0000                 0.0000
 Atom AN      X      Y      Z        X      Y      Z        X      Y      Z
   1   7    -0.04   0.14  -0.04    -0.03   0.01   0.03    -0.01   0.01   0.00
   2   6     0.12  -0.19   0.10    -0.03  -0.09  -0.05     0.00  -0.04  -0.00
   3   6     0.12  -0.15   0.22    -0.09  -0.15  -0.29    -0.01  -0.04  -0.04
   4   6    -0.11   0.10  -0.14     0.06   0.14   0.23    -0.00   0.05   0.03
   5   6    -0.15   0.14  -0.13     0.21  -0.02   0.15     0.06  -0.09   0.03
   6   6    -0.04  -0.10   0.03     0.07   0.13  -0.15    -0.02   0.11  -0.05
   7   6    -0.08   0.22  -0.16    -0.09   0.31   0.19    -0.06   0.18   0.01
   8   6     0.09  -0.11   0.01    -0.03  -0.26   0.03     0.03  -0.16   0.02
   9   6     0.12  -0.29   0.08     0.02  -0.14  -0.13     0.01  -0.03  -0.03
  10   7     0.12  -0.01   0.25     0.05   0.05   0.02     0.02   0.06   0.04
  11   7     0.19   0.03   0.07     0.03   0.12   0.17     0.01   0.04   0.01
  12   6     0.05  -0.13  -0.12    -0.06  -0.04  -0.03    -0.00  -0.03  -0.04
  13   6    -0.22   0.03   0.00    -0.16   0.00   0.04     0.29  -0.19  -0.18
  14   6    -0.08   0.02   0.00     0.10  -0.08  -0.04    -0.30   0.16   0.20
  15   6     0.17   0.01  -0.15     0.01   0.03  -0.00     0.02  -0.01   0.02
  16   6    -0.10   0.16  -0.02    -0.10   0.09   0.03     0.30  -0.16  -0.17
  17   6    -0.12   0.09  -0.06     0.07  -0.06  -0.11    -0.34   0.15   0.15
  18  17    -0.01  -0.01  -0.01     0.00  -0.00   0.00    -0.00  -0.00  -0.00
  19   1    -0.13   0.03  -0.06    -0.04  -0.01  -0.04    -0.02   0.00  -0.01
  20   1     0.03   0.02   0.01     0.04  -0.03   0.04     0.01   0.00   0.01
  21   1     0.02   0.14  -0.02    -0.02   0.06   0.03    -0.00   0.02   0.00
  22   1     0.01  -0.10   0.04    -0.01   0.02  -0.01    -0.00  -0.00   0.00
  23   1     0.02  -0.05   0.02    -0.01  -0.07   0.02     0.00  -0.02   0.01
  24   1    -0.04  -0.02   0.15     0.07  -0.14  -0.21     0.01  -0.03  -0.03
  25   1     0.11  -0.08   0.11    -0.22  -0.02  -0.15    -0.04  -0.01  -0.02
  26   1    -0.07   0.06  -0.04     0.13  -0.03   0.06     0.04  -0.06   0.02
  27   1    -0.03  -0.04   0.03     0.04   0.09  -0.09    -0.01   0.07  -0.03
  28   1    -0.02   0.12  -0.07    -0.08   0.15   0.08    -0.04   0.10   0.00
  29   1     0.05  -0.04   0.01    -0.05  -0.17   0.01     0.01  -0.10   0.01
  30   1    -0.10   0.02   0.03    -0.08   0.00   0.03     0.18  -0.11  -0.11
  31   1    -0.03   0.00   0.03     0.07  -0.05  -0.02    -0.19   0.10   0.12
  32   1     0.11  -0.02  -0.07     0.01   0.01   0.00     0.01  -0.00   0.01
  33   1    -0.06   0.07   0.01    -0.06   0.05   0.02     0.19  -0.09  -0.11
  34   1    -0.07   0.05  -0.04     0.05  -0.03  -0.07    -0.21   0.10   0.10
                     19                     20                     21
                        a                      a                      a 
 Frequencies --   362.2797               431.7564               448.5652
 Red. masses --     9.2947                10.9289                10.3712
 Frc consts  --     0.0000                 0.0000                 0.0000
 IR Inten    --     4.0079                 1.6451                 7.5621
 Raman Activ --     0.0000                 0.0000                 0.0000
 Depolar     --     0.0000                 0.0000                 0.0000
 Atom AN      X      Y      Z        X      Y      Z        X      Y      Z
   1   7    -0.05  -0.05   0.04     0.10   0.14  -0.07     0.06  -0.02  -0.01
   2   6    -0.05  -0.05  -0.02     0.10  -0.03  -0.04    -0.04   0.18  -0.05
   3   6    -0.03  -0.07  -0.13    -0.17  -0.04   0.03     0.08   0.11  -0.08
   4   6     0.05   0.09   0.12    -0.18   0.02   0.11     0.23  -0.38   0.07
   5   6    -0.01   0.45   0.00    -0.05  -0.11   0.01     0.05  -0.07   0.09
   6   6     0.19  -0.38  -0.04    -0.12  -0.03  -0.14    -0.11   0.26  -0.04
   7   6     0.10  -0.22   0.16    -0.08  -0.15   0.16    -0.04  -0.09  -0.00
   8   6    -0.13   0.25  -0.09    -0.15   0.03   0.03    -0.18   0.18  -0.13
   9   6     0.04  -0.14  -0.09    -0.03   0.21  -0.16    -0.10  -0.23   0.02
  10   7     0.04   0.06   0.04     0.14   0.25   0.01    -0.07  -0.19   0.25
  11   7     0.04   0.12   0.14     0.18   0.04  -0.26     0.05  -0.01   0.16
  12   6    -0.04  -0.05  -0.05     0.34  -0.06  -0.21     0.22  -0.18  -0.09
  13   6     0.00  -0.08  -0.06     0.06   0.06   0.13    -0.03  -0.02  -0.06
  14   6    -0.08   0.02   0.06    -0.06   0.05   0.15    -0.14   0.06   0.00
  15   6     0.03   0.01  -0.00     0.17  -0.24   0.03     0.14   0.02  -0.16
  16   6     0.06   0.00  -0.05    -0.17  -0.05   0.13    -0.06   0.11   0.04
  17   6    -0.12   0.03  -0.01    -0.02  -0.08   0.05     0.02   0.06   0.00
  18  17     0.00   0.00   0.00    -0.00  -0.00  -0.00     0.00   0.00   0.00
  19   1    -0.01  -0.01   0.00    -0.04   0.04  -0.02     0.08  -0.01  -0.01
  20   1     0.00  -0.02   0.02     0.05   0.05  -0.02    -0.00  -0.03   0.01
  21   1    -0.02  -0.00   0.02     0.04   0.07  -0.02    -0.00  -0.04   0.01
  22   1    -0.01   0.00  -0.00     0.03   0.01  -0.01     0.00   0.06  -0.02
  23   1    -0.02  -0.04   0.01     0.04  -0.00  -0.01    -0.00   0.06  -0.02
  24   1     0.04  -0.06  -0.10    -0.04  -0.04  -0.00     0.06   0.06  -0.06
  25   1    -0.10  -0.01  -0.07    -0.09  -0.02   0.01     0.04   0.07  -0.05
  26   1    -0.01   0.27  -0.01     0.04  -0.07   0.02    -0.02   0.05   0.01
  27   1     0.11  -0.21  -0.02    -0.03  -0.05  -0.02    -0.04   0.19  -0.07
  28   1     0.04  -0.15   0.08    -0.00  -0.10   0.06    -0.06   0.05   0.02
  29   1    -0.11   0.17  -0.05    -0.10  -0.04   0.00    -0.08   0.17  -0.06
  30   1     0.01  -0.05  -0.02    -0.05   0.03   0.08    -0.05   0.04   0.00
  31   1    -0.04   0.01   0.05    -0.10   0.06   0.05    -0.09   0.04   0.06
  32   1     0.02   0.00   0.00     0.08  -0.09  -0.01     0.06  -0.01  -0.06
  33   1     0.04   0.00  -0.03    -0.12   0.04   0.07    -0.08   0.05   0.05
  34   1    -0.07   0.03  -0.01    -0.04  -0.01   0.09    -0.06   0.05   0.00
                     22                     23                     24
                        a                      a                      a 
 Frequencies --   479.8688               529.2664               577.3362
 Red. masses --    11.7271                10.1659                11.2828
 Frc consts  --     0.0000                 0.0000                 0.0000
 IR Inten    --     0.8567                 0.5293                 1.4462
 Raman Activ --     0.0000                 0.0000                 0.0000
 Depolar     --     0.0000                 0.0000                 0.0000
 Atom AN      X      Y      Z        X      Y      Z        X      Y      Z
   1   7    -0.08  -0.10   0.06    -0.11  -0.08   0.06    -0.01  -0.00   0.01
   2   6    -0.07   0.01   0.02    -0.05  -0.06   0.03    -0.00  -0.02   0.00
   3   6     0.20   0.02  -0.07     0.17  -0.02  -0.05    -0.01  -0.01  -0.01
   4   6     0.20   0.01  -0.09     0.07   0.36  -0.10    -0.05   0.08  -0.07
   5   6     0.06   0.15   0.02     0.10   0.05   0.07     0.07  -0.04  -0.10
   6   6     0.12  -0.01   0.12     0.07  -0.05   0.03     0.13   0.09   0.09
   7   6    -0.00   0.13  -0.15     0.05   0.00  -0.09    -0.08  -0.08  -0.04
   8   6     0.06  -0.10  -0.07     0.02  -0.10  -0.17    -0.04   0.05   0.15
   9   6    -0.08  -0.20   0.12    -0.24   0.29  -0.05     0.01   0.10   0.06
  10   7    -0.32   0.12  -0.02    -0.16  -0.05   0.18    -0.06  -0.19  -0.18
  11   7    -0.14   0.29  -0.27    -0.21  -0.20   0.09     0.00   0.16   0.16
  12   6     0.13   0.13  -0.22     0.21  -0.15   0.05    -0.05  -0.11  -0.14
  13   6     0.11   0.06   0.17     0.07  -0.03  -0.04    -0.14   0.00  -0.36
  14   6     0.05   0.01   0.17    -0.17   0.02  -0.03     0.11   0.37   0.01
  15   6     0.05  -0.28   0.19     0.10   0.03  -0.20     0.18   0.04   0.07
  16   6    -0.15  -0.13   0.03    -0.06   0.10   0.07     0.10  -0.01   0.36
  17   6    -0.06  -0.14  -0.05     0.18   0.09   0.06    -0.13  -0.38  -0.03
  18  17     0.00   0.00   0.00     0.00   0.00  -0.00    -0.00   0.00   0.00
  19   1     0.03  -0.03   0.01    -0.00  -0.02   0.01    -0.01  -0.00   0.00
  20   1    -0.04  -0.04   0.02    -0.04  -0.03   0.02    -0.00  -0.00   0.00
  21   1    -0.03  -0.05   0.02    -0.03  -0.03   0.02    -0.00   0.00   0.00
  22   1    -0.03  -0.01   0.01    -0.03  -0.03   0.02    -0.00  -0.00   0.00
  23   1    -0.03  -0.01   0.01    -0.03  -0.03   0.02    -0.00  -0.01   0.00
  24   1     0.06   0.02  -0.02     0.04  -0.01  -0.01    -0.01  -0.01  -0.00
  25   1     0.07   0.02  -0.03     0.03  -0.01  -0.01    -0.01  -0.00  -0.00
  26   1    -0.04   0.08  -0.01     0.06  -0.14   0.04     0.01  -0.07  -0.02
  27   1     0.04   0.03  -0.00     0.11  -0.18  -0.01     0.03  -0.02   0.05
  28   1    -0.04   0.09  -0.03     0.03  -0.15   0.04     0.01  -0.08  -0.02
  29   1     0.06   0.02  -0.02     0.08  -0.18  -0.02     0.04  -0.03   0.06
  30   1    -0.02  -0.03   0.08    -0.03   0.08   0.01    -0.09  -0.04  -0.06
  31   1    -0.03   0.04   0.01    -0.12   0.04   0.05     0.01   0.10   0.08
  32   1     0.02  -0.08   0.05     0.02   0.01  -0.05    -0.04  -0.05  -0.04
  33   1    -0.06   0.03   0.01    -0.11   0.02   0.08     0.01   0.08   0.10
  34   1    -0.01  -0.06   0.07    -0.01   0.06   0.04    -0.09  -0.06  -0.04
                     25                     26                     27
                        a                      a                      a 
 Frequencies --   591.3367               618.2145               637.0891
 Red. masses --    11.5032                11.8418                10.6972
 Frc consts  --     0.0000                 0.0000                 0.0000
 IR Inten    --     0.5069                 0.7010                 7.2687
 Raman Activ --     0.0000                 0.0000                 0.0000
 Depolar     --     0.0000                 0.0000                 0.0000
 Atom AN      X      Y      Z        X      Y      Z        X      Y      Z
   1   7    -0.01  -0.01   0.00     0.00   0.01  -0.00     0.04   0.02  -0.02
   2   6    -0.00   0.01   0.01     0.02  -0.02   0.02     0.00   0.03  -0.01
   3   6     0.07   0.02   0.02    -0.06   0.01   0.07    -0.05  -0.00   0.02
   4   6     0.09  -0.00   0.09    -0.07   0.12   0.05     0.04  -0.30   0.07
   5   6    -0.15   0.04   0.29    -0.15  -0.11   0.24    -0.09   0.13  -0.04
   6   6    -0.30  -0.13  -0.12    -0.28   0.01  -0.04     0.02  -0.20  -0.01
   7   6     0.23   0.13   0.06     0.38   0.06   0.09    -0.01   0.17   0.03
   8   6     0.11  -0.06  -0.34     0.23   0.12  -0.20     0.10  -0.16   0.07
   9   6    -0.09  -0.07  -0.10     0.06  -0.02  -0.04     0.04   0.07  -0.03
  10   7     0.01   0.12   0.19    -0.07  -0.30  -0.27     0.03   0.21  -0.14
  11   7     0.01  -0.19  -0.24     0.02   0.28   0.24    -0.20  -0.13  -0.01
  12   6    -0.05  -0.03  -0.01    -0.05   0.07  -0.06    -0.20   0.06   0.19
  13   6    -0.15   0.12  -0.15     0.10  -0.09   0.01     0.19  -0.12  -0.16
  14   6     0.19   0.21  -0.09    -0.10  -0.03   0.11    -0.23   0.14   0.08
  15   6    -0.03   0.10   0.09     0.09  -0.12  -0.01     0.22  -0.06  -0.17
  16   6     0.18  -0.08   0.21    -0.17   0.06  -0.10    -0.17   0.12   0.22
  17   6    -0.13  -0.16   0.10     0.04  -0.03  -0.16     0.26  -0.11  -0.04
  18  17     0.00  -0.00  -0.00    -0.00   0.00  -0.00    -0.00  -0.00   0.00
  19   1     0.01  -0.00  -0.00    -0.02   0.00   0.00     0.01   0.01  -0.01
  20   1    -0.01  -0.01   0.00     0.00   0.01  -0.00     0.01   0.01  -0.01
  21   1    -0.00  -0.01   0.00     0.01   0.01  -0.01     0.01   0.01  -0.01
  22   1    -0.00  -0.01   0.00     0.00  -0.01   0.00     0.01   0.02  -0.01
  23   1    -0.00   0.01   0.00     0.01   0.00  -0.00     0.01   0.02  -0.01
  24   1     0.01   0.03   0.02    -0.05   0.01   0.06    -0.01   0.01   0.00
  25   1     0.04   0.00   0.01     0.01  -0.02   0.05     0.01   0.01   0.00
  26   1    -0.02   0.04   0.08    -0.00  -0.07   0.08    -0.05   0.18  -0.03
  27   1    -0.05  -0.03  -0.08    -0.07  -0.01  -0.01    -0.04   0.05  -0.01
  28   1     0.02   0.06   0.06     0.13  -0.03   0.03    -0.03   0.18  -0.03
  29   1    -0.01  -0.01  -0.10     0.07  -0.02  -0.05    -0.02   0.05   0.00
  30   1    -0.03   0.00  -0.05     0.02  -0.05   0.01     0.09  -0.02  -0.07
  31   1     0.10   0.03  -0.03    -0.06   0.01   0.03    -0.07   0.04   0.05
  32   1    -0.06  -0.02  -0.03     0.06  -0.01   0.02     0.09  -0.05  -0.08
  33   1     0.10  -0.03   0.03    -0.07   0.06  -0.02    -0.07   0.01   0.08
  34   1    -0.01  -0.05  -0.01    -0.01  -0.00  -0.02     0.10  -0.04  -0.04
                     28                     29                     30
                        a                      a                      a 
 Frequencies --   672.9787               703.3399               756.2419
 Red. masses --     8.4358                 9.0383                 8.5611
 Frc consts  --     0.0000                 0.0000                 0.0000
 IR Inten    --    16.7711                17.0798                19.9256
 Raman Activ --     0.0000                 0.0000                 0.0000
 Depolar     --     0.0000                 0.0000                 0.0000
 Atom AN      X      Y      Z        X      Y      Z        X      Y      Z
   1   7    -0.04  -0.02   0.02     0.00  -0.00  -0.00    -0.06  -0.02   0.03
   2   6     0.01  -0.04   0.01     0.03  -0.08   0.01    -0.01   0.03  -0.01
   3   6     0.03   0.00  -0.02    -0.22   0.00   0.08     0.31   0.01  -0.11
   4   6    -0.05   0.31  -0.07    -0.17   0.22  -0.00     0.07   0.18  -0.08
   5   6     0.11  -0.14   0.01     0.16  -0.17  -0.13    -0.11  -0.05   0.20
   6   6     0.01   0.19  -0.02     0.12   0.11  -0.08    -0.18   0.01   0.04
   7   6    -0.02  -0.19  -0.02     0.22  -0.11   0.06    -0.19  -0.12  -0.05
   8   6    -0.12   0.15  -0.07     0.12   0.11  -0.05    -0.16   0.00   0.07
   9   6     0.02  -0.27   0.05     0.14  -0.34   0.05     0.04  -0.12   0.02
  10   7     0.02   0.04   0.22    -0.15   0.20   0.02     0.28   0.11  -0.11
  11   7     0.12  -0.06  -0.18    -0.30  -0.11  -0.06     0.15  -0.07  -0.02
  12   6    -0.25   0.15   0.13     0.01  -0.03   0.05    -0.26   0.14   0.14
  13   6     0.09   0.00  -0.04     0.03  -0.02  -0.03     0.12  -0.04  -0.07
  14   6    -0.15   0.13   0.11     0.04  -0.03  -0.07     0.07   0.01  -0.01
  15   6     0.07  -0.07  -0.01     0.03   0.03  -0.06     0.10  -0.09  -0.03
  16   6    -0.19   0.08   0.09     0.10  -0.03   0.06     0.01  -0.02  -0.09
  17   6     0.05  -0.05  -0.05     0.10  -0.01   0.06     0.08  -0.06  -0.10
  18  17     0.00   0.00  -0.00    -0.00  -0.00  -0.00     0.00   0.00   0.00
  19   1    -0.01  -0.00   0.01    -0.07   0.01   0.02     0.06  -0.01  -0.01
  20   1    -0.01  -0.00   0.00     0.02   0.03  -0.01    -0.04  -0.04   0.02
  21   1    -0.01  -0.01   0.00     0.02   0.03  -0.01    -0.03  -0.04   0.02
  22   1    -0.00  -0.02   0.01     0.01  -0.01   0.00    -0.02  -0.01   0.01
  23   1    -0.00  -0.02   0.01     0.02  -0.01  -0.00    -0.02  -0.02   0.01
  24   1     0.00  -0.02  -0.00    -0.08  -0.03   0.04     0.09   0.01  -0.03
  25   1    -0.02  -0.01  -0.00    -0.09  -0.03   0.04     0.09   0.01  -0.03
  26   1     0.05  -0.10   0.01     0.05   0.08  -0.05    -0.08  -0.04   0.05
  27   1     0.02   0.03  -0.02    -0.01   0.20  -0.06    -0.06  -0.00   0.03
  28   1    -0.00  -0.11   0.02     0.05   0.08  -0.04    -0.08  -0.05   0.03
  29   1    -0.02   0.04  -0.02    -0.01   0.20  -0.04    -0.07   0.02   0.01
  30   1     0.24  -0.12  -0.13    -0.15   0.10   0.08    -0.15   0.08   0.09
  31   1     0.14  -0.06  -0.08    -0.14   0.07   0.08    -0.19   0.12   0.10
  32   1     0.22  -0.13  -0.12    -0.17   0.08   0.06    -0.23   0.12   0.15
  33   1     0.13  -0.06  -0.08    -0.13   0.04   0.11    -0.19   0.12   0.08
  34   1     0.23  -0.13  -0.13    -0.12   0.07   0.10    -0.15   0.07   0.08
                     31                     32                     33
                        a                      a                      a 
 Frequencies --   769.6618               801.3984               802.2853
 Red. masses --    10.5457                 2.2253                 7.1954
 Frc consts  --     0.0000                 0.0000                 0.0000
 IR Inten    --     8.9118                31.5020                17.1647
 Raman Activ --     0.0000                 0.0000                 0.0000
 Depolar     --     0.0000                 0.0000                 0.0000
 Atom AN      X      Y      Z        X      Y      Z        X      Y      Z
   1   7     0.05   0.02  -0.02    -0.00  -0.01  -0.01    -0.05  -0.03   0.02
   2   6    -0.01   0.01   0.00    -0.08  -0.05  -0.20     0.02  -0.07  -0.02
   3   6    -0.16  -0.01   0.07    -0.08  -0.05  -0.19     0.01   0.03  -0.04
   4   6    -0.01  -0.20   0.07     0.00  -0.03   0.02    -0.02   0.23  -0.05
   5   6     0.07   0.10  -0.18     0.02   0.03   0.01     0.06  -0.15   0.11
   6   6     0.09   0.04  -0.08     0.02   0.03  -0.01     0.07  -0.16   0.07
   7   6     0.04   0.11   0.03     0.00   0.04   0.05    -0.02  -0.17  -0.03
   8   6     0.03   0.04  -0.05    -0.03   0.03   0.02     0.01  -0.18  -0.02
   9   6    -0.02   0.05  -0.02     0.01  -0.04  -0.00    -0.09   0.25  -0.04
  10   7    -0.03  -0.18   0.36    -0.01   0.01   0.02     0.10  -0.08   0.01
  11   7    -0.02  -0.24   0.07    -0.00   0.01  -0.03    -0.02  -0.18   0.22
  12   6    -0.18   0.16   0.03    -0.01   0.01   0.01     0.09  -0.02  -0.07
  13   6     0.14   0.16  -0.03     0.00  -0.01  -0.00     0.01   0.12   0.01
  14   6     0.19   0.27   0.04    -0.01  -0.02  -0.00     0.10   0.20   0.03
  15   6     0.06  -0.21   0.14     0.00   0.01  -0.01    -0.03  -0.10   0.13
  16   6    -0.16  -0.04  -0.27     0.01  -0.00   0.02    -0.13  -0.01  -0.18
  17   6    -0.04  -0.03  -0.21     0.01  -0.00   0.01    -0.06   0.03  -0.09
  18  17    -0.00  -0.00   0.00     0.01  -0.00  -0.00     0.00  -0.00  -0.00
  19   1    -0.02   0.01   0.00     0.00   0.01   0.06    -0.04  -0.00   0.02
  20   1     0.02   0.02  -0.01     0.22   0.05   0.03     0.03   0.01   0.00
  21   1     0.02   0.02  -0.01    -0.13   0.01   0.14    -0.02   0.01   0.02
  22   1     0.01   0.01  -0.01    -0.17   0.41   0.21    -0.02   0.03   0.03
  23   1     0.00   0.03  -0.02     0.33  -0.26   0.24     0.05  -0.06   0.04
  24   1    -0.03  -0.01  -0.00    -0.12   0.34   0.15    -0.03   0.03   0.03
  25   1    -0.06   0.01   0.00     0.25  -0.23   0.20     0.02  -0.05   0.03
  26   1     0.10  -0.08  -0.02     0.04  -0.01   0.01    -0.12   0.30  -0.02
  27   1     0.07  -0.14  -0.00     0.02  -0.04  -0.00    -0.08   0.33  -0.06
  28   1     0.06  -0.07   0.01     0.01  -0.06   0.04    -0.12   0.24  -0.04
  29   1     0.05  -0.14   0.01     0.00  -0.07   0.02    -0.09   0.30  -0.06
  30   1    -0.04   0.04   0.04    -0.00   0.00   0.00     0.06  -0.01  -0.03
  31   1    -0.06   0.16  -0.03    -0.01  -0.00   0.01     0.06   0.05  -0.08
  32   1    -0.11   0.01   0.10    -0.01   0.01   0.00     0.07  -0.07  -0.01
  33   1    -0.10   0.12  -0.06    -0.01  -0.00   0.01     0.03   0.03  -0.10
  34   1    -0.08   0.02   0.02     0.00  -0.00   0.00    -0.01  -0.00  -0.01
                     34                     35                     36
                        a                      a                      a 
 Frequencies --   838.2501               850.1203               857.7811
 Red. masses --    10.4448                 3.7348                 3.5528
 Frc consts  --     0.0000                 0.0000                 0.0000
 IR Inten    --    36.4916                16.1634                 4.1171
 Raman Activ --     0.0000                 0.0000                 0.0000
 Depolar     --     0.0000                 0.0000                 0.0000
 Atom AN      X      Y      Z        X      Y      Z        X      Y      Z
   1   7     0.02  -0.04  -0.00     0.00  -0.01  -0.00     0.00  -0.01   0.00
   2   6     0.02  -0.07   0.01     0.00  -0.02  -0.01     0.01  -0.01   0.00
   3   6    -0.28   0.05   0.09    -0.07   0.01   0.02    -0.04   0.01   0.01
   4   6     0.03  -0.04   0.01     0.02  -0.02   0.01     0.01  -0.01  -0.00
   5   6     0.10   0.03   0.12    -0.05   0.17   0.03     0.04  -0.05   0.02
   6   6     0.19   0.02   0.18    -0.03   0.26   0.01     0.04  -0.07   0.04
   7   6    -0.04  -0.07  -0.15     0.03  -0.15  -0.02    -0.02   0.04  -0.03
   8   6     0.00  -0.13  -0.29     0.07  -0.25  -0.03    -0.03   0.07  -0.05
   9   6    -0.18   0.20   0.00    -0.04  -0.03   0.04    -0.02   0.03  -0.01
  10   7    -0.02  -0.17   0.15     0.07   0.04  -0.09    -0.02  -0.01   0.04
  11   7     0.35   0.22  -0.22    -0.03  -0.03   0.05     0.06   0.01  -0.05
  12   6    -0.19   0.09   0.11     0.02  -0.00  -0.02    -0.03   0.05   0.00
  13   6     0.04  -0.11  -0.03    -0.08   0.04   0.04    -0.22   0.09   0.14
  14   6    -0.05  -0.18  -0.02    -0.03   0.03   0.02    -0.14   0.01   0.05
  15   6     0.08   0.04  -0.11    -0.00  -0.01   0.01     0.04   0.02  -0.05
  16   6     0.07   0.02   0.08     0.03  -0.02  -0.03     0.16  -0.07  -0.04
  17   6    -0.04  -0.03   0.02     0.06  -0.02  -0.03     0.18  -0.12  -0.10
  18  17    -0.00  -0.00  -0.00     0.00  -0.00  -0.00    -0.00  -0.00   0.00
  19   1    -0.13   0.01   0.04    -0.04   0.00   0.02    -0.02   0.00   0.01
  20   1     0.06   0.06  -0.03     0.04   0.02  -0.01     0.00   0.01  -0.01
  21   1     0.03   0.05  -0.01    -0.00   0.01   0.01     0.01   0.01  -0.00
  22   1     0.02   0.01  -0.00    -0.01   0.01   0.01     0.01  -0.00  -0.00
  23   1     0.04   0.01  -0.01     0.03  -0.00   0.00     0.00   0.01  -0.01
  24   1    -0.08  -0.01   0.03    -0.02   0.00   0.01    -0.01  -0.00   0.00
  25   1    -0.10  -0.00   0.03    -0.02  -0.00   0.01    -0.02   0.00   0.00
  26   1    -0.03   0.08   0.02     0.10  -0.32   0.07    -0.04   0.12  -0.01
  27   1     0.07   0.08  -0.01     0.16  -0.45   0.09    -0.03   0.14  -0.03
  28   1    -0.08   0.08  -0.02    -0.11   0.29  -0.05     0.02  -0.10   0.02
  29   1     0.03   0.08  -0.09    -0.11   0.45  -0.09     0.05  -0.14   0.02
  30   1    -0.09   0.03   0.05     0.14  -0.07  -0.08     0.42  -0.22  -0.24
  31   1    -0.12  -0.00   0.10     0.07  -0.04  -0.04     0.22  -0.14  -0.11
  32   1    -0.14   0.11   0.08     0.01  -0.01  -0.00    -0.07   0.05   0.03
  33   1    -0.04   0.01   0.06    -0.07   0.04   0.04    -0.29   0.15   0.18
  34   1     0.07  -0.05  -0.06    -0.11   0.06   0.07    -0.35   0.18   0.20
                     37                     38                     39
                        a                      a                      a 
 Frequencies --   877.6445               889.8086               896.5528
 Red. masses --     8.6586                 5.1542                 2.9133
 Frc consts  --     0.0000                 0.0000                 0.0000
 IR Inten    --     1.2332                 3.4300                 0.2332
 Raman Activ --     0.0000                 0.0000                 0.0000
 Depolar     --     0.0000                 0.0000                 0.0000
 Atom AN      X      Y      Z        X      Y      Z        X      Y      Z
   1   7     0.01  -0.08   0.01    -0.00  -0.04   0.01     0.02   0.03  -0.01
   2   6     0.03  -0.06   0.01     0.02  -0.02   0.00    -0.03   0.02   0.00
   3   6    -0.24   0.08   0.07    -0.07   0.04   0.03    -0.01  -0.03   0.01
   4   6     0.09  -0.09  -0.01     0.04  -0.03  -0.01    -0.01   0.01   0.01
   5   6     0.02   0.06   0.27    -0.01   0.03   0.10    -0.09   0.26  -0.05
   6   6     0.11   0.10   0.21     0.03   0.03   0.07     0.08  -0.23   0.04
   7   6    -0.16   0.05  -0.23    -0.06   0.04  -0.09    -0.03   0.10  -0.02
   8   6    -0.04   0.05  -0.23    -0.01   0.02  -0.05     0.03  -0.11   0.00
   9   6    -0.01  -0.18   0.05     0.01  -0.09   0.02     0.01  -0.01   0.00
  10   7     0.21   0.20  -0.24     0.08   0.12  -0.15    -0.01  -0.02   0.02
  11   7    -0.08  -0.13   0.13    -0.12  -0.09   0.13     0.02   0.01  -0.01
  12   6     0.06  -0.04  -0.02     0.12  -0.08  -0.06    -0.00   0.00   0.00
  13   6     0.06  -0.02  -0.06    -0.18   0.11   0.08     0.01  -0.01  -0.00
  14   6     0.02   0.09   0.01     0.12   0.02  -0.04    -0.01  -0.00   0.00
  15   6    -0.13   0.02   0.11     0.19  -0.15  -0.08    -0.01   0.01   0.00
  16   6    -0.06   0.00  -0.04    -0.03  -0.00  -0.04     0.01  -0.00  -0.00
  17   6     0.09  -0.00  -0.04    -0.16   0.14   0.12     0.01  -0.01  -0.01
  18  17    -0.00  -0.00   0.00    -0.00  -0.00   0.00    -0.00   0.00  -0.00
  19   1    -0.19   0.00   0.06    -0.09   0.00   0.03     0.05   0.00  -0.02
  20   1     0.07   0.07  -0.05     0.04   0.03  -0.02    -0.01  -0.01   0.01
  21   1     0.05   0.07  -0.02     0.02   0.03  -0.01    -0.00  -0.01   0.00
  22   1     0.03   0.00  -0.01     0.01  -0.00  -0.00    -0.01   0.01   0.00
  23   1     0.03   0.03  -0.02     0.02   0.02  -0.01    -0.01  -0.00   0.01
  24   1    -0.07   0.01   0.02    -0.02   0.00   0.00    -0.01  -0.00   0.01
  25   1    -0.07   0.03   0.01    -0.02   0.02  -0.00     0.00  -0.01   0.01
  26   1    -0.06  -0.01   0.07    -0.02  -0.03   0.03     0.19  -0.56   0.09
  27   1     0.07   0.01   0.02     0.02   0.02   0.01    -0.15   0.50  -0.09
  28   1     0.00  -0.24   0.02     0.02  -0.14   0.01     0.09  -0.29   0.05
  29   1     0.11  -0.14  -0.03     0.03  -0.02  -0.01    -0.09   0.30  -0.05
  30   1    -0.14   0.08   0.08     0.33  -0.17  -0.20    -0.02   0.01   0.01
  31   1     0.08  -0.01  -0.06    -0.20   0.13   0.10     0.02  -0.01  -0.01
  32   1     0.20  -0.13  -0.11    -0.30   0.14   0.17     0.01  -0.00  -0.01
  33   1     0.08  -0.04  -0.07    -0.06   0.03   0.02    -0.01   0.00   0.01
  34   1    -0.14   0.09   0.10     0.38  -0.18  -0.20    -0.02   0.01   0.01
                     40                     41                     42
                        a                      a                      a 
 Frequencies --   901.5471               913.6751               916.3129
 Red. masses --     2.8900                 4.1473                 4.1450
 Frc consts  --     0.0000                 0.0000                 0.0000
 IR Inten    --    31.2632                 3.2351                 0.6156
 Raman Activ --     0.0000                 0.0000                 0.0000
 Depolar     --     0.0000                 0.0000                 0.0000
 Atom AN      X      Y      Z        X      Y      Z        X      Y      Z
   1   7    -0.10  -0.13  -0.14     0.04   0.09  -0.07     0.00   0.01  -0.00
   2   6    -0.00  -0.04  -0.07    -0.08   0.04   0.00    -0.01   0.00   0.00
   3   6     0.14   0.15   0.22     0.01  -0.09   0.07     0.00  -0.01   0.00
   4   6     0.02   0.01   0.00    -0.03   0.01   0.02    -0.00   0.00   0.00
   5   6    -0.04  -0.01  -0.07     0.07  -0.22  -0.01     0.00   0.00  -0.01
   6   6    -0.07  -0.05  -0.05    -0.02   0.14  -0.02     0.01  -0.01  -0.00
   7   6     0.01  -0.01  -0.02    -0.08   0.31  -0.04     0.00  -0.00   0.01
   8   6     0.01   0.03   0.04     0.08  -0.24   0.01    -0.00  -0.00  -0.00
   9   6     0.02   0.01   0.00    -0.03   0.01   0.01    -0.01   0.02  -0.00
  10   7    -0.02  -0.02   0.01    -0.00  -0.02   0.02    -0.01  -0.02   0.03
  11   7    -0.01   0.01  -0.01     0.02   0.02  -0.01     0.03   0.01  -0.02
  12   6    -0.00   0.00  -0.00    -0.01   0.01   0.01    -0.03   0.04  -0.00
  13   6     0.01  -0.00  -0.00     0.01  -0.01  -0.00    -0.13   0.07   0.10
  14   6    -0.00  -0.01  -0.00    -0.01  -0.01   0.00     0.23  -0.17  -0.15
  15   6    -0.01   0.01  -0.00     0.00   0.00  -0.00    -0.03   0.04  -0.00
  16   6     0.00   0.00   0.01     0.00   0.00   0.00    -0.21   0.13   0.16
  17   6     0.00  -0.01  -0.00     0.00  -0.01  -0.00     0.17  -0.12  -0.11
  18  17     0.00  -0.00  -0.00     0.00   0.00  -0.00     0.00   0.00  -0.00
  19   1    -0.06   0.04   0.21     0.19   0.01  -0.03     0.02   0.00  -0.01
  20   1     0.50   0.16  -0.02     0.02  -0.04   0.03    -0.00  -0.01   0.00
  21   1    -0.30  -0.00   0.26    -0.07  -0.06   0.05    -0.00  -0.01   0.00
  22   1    -0.20  -0.11   0.17    -0.05  -0.01   0.03    -0.00   0.00   0.00
  23   1     0.27   0.15  -0.06    -0.00   0.01   0.01    -0.00  -0.00   0.00
  24   1     0.16  -0.19  -0.13     0.02  -0.06  -0.00     0.00  -0.00   0.00
  25   1    -0.19   0.19  -0.13    -0.04  -0.02   0.00    -0.00  -0.00   0.00
  26   1    -0.01  -0.04  -0.02    -0.10   0.31  -0.06     0.00  -0.00  -0.00
  27   1    -0.05   0.02   0.00     0.06  -0.18   0.04    -0.00   0.02  -0.00
  28   1     0.01   0.02  -0.03     0.18  -0.53   0.10    -0.00   0.01   0.00
  29   1     0.02  -0.01   0.02    -0.11   0.40  -0.08    -0.00   0.00  -0.00
  30   1    -0.01   0.00   0.01    -0.01   0.01   0.01     0.23  -0.12  -0.13
  31   1     0.00  -0.00   0.00     0.01  -0.01  -0.00    -0.42   0.21   0.23
  32   1     0.01  -0.00  -0.01    -0.00   0.00   0.00     0.06  -0.02  -0.03
  33   1     0.00  -0.00  -0.00     0.00  -0.00  -0.00     0.38  -0.20  -0.21
  34   1    -0.01   0.00   0.00    -0.01   0.00   0.00    -0.29   0.14   0.16
                     43                     44                     45
                        a                      a                      a 
 Frequencies --   920.8043               921.8021               985.1151
 Red. masses --     5.9458                 3.2822                10.8919
 Frc consts  --     0.0000                 0.0000                 0.0000
 IR Inten    --    31.0802                 2.9359                 1.6987
 Raman Activ --     0.0000                 0.0000                 0.0000
 Depolar     --     0.0000                 0.0000                 0.0000
 Atom AN      X      Y      Z        X      Y      Z        X      Y      Z
   1   7     0.14   0.28  -0.17    -0.03  -0.05   0.04    -0.01  -0.00   0.00
   2   6    -0.22   0.09   0.02     0.04  -0.02  -0.00     0.01   0.00  -0.00
   3   6    -0.07  -0.28   0.17     0.02   0.06  -0.03     0.02   0.00  -0.01
   4   6    -0.06   0.01   0.02     0.01  -0.00  -0.00    -0.01  -0.00   0.00
   5   6     0.01   0.05   0.07     0.00  -0.01  -0.02    -0.00  -0.01  -0.04
   6   6     0.12   0.02   0.13    -0.02  -0.01  -0.03     0.00  -0.00   0.01
   7   6     0.00  -0.12  -0.07     0.00   0.03   0.02     0.03   0.01   0.03
   8   6    -0.01   0.06  -0.19     0.00  -0.02   0.04    -0.00  -0.01  -0.01
   9   6    -0.03  -0.03   0.02     0.00   0.01  -0.01    -0.02   0.01   0.01
  10   7     0.06   0.06  -0.07    -0.02  -0.02   0.03    -0.07  -0.00  -0.00
  11   7    -0.01  -0.03   0.03     0.02   0.02  -0.02     0.09   0.13  -0.13
  12   6     0.01  -0.01   0.00    -0.08   0.04   0.04    -0.02  -0.11   0.13
  13   6    -0.02   0.00  -0.01    -0.00   0.00  -0.00    -0.34  -0.16  -0.42
  14   6     0.04   0.00  -0.01     0.15  -0.09  -0.08     0.10   0.09   0.07
  15   6    -0.04   0.01   0.04    -0.23   0.12   0.13     0.00  -0.26   0.26
  16   6     0.03  -0.02  -0.04     0.19  -0.10  -0.10    -0.10  -0.06  -0.11
  17   6    -0.01   0.02   0.01    -0.03   0.01   0.02     0.35   0.40   0.17
  18  17     0.00   0.00  -0.00    -0.00  -0.00   0.00     0.00   0.00  -0.00
  19   1     0.54   0.03  -0.12    -0.11  -0.01   0.02    -0.01  -0.00   0.00
  20   1     0.02  -0.12   0.09    -0.01   0.02  -0.02    -0.00   0.00   0.00
  21   1    -0.17  -0.16   0.12     0.03   0.03  -0.02    -0.00   0.00   0.00
  22   1    -0.14  -0.02   0.08     0.03   0.01  -0.02     0.00  -0.00  -0.00
  23   1    -0.02   0.01   0.03     0.00  -0.00  -0.01     0.00   0.00  -0.00
  24   1    -0.03  -0.15   0.04     0.01   0.03  -0.01     0.01   0.00  -0.00
  25   1    -0.10  -0.09   0.04     0.02   0.02  -0.01     0.01   0.00  -0.00
  26   1    -0.01  -0.04   0.03     0.00   0.01  -0.01    -0.01  -0.00  -0.01
  27   1     0.03   0.06   0.01    -0.01  -0.01  -0.00    -0.01   0.01   0.01
  28   1    -0.08   0.17  -0.04     0.02  -0.04   0.01     0.00   0.01   0.01
  29   1     0.09  -0.15  -0.02    -0.02   0.04   0.00    -0.02  -0.00  -0.01
  30   1     0.03  -0.02  -0.02     0.10  -0.05  -0.06    -0.10  -0.11  -0.11
  31   1    -0.06   0.04   0.03    -0.33   0.18   0.18     0.05  -0.01   0.12
  32   1     0.08  -0.05  -0.04     0.44  -0.24  -0.25     0.00  -0.07   0.08
  33   1    -0.09   0.05   0.04    -0.38   0.20   0.22    -0.04  -0.11  -0.00
  34   1     0.05  -0.02  -0.02     0.14  -0.07  -0.08     0.06   0.11   0.13
                     46                     47                     48
                        a                      a                      a 
 Frequencies --  1016.5806              1027.7518              1060.4011
 Red. masses --     9.0024                 9.7175                 4.2796
 Frc consts  --     0.0000                 0.0000                 0.0000
 IR Inten    --     0.7283                19.4166                 5.5642
 Raman Activ --     0.0000                 0.0000                 0.0000
 Depolar     --     0.0000                 0.0000                 0.0000
 Atom AN      X      Y      Z        X      Y      Z        X      Y      Z
   1   7     0.18   0.02  -0.06     0.47  -0.06  -0.15     0.10   0.03   0.12
   2   6    -0.21  -0.06   0.09    -0.57  -0.14   0.27    -0.13  -0.08  -0.21
   3   6    -0.11  -0.01   0.04     0.08   0.03  -0.08     0.12   0.10   0.31
   4   6     0.11   0.04  -0.04    -0.02   0.07  -0.03     0.04   0.03   0.13
   5   6     0.10   0.08   0.34    -0.03  -0.04  -0.11    -0.05  -0.04  -0.14
   6   6    -0.15  -0.10  -0.33     0.03   0.02   0.09    -0.07  -0.03  -0.02
   7   6    -0.16  -0.11  -0.33     0.06   0.03   0.13    -0.04  -0.03  -0.10
   8   6     0.09   0.07   0.34    -0.04  -0.03  -0.06     0.02   0.00  -0.09
   9   6     0.12   0.04  -0.05    -0.04  -0.01   0.01     0.02   0.01   0.07
  10   7    -0.09  -0.06   0.09     0.02   0.01  -0.02     0.01   0.01  -0.02
  11   7    -0.02   0.03  -0.04     0.01  -0.01   0.01    -0.01  -0.00   0.01
  12   6    -0.01   0.00   0.01     0.00  -0.00   0.00     0.01   0.00  -0.01
  13   6    -0.02  -0.01  -0.03     0.00   0.00   0.00    -0.00  -0.00  -0.00
  14   6     0.00  -0.00   0.00    -0.00   0.00  -0.00    -0.00  -0.00  -0.00
  15   6    -0.00  -0.01   0.01     0.00   0.00  -0.00     0.00   0.00   0.00
  16   6    -0.00  -0.00   0.00     0.00   0.00  -0.00    -0.00  -0.00   0.00
  17   6     0.02   0.02   0.01    -0.00  -0.00  -0.00    -0.00  -0.00   0.00
  18  17    -0.00  -0.00   0.00    -0.00  -0.00  -0.00    -0.00   0.00   0.00
  19   1     0.01   0.01  -0.01    -0.13   0.01   0.02    -0.05  -0.02  -0.07
  20   1     0.05   0.02  -0.03     0.19   0.12  -0.11    -0.19  -0.03  -0.00
  21   1     0.06   0.03  -0.03     0.19   0.12  -0.08     0.16   0.03  -0.11
  22   1    -0.04  -0.00   0.01    -0.10  -0.04   0.02    -0.03   0.25   0.02
  23   1    -0.05  -0.01   0.02    -0.14  -0.00   0.05     0.06  -0.21   0.12
  24   1    -0.03   0.01   0.01     0.05   0.10  -0.03     0.38   0.14  -0.26
  25   1    -0.04  -0.01   0.01     0.12   0.11  -0.07    -0.43  -0.16   0.10
  26   1     0.21   0.09   0.12    -0.08  -0.02  -0.04    -0.03  -0.02  -0.04
  27   1     0.08  -0.03  -0.24    -0.04   0.01   0.07    -0.10  -0.01   0.09
  28   1     0.06  -0.02  -0.22    -0.03   0.02   0.08    -0.02  -0.00  -0.03
  29   1     0.23   0.11   0.12    -0.11  -0.03  -0.03     0.13   0.02  -0.01
  30   1    -0.01  -0.01  -0.00     0.00   0.00  -0.00    -0.00  -0.00  -0.00
  31   1     0.00  -0.00   0.01     0.00   0.00  -0.00     0.00  -0.00   0.00
  32   1    -0.00  -0.00   0.00    -0.00   0.00   0.00     0.00   0.00   0.00
  33   1    -0.00  -0.01   0.00     0.00   0.00  -0.00     0.00   0.00  -0.00
  34   1     0.00   0.01   0.01    -0.00  -0.00  -0.00     0.00  -0.00   0.00
                     49                     50                     51
                        a                      a                      a 
 Frequencies --  1086.0458              1112.9400              1116.5443
 Red. masses --     6.4348                 8.6495                 3.9022
 Frc consts  --     0.0000                 0.0000                 0.0000
 IR Inten    --     1.3086                27.3203                 0.3529
 Raman Activ --     0.0000                 0.0000                 0.0000
 Depolar     --     0.0000                 0.0000                 0.0000
 Atom AN      X      Y      Z        X      Y      Z        X      Y      Z
   1   7    -0.00  -0.00   0.00     0.01  -0.17   0.05    -0.00   0.00  -0.00
   2   6     0.00   0.00  -0.00    -0.12   0.55  -0.11     0.00  -0.01   0.00
   3   6     0.00  -0.00   0.00     0.11  -0.54   0.11    -0.00   0.01   0.00
   4   6     0.00   0.00   0.00    -0.06   0.07   0.01     0.00  -0.00  -0.00
   5   6     0.00   0.00  -0.00     0.00  -0.01   0.02    -0.00   0.00   0.01
   6   6    -0.00  -0.00  -0.00     0.02  -0.00   0.01     0.00   0.00   0.01
   7   6     0.00  -0.00  -0.00    -0.01  -0.02  -0.01    -0.01  -0.00  -0.00
   8   6     0.00   0.00   0.00     0.01  -0.01  -0.02     0.00  -0.00  -0.00
   9   6    -0.00  -0.00   0.00    -0.00   0.00   0.00     0.02   0.02  -0.02
  10   7     0.00   0.00  -0.00     0.00  -0.00  -0.00    -0.01  -0.02   0.00
  11   7    -0.00  -0.00   0.00    -0.00   0.00   0.00     0.02   0.05  -0.01
  12   6    -0.01  -0.02   0.00    -0.00   0.00  -0.00    -0.11  -0.11  -0.07
  13   6    -0.00   0.10  -0.09     0.00  -0.00   0.01     0.10  -0.07   0.23
  14   6    -0.20  -0.21  -0.16     0.00   0.00   0.00     0.13   0.19   0.05
  15   6    -0.01  -0.34   0.29    -0.00  -0.00  -0.00    -0.12  -0.06  -0.14
  16   6     0.22   0.14   0.25     0.00  -0.00   0.00     0.06  -0.02   0.12
  17   6     0.03   0.15  -0.09     0.00   0.01  -0.00     0.09   0.20  -0.05
  18  17     0.00  -0.00  -0.00    -0.00  -0.00  -0.00     0.00  -0.00  -0.00
  19   1    -0.00  -0.00   0.00    -0.28  -0.01   0.07     0.01   0.00  -0.00
  20   1    -0.00  -0.00   0.00     0.06   0.11  -0.08    -0.00  -0.00   0.00
  21   1     0.00   0.00  -0.00     0.07   0.10  -0.03    -0.00  -0.00   0.00
  22   1     0.00   0.00  -0.00     0.05   0.25  -0.09    -0.00  -0.00   0.00
  23   1     0.00   0.00  -0.00     0.04   0.26  -0.09    -0.00  -0.01   0.00
  24   1     0.00  -0.00  -0.00     0.03  -0.13   0.03     0.00   0.00  -0.00
  25   1    -0.00  -0.00   0.00     0.05  -0.13   0.03    -0.01   0.00   0.00
  26   1     0.00   0.00   0.00     0.04   0.03   0.01    -0.01  -0.00   0.00
  27   1    -0.00   0.00   0.00     0.00   0.01   0.00    -0.01  -0.00   0.02
  28   1     0.00   0.00  -0.00     0.00   0.02  -0.02    -0.00  -0.00   0.00
  29   1     0.00  -0.00   0.00     0.03   0.01  -0.00    -0.01   0.00  -0.00
  30   1     0.07   0.25  -0.10    -0.00  -0.01   0.01    -0.09  -0.38   0.19
  31   1    -0.16   0.05  -0.35     0.00   0.00  -0.00    -0.03   0.14  -0.20
  32   1    -0.03  -0.12   0.07    -0.01  -0.01  -0.01    -0.25  -0.21  -0.25
  33   1     0.15   0.28  -0.00    -0.00  -0.01   0.00    -0.09  -0.32   0.15
  34   1    -0.11   0.17  -0.34    -0.00   0.00  -0.01    -0.11   0.21  -0.36
                     52                     53                     54
                        a                      a                      a 
 Frequencies --  1128.9648              1174.8643              1177.6430
 Red. masses --     2.8185                 4.7977                 2.4443
 Frc consts  --     0.0000                 0.0000                 0.0000
 IR Inten    --     2.2832                32.0277                 4.9356
 Raman Activ --     0.0000                 0.0000                 0.0000
 Depolar     --     0.0000                 0.0000                 0.0000
 Atom AN      X      Y      Z        X      Y      Z        X      Y      Z
   1   7     0.02   0.01   0.04     0.00  -0.00   0.01     0.00  -0.00   0.00
   2   6    -0.03  -0.00  -0.07     0.00   0.00  -0.01    -0.00   0.00  -0.01
   3   6     0.02   0.00   0.10     0.03  -0.00  -0.01     0.02  -0.00  -0.00
   4   6    -0.02  -0.03  -0.13    -0.07  -0.01   0.02    -0.04  -0.01   0.01
   5   6    -0.05   0.01   0.16    -0.04  -0.03  -0.10    -0.04  -0.02  -0.07
   6   6     0.12   0.05   0.07     0.01  -0.02  -0.06     0.01  -0.01  -0.05
   7   6     0.12   0.04  -0.00     0.06   0.04   0.13     0.04   0.03   0.10
   8   6    -0.04  -0.00   0.15     0.00   0.02   0.07     0.01   0.02   0.05
   9   6     0.01  -0.02  -0.16    -0.33  -0.07   0.10    -0.23  -0.04   0.06
  10   7    -0.03  -0.01   0.04     0.07   0.07  -0.12     0.08   0.02  -0.05
  11   7    -0.00   0.01  -0.02     0.10   0.07  -0.05     0.06  -0.01   0.02
  12   6    -0.01  -0.02   0.02    -0.00  -0.21   0.18     0.02   0.06   0.00
  13   6     0.01   0.01   0.00     0.03   0.06   0.01     0.00  -0.07   0.06
  14   6     0.01   0.01   0.00     0.06   0.07   0.03     0.00  -0.01   0.01
  15   6     0.00   0.00   0.00     0.02   0.04   0.01    -0.05  -0.05  -0.05
  16   6    -0.00  -0.00  -0.01    -0.08  -0.05  -0.09     0.03   0.04   0.01
  17   6    -0.00  -0.00  -0.00    -0.04  -0.10   0.01     0.01   0.07  -0.04
  18  17     0.00   0.00   0.00    -0.00  -0.00  -0.00    -0.00  -0.00  -0.00
  19   1    -0.02  -0.00  -0.02    -0.01  -0.00   0.00    -0.00  -0.00  -0.00
  20   1    -0.05  -0.01   0.00    -0.00   0.00  -0.00    -0.00  -0.00  -0.00
  21   1     0.04   0.01  -0.02     0.00   0.00  -0.00     0.00   0.00  -0.00
  22   1    -0.03   0.05   0.02    -0.00  -0.00   0.00    -0.00  -0.00   0.00
  23   1     0.04  -0.02   0.01     0.01   0.00  -0.00     0.01   0.00  -0.00
  24   1     0.06  -0.01  -0.03     0.02   0.01  -0.01     0.01   0.01  -0.00
  25   1    -0.09  -0.02   0.02     0.02   0.02  -0.01     0.01   0.01  -0.01
  26   1    -0.41  -0.14  -0.00    -0.16  -0.06  -0.05    -0.17  -0.06  -0.04
  27   1     0.26   0.03  -0.26     0.23   0.03  -0.32     0.19   0.02  -0.26
  28   1     0.32   0.04  -0.36     0.01   0.01   0.05    -0.02   0.01   0.07
  29   1    -0.49  -0.14  -0.03     0.35   0.10   0.07     0.27   0.08   0.06
  30   1     0.01   0.02  -0.01     0.07   0.16  -0.05     0.01   0.02   0.01
  31   1     0.00   0.00   0.00    -0.01   0.05  -0.07     0.09  -0.10   0.27
  32   1     0.00   0.00   0.00     0.21   0.19   0.19    -0.38  -0.33  -0.35
  33   1     0.00   0.00  -0.00    -0.10  -0.25   0.05     0.12   0.35  -0.11
  34   1    -0.00  -0.00   0.00    -0.12   0.09  -0.27     0.05  -0.04   0.13
                     55                     56                     57
                        a                      a                      a 
 Frequencies --  1180.9337              1196.9794              1209.3033
 Red. masses --     3.4833                 4.7231                 4.2792
 Frc consts  --     0.0000                 0.0000                 0.0000
 IR Inten    --     6.8904                12.8036                21.9309
 Raman Activ --     0.0000                 0.0000                 0.0000
 Depolar     --     0.0000                 0.0000                 0.0000
 Atom AN      X      Y      Z        X      Y      Z        X      Y      Z
   1   7    -0.00   0.00   0.00    -0.01  -0.00   0.01    -0.12  -0.08  -0.25
   2   6    -0.00  -0.01  -0.00     0.02  -0.03  -0.01     0.13   0.11   0.37
   3   6     0.00   0.01  -0.00     0.11   0.04  -0.04    -0.03  -0.02  -0.09
   4   6    -0.01  -0.00   0.01    -0.25  -0.05   0.09     0.04   0.03   0.09
   5   6     0.03   0.01   0.04     0.03   0.00  -0.04    -0.03  -0.01  -0.03
   6   6    -0.02   0.01   0.04    -0.02  -0.00   0.11     0.01  -0.00  -0.03
   7   6    -0.01  -0.01  -0.07     0.07   0.02   0.00     0.00  -0.01  -0.05
   8   6    -0.02  -0.02  -0.03    -0.09  -0.03  -0.06    -0.03  -0.01  -0.01
   9   6     0.09   0.01  -0.02    -0.37  -0.07   0.16     0.01   0.00   0.01
  10   7    -0.08   0.03  -0.03     0.12   0.06  -0.11    -0.01   0.01  -0.01
  11   7     0.00   0.10  -0.08     0.10  -0.02   0.03     0.01   0.02  -0.01
  12   6     0.05  -0.23   0.24    -0.01  -0.02   0.01     0.00  -0.05   0.04
  13   6     0.05   0.06   0.06    -0.01  -0.04   0.02    -0.00  -0.01   0.01
  14   6     0.09   0.07   0.08    -0.00   0.02  -0.02     0.01   0.02  -0.00
  15   6    -0.02  -0.01  -0.02    -0.00   0.01  -0.02     0.00   0.01  -0.01
  16   6    -0.10  -0.07  -0.10     0.01   0.03  -0.01    -0.01   0.00  -0.02
  17   6    -0.05  -0.04  -0.07     0.01  -0.01   0.02    -0.00  -0.01   0.01
  18  17     0.00   0.00   0.00     0.00   0.00   0.00     0.00   0.00  -0.00
  19   1     0.00  -0.00  -0.00     0.01  -0.00  -0.00     0.06   0.03   0.14
  20   1    -0.00  -0.00   0.00    -0.01  -0.00   0.00     0.29   0.02  -0.00
  21   1     0.00  -0.00  -0.00     0.00  -0.00  -0.00    -0.19   0.00   0.11
  22   1    -0.00   0.00   0.00    -0.00  -0.00   0.01     0.31   0.03  -0.19
  23   1     0.00   0.00  -0.00     0.00  -0.01   0.00    -0.35  -0.06   0.05
  24   1     0.00  -0.00  -0.00     0.09   0.04  -0.07     0.16   0.31  -0.11
  25   1     0.01   0.00  -0.00     0.10   0.07  -0.04    -0.15  -0.30   0.17
  26   1     0.19   0.07   0.03     0.51   0.18   0.06    -0.10  -0.04  -0.02
  27   1    -0.13  -0.01   0.18    -0.00   0.02   0.01    -0.02  -0.00   0.02
  28   1     0.06   0.00  -0.09     0.34   0.04  -0.42     0.07   0.01  -0.10
  29   1    -0.16  -0.05  -0.03    -0.04  -0.03  -0.01     0.01   0.00  -0.00
  30   1     0.17   0.44  -0.13    -0.03  -0.11   0.04     0.00  -0.01   0.00
  31   1     0.16  -0.13   0.41    -0.04   0.05  -0.12    -0.01   0.02  -0.03
  32   1    -0.15  -0.13  -0.14    -0.01  -0.01  -0.02    -0.00  -0.00  -0.01
  33   1    -0.03  -0.04  -0.02     0.03   0.09  -0.03     0.01   0.04  -0.02
  34   1    -0.14   0.12  -0.32     0.03  -0.03   0.08    -0.00  -0.01   0.01
                     58                     59                     60
                        a                      a                      a 
 Frequencies --  1210.1641              1253.2126              1254.1727
 Red. masses --     7.4747                 9.0497                 2.8788
 Frc consts  --     0.0000                 0.0000                 0.0000
 IR Inten    --    11.8529                 9.6940                 2.0415
 Raman Activ --     0.0000                 0.0000                 0.0000
 Depolar     --     0.0000                 0.0000                 0.0000
 Atom AN      X      Y      Z        X      Y      Z        X      Y      Z
   1   7     0.01   0.01   0.02     0.01  -0.01  -0.04    -0.06  -0.03  -0.11
   2   6    -0.02  -0.00  -0.04    -0.03   0.03  -0.01    -0.02  -0.04  -0.07
   3   6    -0.02  -0.00   0.02    -0.17   0.00   0.12     0.12   0.05   0.19
   4   6     0.05   0.01  -0.03     0.46   0.08  -0.24    -0.18  -0.06  -0.09
   5   6     0.00   0.00   0.02     0.13   0.02  -0.15    -0.07  -0.02   0.05
   6   6    -0.01   0.01  -0.00    -0.20  -0.09  -0.07     0.02   0.02   0.08
   7   6    -0.01  -0.00  -0.02     0.23   0.07  -0.04    -0.03  -0.01  -0.00
   8   6     0.02   0.00   0.01    -0.06   0.02   0.20     0.10   0.02  -0.03
   9   6     0.11   0.02  -0.05    -0.35  -0.06   0.23     0.12   0.03   0.02
  10   7    -0.13   0.04  -0.04     0.11   0.04  -0.09    -0.03  -0.01   0.01
  11   7     0.04   0.18  -0.15     0.07  -0.01   0.02    -0.02   0.01  -0.00
  12   6     0.02  -0.44   0.38     0.01   0.02   0.01    -0.01  -0.01  -0.01
  13   6     0.00  -0.09   0.13    -0.00  -0.01  -0.00     0.00  -0.00   0.00
  14   6     0.07   0.16  -0.03    -0.00  -0.00  -0.00     0.00   0.00   0.01
  15   6    -0.01   0.07  -0.07    -0.00   0.00  -0.01     0.00   0.00   0.00
  16   6    -0.07   0.05  -0.17    -0.00  -0.00  -0.00     0.00   0.00   0.00
  17   6     0.01  -0.13   0.10    -0.00  -0.01   0.00    -0.00   0.00  -0.00
  18  17    -0.00  -0.00   0.00    -0.00   0.00  -0.00    -0.00   0.00  -0.00
  19   1    -0.01  -0.00  -0.01    -0.01   0.01   0.01     0.03   0.01   0.04
  20   1    -0.03  -0.00  -0.00     0.03   0.00  -0.00     0.10  -0.00  -0.00
  21   1     0.02   0.00  -0.01    -0.02   0.00   0.01    -0.06   0.00   0.02
  22   1    -0.03  -0.00   0.02     0.04   0.09  -0.03     0.26   0.39  -0.20
  23   1     0.03   0.01  -0.00    -0.08  -0.08   0.05    -0.24  -0.36   0.19
  24   1    -0.03  -0.04   0.02    -0.17  -0.19   0.12    -0.01  -0.23   0.03
  25   1    -0.01   0.01  -0.01    -0.17  -0.09   0.07     0.09   0.30  -0.17
  26   1    -0.03  -0.01   0.00     0.10   0.03  -0.04     0.16   0.06   0.04
  27   1    -0.04  -0.01   0.06    -0.10  -0.01   0.01     0.17   0.02  -0.19
  28   1    -0.06  -0.01   0.08    -0.04   0.01   0.13    -0.14  -0.02   0.16
  29   1    -0.03  -0.00  -0.00    -0.27  -0.09   0.03    -0.10  -0.03  -0.03
  30   1     0.00  -0.10   0.05    -0.01  -0.03   0.01     0.01   0.02  -0.01
  31   1    -0.09   0.18  -0.35    -0.00  -0.00   0.00    -0.00   0.00  -0.01
  32   1    -0.02   0.01  -0.04    -0.00   0.00  -0.00    -0.00  -0.00  -0.00
  33   1     0.11   0.40  -0.18     0.00   0.01  -0.00    -0.00  -0.01   0.00
  34   1     0.01  -0.07   0.12    -0.01   0.01  -0.02     0.00  -0.00   0.01
                     61                     62                     63
                        a                      a                      a 
 Frequencies --  1273.1087              1275.0169              1298.7053
 Red. masses --     3.2591                 3.4440                 4.1183
 Frc consts  --     0.0000                 0.0000                 0.0000
 IR Inten    --     2.1154                 1.3380                32.0114
 Raman Activ --     0.0000                 0.0000                 0.0000
 Depolar     --     0.0000                 0.0000                 0.0000
 Atom AN      X      Y      Z        X      Y      Z        X      Y      Z
   1   7    -0.01  -0.01  -0.04     0.00   0.00   0.00     0.14  -0.10  -0.03
   2   6    -0.03  -0.02  -0.07     0.00   0.01   0.00     0.04   0.30  -0.09
   3   6    -0.01   0.01   0.07    -0.01   0.00  -0.00     0.20   0.23  -0.13
   4   6     0.11   0.04   0.06     0.02   0.00  -0.01    -0.11  -0.10   0.05
   5   6     0.17   0.06   0.05    -0.00  -0.00  -0.01    -0.04  -0.01   0.01
   6   6     0.03   0.00  -0.04    -0.02  -0.00   0.01     0.03   0.02   0.04
   7   6    -0.03   0.02   0.15     0.01   0.00  -0.01    -0.05  -0.00   0.03
   8   6    -0.10  -0.03   0.03     0.00   0.00   0.01     0.02  -0.00  -0.05
   9   6    -0.13  -0.08  -0.27    -0.02   0.00   0.01     0.05   0.01  -0.03
  10   7     0.01   0.00   0.03     0.01  -0.02  -0.01    -0.02  -0.00   0.01
  11   7     0.02  -0.01  -0.01     0.03   0.04   0.00    -0.01  -0.00   0.00
  12   6    -0.02  -0.01  -0.02    -0.20  -0.18  -0.16     0.00   0.00  -0.00
  13   6     0.00   0.01  -0.00    -0.02  -0.12   0.09     0.00   0.01  -0.00
  14   6     0.00  -0.00   0.01     0.07  -0.01   0.12    -0.00  -0.00  -0.00
  15   6     0.00  -0.00   0.00     0.10   0.08   0.10    -0.00  -0.00  -0.00
  16   6     0.01   0.01   0.00     0.07   0.12   0.00     0.00   0.00   0.00
  17   6     0.00   0.00  -0.00    -0.03   0.10  -0.15     0.00  -0.00   0.00
  18  17    -0.00   0.00  -0.00    -0.00  -0.00   0.00    -0.00  -0.00  -0.00
  19   1    -0.00   0.00   0.01    -0.01  -0.00  -0.00    -0.19  -0.00   0.05
  20   1     0.03   0.00  -0.00    -0.00   0.00  -0.00    -0.02   0.01  -0.04
  21   1    -0.02  -0.00   0.01     0.00  -0.00  -0.00    -0.03   0.01   0.06
  22   1     0.09   0.18  -0.07    -0.01  -0.02   0.01    -0.25  -0.28   0.16
  23   1    -0.09  -0.17   0.09     0.01   0.01  -0.01    -0.28  -0.31   0.19
  24   1    -0.14  -0.21   0.11     0.00   0.01  -0.00    -0.19  -0.32   0.13
  25   1     0.09   0.17  -0.09    -0.02  -0.03   0.02    -0.17  -0.29   0.18
  26   1    -0.30  -0.11  -0.03     0.02   0.01  -0.00     0.05   0.01   0.01
  27   1    -0.29  -0.02   0.37     0.00  -0.00  -0.01     0.05   0.00  -0.03
  28   1     0.24   0.03  -0.28    -0.01   0.00   0.02     0.02  -0.01  -0.03
  29   1     0.32   0.11   0.06    -0.01  -0.00   0.00     0.05   0.01  -0.01
  30   1     0.01   0.02  -0.01     0.16   0.46  -0.14     0.00  -0.00   0.00
  31   1    -0.00   0.00  -0.01    -0.09   0.13  -0.29     0.00  -0.00   0.01
  32   1    -0.00  -0.00  -0.00    -0.16  -0.14  -0.15     0.00   0.00   0.00
  33   1    -0.00  -0.01   0.01    -0.11  -0.33   0.13     0.00   0.00  -0.00
  34   1     0.01  -0.01   0.03     0.15  -0.15   0.40    -0.00   0.00  -0.00
                     64                     65                     66
                        a                      a                      a 
 Frequencies --  1333.1544              1339.9829              1356.3058
 Red. masses --    11.5724                11.3733                 4.5306
 Frc consts  --     0.0000                 0.0000                 0.0000
 IR Inten    --     7.6019                 2.1893                 8.0588
 Raman Activ --     0.0000                 0.0000                 0.0000
 Depolar     --     0.0000                 0.0000                 0.0000
 Atom AN      X      Y      Z        X      Y      Z        X      Y      Z
   1   7    -0.00   0.00  -0.00     0.01  -0.00   0.00     0.07  -0.06  -0.01
   2   6     0.00  -0.00   0.02     0.00   0.01  -0.03     0.21   0.24  -0.13
   3   6     0.00   0.00   0.01    -0.02  -0.01  -0.02    -0.28  -0.26   0.17
   4   6    -0.06  -0.05  -0.20     0.12   0.10   0.35     0.05   0.07  -0.05
   5   6     0.14   0.05   0.02    -0.27  -0.10  -0.03     0.05   0.01   0.01
   6   6    -0.11  -0.01   0.17     0.20   0.01  -0.29    -0.03  -0.02  -0.02
   7   6    -0.08  -0.01   0.12     0.18   0.02  -0.24     0.01  -0.00  -0.02
   8   6     0.17   0.06   0.05    -0.32  -0.11  -0.06     0.03   0.01   0.03
   9   6    -0.08  -0.05  -0.19     0.14   0.10   0.34    -0.04  -0.01   0.00
  10   7     0.00  -0.01   0.00    -0.02  -0.00  -0.02     0.01  -0.00  -0.00
  11   7     0.02  -0.00   0.00     0.01   0.01   0.02    -0.00   0.00  -0.00
  12   6    -0.26  -0.21  -0.24    -0.14  -0.12  -0.13     0.00  -0.00   0.00
  13   6     0.13   0.34  -0.09     0.06   0.18  -0.05     0.00   0.00  -0.00
  14   6     0.09  -0.10   0.26     0.05  -0.06   0.16    -0.00  -0.00  -0.00
  15   6    -0.23  -0.21  -0.21    -0.13  -0.11  -0.12     0.00  -0.00   0.00
  16   6     0.11   0.27  -0.08     0.06   0.16  -0.05     0.00   0.00  -0.00
  17   6     0.13  -0.10   0.31     0.07  -0.06   0.17    -0.00   0.00  -0.00
  18  17     0.00   0.00   0.00    -0.00  -0.00  -0.00     0.00  -0.00   0.00
  19   1     0.01   0.00   0.01    -0.01  -0.00  -0.01    -0.05  -0.01   0.01
  20   1     0.00  -0.00   0.00    -0.01   0.01  -0.01    -0.07   0.02  -0.05
  21   1     0.00   0.01  -0.00    -0.00  -0.01   0.01    -0.05   0.04   0.08
  22   1     0.00  -0.01   0.00    -0.01   0.01   0.00    -0.22  -0.29   0.17
  23   1     0.01   0.03  -0.01    -0.02  -0.04   0.02    -0.24  -0.30   0.16
  24   1     0.05   0.05  -0.04    -0.08  -0.08   0.06     0.21   0.32  -0.16
  25   1    -0.07  -0.06   0.03     0.11   0.10  -0.05     0.19   0.29  -0.16
  26   1     0.06   0.02   0.01    -0.08  -0.02  -0.01    -0.03  -0.00  -0.01
  27   1     0.00   0.00   0.00     0.00   0.00  -0.01    -0.03  -0.00   0.02
  28   1    -0.03  -0.00   0.05     0.04   0.00  -0.06    -0.03   0.01   0.03
  29   1     0.01   0.01   0.01    -0.01  -0.02  -0.00    -0.04  -0.01   0.00
  30   1     0.01   0.01   0.00     0.01   0.01  -0.00     0.00   0.00  -0.00
  31   1     0.03  -0.03   0.07     0.01  -0.01   0.02     0.00  -0.00  -0.00
  32   1     0.04   0.03   0.03     0.01   0.01   0.01    -0.00  -0.00  -0.00
  33   1     0.02   0.05  -0.01     0.01   0.02  -0.01    -0.00  -0.00   0.00
  34   1     0.00   0.00   0.04    -0.00   0.00   0.01    -0.00  -0.00   0.00
                     67                     68                     69
                        a                      a                      a 
 Frequencies --  1395.1140              1402.6774              1411.9618
 Red. masses --     2.4017                 1.9955                 9.9199
 Frc consts  --     0.0000                 0.0000                 0.0000
 IR Inten    --   203.7106               136.8619                 3.6219
 Raman Activ --     0.0000                 0.0000                 0.0000
 Depolar     --     0.0000                 0.0000                 0.0000
 Atom AN      X      Y      Z        X      Y      Z        X      Y      Z
   1   7    -0.19  -0.13   0.22    -0.23  -0.09  -0.03     0.01   0.00   0.01
   2   6     0.02   0.05   0.01    -0.01   0.07  -0.08     0.01  -0.00   0.01
   3   6     0.00   0.03  -0.01     0.00  -0.00   0.01     0.01   0.01   0.06
   4   6     0.00  -0.01   0.00     0.00  -0.00  -0.01    -0.07  -0.07  -0.27
   5   6     0.00   0.00  -0.01    -0.03  -0.01   0.01    -0.33  -0.08   0.18
   6   6    -0.01  -0.00   0.01     0.02   0.01  -0.00     0.33   0.10   0.00
   7   6    -0.01  -0.00   0.01     0.02   0.01  -0.00     0.37   0.10  -0.09
   8   6     0.01   0.00  -0.01    -0.02  -0.01   0.01    -0.29  -0.05   0.24
   9   6     0.00   0.00   0.00    -0.00  -0.00  -0.01    -0.10  -0.07  -0.34
  10   7     0.00  -0.00  -0.00     0.00  -0.00   0.00    -0.01   0.00   0.05
  11   7    -0.00   0.00  -0.00    -0.00   0.00  -0.00     0.02  -0.01  -0.01
  12   6    -0.00  -0.00   0.00    -0.00  -0.00  -0.00    -0.04  -0.04  -0.02
  13   6     0.00  -0.00   0.00     0.00  -0.00   0.00     0.03  -0.00   0.05
  14   6     0.00  -0.00   0.00     0.00   0.00  -0.00    -0.01   0.05  -0.08
  15   6    -0.00  -0.00  -0.00    -0.00  -0.00  -0.00    -0.02  -0.03  -0.00
  16   6     0.00  -0.00   0.00    -0.00  -0.01   0.00     0.01  -0.05   0.06
  17   6     0.00  -0.00   0.00     0.00   0.00  -0.00     0.01   0.06  -0.05
  18  17    -0.00  -0.00   0.00    -0.00  -0.00   0.00     0.00   0.00  -0.00
  19   1     0.34  -0.18  -0.51     0.37   0.09   0.42    -0.01  -0.01  -0.03
  20   1     0.24   0.54  -0.29     0.22  -0.18   0.18    -0.01   0.02  -0.02
  21   1     0.13   0.10  -0.10     0.41   0.40  -0.36    -0.02  -0.01   0.02
  22   1    -0.00  -0.07  -0.01    -0.09  -0.10   0.04     0.00  -0.01   0.00
  23   1    -0.03  -0.07   0.05     0.01  -0.06   0.04    -0.00   0.01  -0.00
  24   1    -0.01  -0.03   0.00    -0.02  -0.02   0.01     0.07   0.05  -0.05
  25   1    -0.02  -0.03   0.03    -0.01  -0.00  -0.00    -0.09  -0.05   0.03
  26   1    -0.00  -0.00  -0.00     0.01   0.01   0.01     0.19   0.08   0.09
  27   1     0.00  -0.00  -0.01    -0.00   0.00   0.01    -0.03   0.02   0.16
  28   1     0.00  -0.00  -0.01    -0.00   0.00   0.01    -0.06   0.02   0.19
  29   1     0.00  -0.00  -0.00     0.01   0.00   0.01     0.14   0.06   0.10
  30   1     0.00   0.00  -0.00     0.00   0.00  -0.00     0.01   0.00   0.01
  31   1    -0.00   0.00  -0.00     0.00   0.00   0.00     0.02  -0.01   0.05
  32   1    -0.00   0.00  -0.00     0.00   0.00   0.00     0.04   0.03   0.04
  33   1    -0.00   0.00  -0.00     0.00   0.00   0.00     0.01   0.02   0.01
  34   1     0.00  -0.00   0.00     0.00  -0.00   0.00     0.02  -0.00   0.04
                     70                     71                     72
                        a                      a                      a 
 Frequencies --  1432.9222              1433.6424              1451.5585
 Red. masses --     8.5209                 2.3934                 9.2605
 Frc consts  --     0.0000                 0.0000                 0.0000
 IR Inten    --     4.5013                72.9678                10.3012
 Raman Activ --     0.0000                 0.0000                 0.0000
 Depolar     --     0.0000                 0.0000                 0.0000
[...]
  34   1    -0.00   0.01  -0.01     0.00  -0.01   0.02    -0.01   0.05  -0.05
                     79                     80                     81
                        a                      a                      a 
 Frequencies --  1601.3263              1609.5210              2945.9319
 Red. masses --    11.5392                11.6960                 1.9179
 Frc consts  --     0.0000                 0.0000                 0.0000
 IR Inten    --    11.2662                 9.9775                 6.8774
 Raman Activ --     0.0000                 0.0000                 0.0000
 Depolar     --     0.0000                 0.0000                 0.0000
 Atom AN      X      Y      Z        X      Y      Z        X      Y      Z
   1   7     0.00   0.00  -0.00     0.00   0.00  -0.00    -0.00   0.00  -0.00
   2   6    -0.00  -0.01   0.00    -0.01  -0.01   0.00     0.06   0.04   0.16
   3   6    -0.03  -0.00   0.01    -0.04  -0.00   0.02    -0.06  -0.08  -0.21
   4   6     0.14   0.04  -0.05     0.24   0.06  -0.10    -0.00  -0.00  -0.01
   5   6    -0.23  -0.07   0.01    -0.40  -0.12   0.04    -0.00   0.00   0.00
   6   6     0.16   0.03  -0.10     0.30   0.06  -0.21     0.00  -0.00  -0.00
   7   6    -0.17  -0.03   0.15    -0.31  -0.06   0.27     0.00   0.00   0.00
   8   6     0.18   0.06  -0.03     0.35   0.10  -0.06    -0.00  -0.00  -0.00
   9   6    -0.08  -0.01   0.01    -0.13  -0.03   0.05     0.00   0.00   0.00
  10   7     0.04  -0.03   0.03    -0.15   0.06  -0.05    -0.00  -0.00  -0.00
  11   7    -0.03   0.03  -0.03     0.14  -0.07   0.06     0.00  -0.00   0.00
  12   6    -0.03   0.10  -0.12     0.00  -0.06   0.06     0.00  -0.00   0.00
  13   6    -0.04  -0.31   0.21     0.03   0.17  -0.11     0.00   0.00   0.00
  14   6    -0.09   0.22  -0.37     0.04  -0.11   0.18     0.00   0.00   0.00
  15   6     0.02  -0.13   0.15    -0.00   0.07  -0.07    -0.00  -0.00   0.00
  16   6     0.07   0.35  -0.21    -0.04  -0.18   0.10     0.00   0.00   0.00
  17   6     0.06  -0.22   0.33    -0.03   0.12  -0.17     0.00   0.00   0.00
  18  17     0.00   0.00   0.00     0.00   0.00   0.00     0.00   0.00   0.00
  19   1     0.00   0.00  -0.00     0.00   0.00  -0.00    -0.00  -0.00  -0.00
  20   1    -0.00  -0.00   0.00    -0.00  -0.00   0.00    -0.00   0.00   0.01
  21   1    -0.00  -0.00   0.00    -0.00  -0.00   0.00     0.01  -0.00   0.01
  22   1     0.00   0.00  -0.00     0.00   0.00  -0.00    -0.31   0.08  -0.29
  23   1     0.00   0.00  -0.00     0.00   0.00  -0.00     0.09  -0.23  -0.28
  24   1    -0.00  -0.01  -0.00    -0.00  -0.01  -0.00     0.34  -0.09   0.30
  25   1     0.00  -0.00   0.01     0.00  -0.01   0.01    -0.13   0.37   0.47
  26   1     0.05   0.02   0.02     0.08   0.04   0.03     0.00  -0.00  -0.00
  27   1    -0.01   0.01   0.04    -0.02   0.01   0.07     0.00   0.00   0.00
  28   1     0.03  -0.00  -0.05     0.04  -0.00  -0.09    -0.00  -0.00  -0.00
  29   1    -0.03  -0.01  -0.02    -0.06  -0.03  -0.04     0.00   0.00   0.00
  30   1     0.04   0.07   0.01    -0.02  -0.04  -0.00    -0.00  -0.00  -0.00
  31   1     0.04  -0.02   0.09    -0.02   0.00  -0.04    -0.00  -0.00   0.00
  32   1    -0.00  -0.04   0.03     0.00   0.02  -0.02     0.00   0.00  -0.00
  33   1    -0.04  -0.09   0.01     0.02   0.04  -0.00    -0.00   0.00  -0.00
  34   1    -0.04   0.00  -0.07     0.02  -0.00   0.04    -0.00  -0.00   0.00
                     82                     83                     84
                        a                      a                      a 
 Frequencies --  2958.1376              2976.1081              2985.0885
 Red. masses --     1.9852                 1.5141                 1.5374
 Frc consts  --     0.0000                 0.0000                 0.0000
 IR Inten    --    34.6786                 7.8705                47.9231
 Raman Activ --     0.0000                 0.0000                 0.0000
 Depolar     --     0.0000                 0.0000                 0.0000
 Atom AN      X      Y      Z        X      Y      Z        X      Y      Z
   1   7     0.00   0.00   0.00     0.00  -0.00  -0.00    -0.00   0.01  -0.00
   2   6    -0.10  -0.05  -0.21     0.08  -0.09  -0.05     0.13  -0.12  -0.03
   3   6    -0.03  -0.07  -0.16    -0.14   0.09  -0.04     0.10  -0.08   0.01
   4   6    -0.00  -0.00  -0.01    -0.01   0.00   0.00     0.00  -0.00  -0.00
   5   6    -0.00   0.00   0.00     0.00   0.00  -0.00    -0.00  -0.00   0.00
   6   6     0.00   0.00  -0.00     0.00  -0.00  -0.00     0.00   0.00   0.00
   7   6     0.00   0.00   0.00     0.00   0.00   0.00    -0.00  -0.00   0.00
   8   6    -0.00  -0.00  -0.00    -0.00  -0.00  -0.00     0.00   0.00  -0.00
   9   6     0.00   0.00   0.00     0.00   0.00   0.00    -0.00  -0.00   0.00
  10   7    -0.00   0.00  -0.00    -0.00   0.00  -0.00    -0.00  -0.00  -0.00
  11   7     0.00  -0.00   0.00    -0.00   0.00  -0.00     0.00   0.00  -0.00
  12   6     0.00   0.00   0.00    -0.00  -0.00   0.00    -0.00  -0.00   0.00
  13   6    -0.00  -0.00  -0.00     0.00   0.00   0.00     0.00   0.00   0.00
  14   6    -0.00  -0.00   0.00     0.00   0.00  -0.00     0.00  -0.00  -0.00
  15   6     0.00   0.00  -0.00    -0.00  -0.00   0.00    -0.00  -0.00   0.00
  16   6    -0.00  -0.00  -0.00     0.00   0.00   0.00     0.00   0.00   0.00
  17   6    -0.00  -0.00  -0.00     0.00   0.00  -0.00     0.00   0.00   0.00
  18  17    -0.00   0.00  -0.00    -0.00   0.00  -0.00     0.00  -0.00   0.00
  19   1     0.00  -0.00   0.00     0.00   0.01  -0.00     0.00  -0.01   0.00
  20   1     0.00  -0.01  -0.01     0.00  -0.01  -0.01     0.00  -0.01  -0.01
  21   1    -0.02   0.00  -0.02     0.01   0.00   0.01     0.02  -0.01   0.02
  22   1     0.45  -0.11   0.43    -0.20   0.03  -0.22    -0.35   0.06  -0.36
  23   1    -0.10   0.26   0.32    -0.10   0.29   0.40    -0.11   0.34   0.48
  24   1     0.20  -0.05   0.17     0.46  -0.09   0.47    -0.32   0.06  -0.32
  25   1    -0.11   0.31   0.39     0.06  -0.24  -0.33    -0.06   0.21   0.29
  26   1     0.00  -0.00  -0.00    -0.00   0.00   0.00     0.00  -0.00  -0.00
  27   1     0.00   0.00   0.00    -0.00  -0.00  -0.00    -0.00  -0.00  -0.00
  28   1    -0.00  -0.00  -0.00    -0.00  -0.00  -0.00     0.00   0.00   0.00
  29   1    -0.00   0.00   0.00    -0.00   0.00   0.00    -0.00   0.00   0.00
  30   1     0.00   0.00   0.00    -0.00  -0.00  -0.00    -0.00  -0.00  -0.00
  31   1     0.00   0.00   0.00    -0.00  -0.00  -0.00    -0.00   0.00  -0.00
  32   1    -0.00  -0.00   0.00     0.00   0.00  -0.00    -0.00   0.00  -0.00
  33   1     0.00  -0.00   0.00    -0.00  -0.00  -0.00    -0.00  -0.00  -0.00
  34   1     0.00  -0.00  -0.00    -0.00  -0.00  -0.00    -0.00  -0.00  -0.00
                     85                     86                     87
                        a                      a                      a 
 Frequencies --  3096.4001              3100.4511              3110.9315
 Red. masses --     1.7544                 1.8140                 1.7991
 Frc consts  --     0.0000                 0.0000                 0.0000
 IR Inten    --     0.2643                40.8340                10.0437
 Raman Activ --     0.0000                 0.0000                 0.0000
 Depolar     --     0.0000                 0.0000                 0.0000
 Atom AN      X      Y      Z        X      Y      Z        X      Y      Z
   1   7     0.00  -0.00   0.00     0.00  -0.00   0.00    -0.00   0.00  -0.00
   2   6    -0.00   0.00  -0.00    -0.00  -0.00  -0.00     0.00   0.00   0.00
   3   6    -0.00  -0.00   0.00     0.00   0.00   0.00     0.00   0.00   0.00
   4   6    -0.00   0.00   0.00    -0.00   0.00   0.00    -0.00   0.00   0.00
   5   6    -0.00   0.00   0.00    -0.00   0.00   0.00    -0.03   0.02   0.19
   6   6    -0.00  -0.00  -0.00    -0.00  -0.00  -0.00    -0.05  -0.02  -0.04
   7   6    -0.00  -0.00  -0.00    -0.00  -0.00  -0.00     0.11   0.05   0.09
   8   6     0.00  -0.00  -0.00     0.00  -0.00  -0.00     0.01  -0.01  -0.06
   9   6    -0.00  -0.00   0.00     0.00   0.00   0.00    -0.00  -0.00  -0.00
  10   7     0.00  -0.00   0.00     0.00  -0.00  -0.00    -0.00   0.00   0.00
  11   7     0.00   0.00  -0.00     0.00   0.00   0.00     0.00  -0.00  -0.00
  12   6    -0.00   0.00  -0.00    -0.00  -0.00  -0.00     0.00   0.00  -0.00
  13   6    -0.01  -0.00  -0.02    -0.02  -0.00  -0.03    -0.00  -0.00  -0.01
  14   6     0.09   0.13   0.03     0.09   0.15   0.02     0.01   0.01   0.00
  15   6     0.00  -0.12   0.11     0.00   0.02  -0.02     0.00   0.02  -0.02
  16   6    -0.06  -0.01  -0.10     0.10   0.02   0.17    -0.01  -0.00  -0.01
  17   6     0.01   0.01   0.00    -0.02  -0.03  -0.00     0.00   0.00   0.00
  18  17    -0.00   0.00  -0.00    -0.00  -0.00  -0.00     0.00  -0.00   0.00
  19   1     0.00   0.00  -0.00     0.00   0.00  -0.00    -0.00  -0.00  -0.00
  20   1    -0.00   0.00   0.00     0.00  -0.00  -0.00    -0.00   0.00   0.00
  21   1    -0.00   0.00  -0.00    -0.00   0.00  -0.00     0.01  -0.00   0.01
  22   1     0.00  -0.00   0.00     0.00   0.00   0.00    -0.00   0.00  -0.00
  23   1    -0.00  -0.00  -0.00    -0.00   0.00   0.00    -0.00  -0.00  -0.00
  24   1    -0.00   0.00  -0.00    -0.00   0.00  -0.00    -0.00   0.00  -0.00
  25   1     0.00   0.00  -0.00     0.00  -0.00  -0.00     0.00  -0.00  -0.00
  26   1     0.00  -0.00  -0.00     0.00  -0.00  -0.00     0.11  -0.07  -0.68
  27   1     0.00   0.00   0.00     0.00   0.00   0.00     0.19   0.08   0.15
  28   1     0.00   0.00   0.00     0.00   0.00   0.00    -0.40  -0.19  -0.33
  29   1    -0.00   0.00   0.00    -0.00   0.00   0.01    -0.04   0.03   0.24
  30   1     0.05   0.01   0.08     0.08   0.01   0.12     0.02   0.00   0.03
  31   1    -0.31  -0.49  -0.09    -0.33  -0.52  -0.09    -0.02  -0.03  -0.01
  32   1    -0.00   0.44  -0.42    -0.00  -0.07   0.06     0.00  -0.06   0.06
  33   1     0.24   0.05   0.37    -0.37  -0.08  -0.59     0.03   0.01   0.04
  34   1    -0.03  -0.05  -0.01     0.08   0.13   0.02    -0.01  -0.01  -0.00
                     88                     89                     90
                        a                      a                      a 
 Frequencies --  3111.6721              3113.0146              3125.4526
 Red. masses --     1.8787                 1.7929                 1.8569
 Frc consts  --     0.0000                 0.0000                 0.0000
 IR Inten    --   118.8747                45.7544               273.1962
 Raman Activ --     0.0000                 0.0000                 0.0000
 Depolar     --     0.0000                 0.0000                 0.0000
 Atom AN      X      Y      Z        X      Y      Z        X      Y      Z
   1   7     0.00  -0.00   0.00    -0.00   0.00  -0.00    -0.00   0.00  -0.00
   2   6     0.00  -0.00   0.00    -0.00   0.00   0.00    -0.00   0.00  -0.00
   3   6    -0.00  -0.00  -0.00     0.00  -0.00   0.00     0.00   0.00   0.00
   4   6    -0.00  -0.00  -0.00     0.01   0.00  -0.00     0.00  -0.00  -0.00
   5   6     0.00  -0.00  -0.01     0.02  -0.02  -0.16    -0.01   0.00   0.04
   6   6     0.00   0.00   0.00     0.04   0.02   0.03     0.07   0.03   0.06
   7   6    -0.02  -0.01  -0.02     0.14   0.06   0.11     0.05   0.02   0.04
   8   6    -0.00   0.00   0.01     0.01  -0.01  -0.08    -0.03   0.02   0.14
   9   6     0.00   0.00   0.00     0.00   0.00  -0.00    -0.00   0.00   0.00
  10   7     0.00  -0.00   0.00     0.00   0.00   0.00     0.00  -0.00  -0.00
  11   7     0.00  -0.00  -0.00    -0.00   0.00  -0.00     0.00  -0.00  -0.00
  12   6    -0.00   0.00  -0.00    -0.00   0.00  -0.00     0.00   0.00   0.00
  13   6    -0.03  -0.01  -0.04    -0.00  -0.00  -0.00     0.07   0.01   0.11
  14   6     0.06   0.09   0.02     0.00   0.01   0.00     0.02   0.03   0.01
  15   6    -0.00   0.15  -0.14    -0.00   0.01  -0.01    -0.00  -0.00  -0.00
  16   6    -0.07  -0.01  -0.10    -0.00  -0.00  -0.00     0.02   0.00   0.03
  17   6     0.03   0.05   0.01     0.00   0.01   0.00     0.07   0.12   0.02
  18  17    -0.00   0.00  -0.00    -0.00  -0.00   0.00     0.00  -0.00   0.00
  19   1     0.00   0.00  -0.00    -0.00  -0.00   0.00    -0.00  -0.00  -0.00
  20   1     0.00  -0.00  -0.00    -0.00   0.00   0.00    -0.00   0.00   0.00
  21   1    -0.00   0.00  -0.00     0.00  -0.00   0.00     0.01  -0.00   0.01
  22   1    -0.00   0.00  -0.00     0.00  -0.00   0.00     0.00   0.00   0.00
  23   1     0.00   0.00  -0.00     0.00  -0.00  -0.00    -0.00  -0.00  -0.00
  24   1     0.00  -0.00   0.00    -0.00   0.00  -0.00    -0.00   0.00  -0.00
  25   1    -0.00   0.00   0.00    -0.00   0.00   0.00     0.00  -0.00  -0.00
  26   1    -0.01   0.01   0.05    -0.09   0.06   0.56     0.02  -0.01  -0.13
  27   1    -0.01  -0.01  -0.01    -0.16  -0.07  -0.13    -0.25  -0.11  -0.20
  28   1     0.08   0.04   0.06    -0.49  -0.23  -0.40    -0.17  -0.08  -0.14
  29   1     0.01  -0.00  -0.03    -0.06   0.04   0.32     0.09  -0.06  -0.50
  30   1     0.11   0.02   0.17     0.01   0.00   0.01    -0.25  -0.05  -0.38
  31   1    -0.20  -0.31  -0.06    -0.01  -0.02  -0.00    -0.06  -0.09  -0.02
  32   1     0.00  -0.51   0.49     0.00  -0.02   0.02     0.00   0.00   0.00
  33   1     0.22   0.05   0.35     0.01   0.00   0.01    -0.06  -0.01  -0.09
  34   1    -0.12  -0.19  -0.03    -0.01  -0.02  -0.00    -0.26  -0.41  -0.07
                     91                     92                     93
                        a                      a                      a 
 Frequencies --  3126.9644              3129.3953              3130.1519
 Red. masses --     1.8588                 1.8615                 1.8632
 Frc consts  --     0.0000                 0.0000                 0.0000
 IR Inten    --    23.0655                12.3650                10.2285
 Raman Activ --     0.0000                 0.0000                 0.0000
 Depolar     --     0.0000                 0.0000                 0.0000
 Atom AN      X      Y      Z        X      Y      Z        X      Y      Z
   1   7     0.00  -0.00   0.00     0.01  -0.00   0.01     0.01  -0.00   0.01
   2   6    -0.00  -0.00  -0.00     0.00  -0.00   0.00     0.00   0.00   0.00
   3   6    -0.00   0.00  -0.00    -0.00  -0.00  -0.00     0.00  -0.00  -0.00
   4   6    -0.00  -0.00   0.00     0.00   0.00  -0.00     0.00   0.00  -0.00
   5   6     0.00  -0.00  -0.02     0.01  -0.00  -0.05     0.01  -0.01  -0.08
   6   6    -0.05  -0.02  -0.04    -0.08  -0.04  -0.06    -0.15  -0.07  -0.12
   7   6    -0.06  -0.03  -0.05     0.01   0.01   0.01     0.04   0.02   0.03
   8   6     0.03  -0.02  -0.16    -0.00   0.00   0.03    -0.02   0.01   0.11
   9   6     0.00   0.00  -0.00    -0.00  -0.00   0.00    -0.01  -0.00   0.00
  10   7     0.00   0.00   0.00    -0.00   0.00  -0.00    -0.00  -0.00   0.00
  11   7    -0.00   0.00  -0.00     0.00  -0.00   0.00     0.00   0.00  -0.00
  12   6     0.00   0.00  -0.00     0.00  -0.01   0.01    -0.00   0.00  -0.00
  13   6     0.05   0.01   0.08     0.10   0.02   0.16    -0.04  -0.01  -0.06
  14   6     0.01   0.02   0.00     0.03   0.05   0.01    -0.01  -0.02  -0.00
  15   6    -0.00  -0.01   0.01    -0.00   0.03  -0.03    -0.00  -0.02   0.01
  16   6     0.02   0.00   0.04    -0.03  -0.01  -0.04     0.02   0.00   0.03
  17   6     0.08   0.13   0.02    -0.07  -0.11  -0.02     0.05   0.07   0.01
  18  17    -0.00  -0.00  -0.00    -0.00   0.00  -0.00    -0.00   0.00  -0.00
  19   1     0.00   0.00  -0.00     0.00   0.00   0.00     0.00   0.00   0.00
  20   1     0.00  -0.00  -0.00     0.00  -0.00  -0.00     0.00  -0.00  -0.00
  21   1    -0.01   0.00  -0.01    -0.02   0.01  -0.02    -0.02   0.01  -0.02
  22   1     0.00  -0.00   0.00    -0.00   0.00  -0.00    -0.00   0.00  -0.00
  23   1    -0.00   0.00   0.00    -0.00   0.00   0.00    -0.00   0.00   0.00
  24   1     0.00  -0.00   0.00    -0.00   0.00  -0.00    -0.00   0.00  -0.00
  25   1     0.00  -0.00  -0.00    -0.00   0.00   0.00    -0.00   0.00   0.00
  26   1    -0.01   0.01   0.06    -0.02   0.02   0.15    -0.04   0.03   0.26
  27   1     0.18   0.08   0.15     0.28   0.12   0.23     0.51   0.23   0.42
  28   1     0.19   0.09   0.16    -0.04  -0.02  -0.03    -0.13  -0.06  -0.11
  29   1    -0.10   0.07   0.57     0.02  -0.01  -0.10     0.07  -0.05  -0.38
  30   1    -0.19  -0.04  -0.29    -0.36  -0.07  -0.56     0.14   0.03   0.22
  31   1    -0.03  -0.05  -0.01    -0.10  -0.16  -0.03     0.04   0.06   0.01
  32   1     0.00   0.03  -0.02     0.00  -0.11   0.10    -0.00   0.05  -0.05
  33   1    -0.07  -0.02  -0.12     0.08   0.02   0.13    -0.05  -0.01  -0.08
  34   1    -0.29  -0.46  -0.08     0.24   0.38   0.07    -0.16  -0.26  -0.05
                     94                     95                     96
                        a                      a                      a 
 Frequencies --  3136.3601              3234.5893              3253.0600
 Red. masses --     1.9286                 2.0057                 1.4894
 Frc consts  --     0.0000                 0.0000                 0.0000
 IR Inten    --   523.9818               172.3774                89.2501
 Raman Activ --     0.0000                 0.0000                 0.0000
 Depolar     --     0.0000                 0.0000                 0.0000
 Atom AN      X      Y      Z        X      Y      Z        X      Y      Z
   1   7     0.17  -0.05   0.20    -0.01   0.27   0.04    -0.07   0.02   0.18
   2   6     0.01  -0.00   0.01    -0.00   0.00   0.00    -0.01   0.00   0.01
   3   6     0.00  -0.00   0.00    -0.00  -0.00   0.00     0.00   0.00  -0.00
   4   6     0.00  -0.00  -0.00     0.00  -0.00  -0.00    -0.00   0.00  -0.00
   5   6    -0.00   0.00   0.01    -0.00   0.00   0.00     0.00   0.00  -0.00
   6   6     0.01   0.00   0.01     0.00   0.00   0.00    -0.00  -0.00  -0.00
   7   6     0.00   0.00   0.00    -0.00  -0.00  -0.00     0.00   0.00   0.00
   8   6     0.00  -0.00  -0.00    -0.00   0.00   0.00    -0.00   0.00   0.00
   9   6     0.00   0.00  -0.00     0.00  -0.00  -0.00    -0.00   0.00   0.00
  10   7     0.00  -0.00   0.00     0.00   0.00  -0.00    -0.00   0.00  -0.00
  11   7    -0.00   0.00  -0.00    -0.00  -0.00   0.00     0.00  -0.00   0.00
  12   6    -0.00   0.00  -0.00    -0.00  -0.00  -0.00    -0.00  -0.00   0.00
  13   6    -0.00  -0.00  -0.00    -0.00  -0.00  -0.00     0.00   0.00   0.00
  14   6    -0.00  -0.00  -0.00     0.00   0.00   0.00     0.00  -0.00   0.00
  15   6    -0.00  -0.00   0.00     0.00   0.00  -0.00     0.00  -0.00   0.00
  16   6     0.00   0.00   0.00     0.00   0.00   0.00    -0.00  -0.00  -0.00
  17   6     0.00   0.00   0.00     0.00   0.00   0.00    -0.00  -0.00   0.00
  18  17    -0.00   0.00  -0.00     0.00  -0.00   0.00    -0.00  -0.00  -0.00
  19   1     0.02   0.09  -0.01    -0.02  -0.82   0.23     0.00   0.44  -0.10
  20   1     0.04  -0.06  -0.06     0.09  -0.24  -0.36     0.18  -0.49  -0.68
  21   1    -0.67   0.15  -0.66    -0.03   0.03  -0.03     0.10  -0.02   0.12
  22   1    -0.03   0.01  -0.03    -0.00  -0.00  -0.00     0.01  -0.00   0.00
  23   1    -0.00   0.00   0.00     0.00  -0.01  -0.01     0.01  -0.01  -0.02
  24   1    -0.00   0.00  -0.01     0.00  -0.00   0.00    -0.00   0.00  -0.00
  25   1     0.00   0.00   0.00     0.00  -0.00  -0.00    -0.00   0.00   0.00
  26   1     0.00  -0.00  -0.02     0.00  -0.00  -0.00    -0.00  -0.00   0.00
  27   1    -0.03  -0.01  -0.03    -0.00  -0.00  -0.00     0.00   0.00   0.00
  28   1    -0.01  -0.00  -0.00     0.00   0.00   0.00    -0.00  -0.00  -0.00
  29   1    -0.00   0.00   0.01     0.00  -0.00  -0.00     0.00  -0.00  -0.00
  30   1     0.00   0.00   0.01     0.00  -0.00   0.00    -0.00  -0.00  -0.00
  31   1     0.00   0.00   0.00    -0.00  -0.00  -0.00     0.00   0.00   0.00
  32   1     0.00   0.00  -0.00    -0.00  -0.00   0.00    -0.00   0.00  -0.00
  33   1    -0.00  -0.00  -0.00    -0.00  -0.00   0.00     0.00   0.00   0.00
  34   1    -0.00  -0.00  -0.00    -0.00  -0.00  -0.00     0.00   0.00   0.00
