 Entering Gaussian System
 *********************************************
 Gaussian 98:
 frequency output generated by the xtb code
 *********************************************
                         Standard orientation:
 --------------------------------------------------------------------
  Center     Atomic     Atomic              Coordinates (Angstroms)
  Number     Number      Type              X           Y           Z
 --------------------------------------------------------------------
    1          7             0       -6.666592    2.714302   -1.590332
    2          6             0       -7.528618    1.496977   -1.595176
    3          6             0       -7.572417    0.794449   -0.236945
    4          6             0       -6.290299    0.137073    0.145602
    5          6             0       -6.167063   -1.004956    0.887993
    6          6             0       -4.833124   -1.405293    1.119149
    7          6             0       -3.891821   -0.569419    0.555155
    8          6             0       -2.475862   -0.711356    0.614590
    9          6             0       -1.770265   -1.727419    1.241569
   10          6             0       -0.375725   -1.626076    1.137094
   11          6             0        0.544792   -2.625190    1.744483
   12          6             0        0.036859   -0.504160    0.409851
   13          6             0        1.360720   -0.093577    0.098765
   14          6             0        1.681124    1.059010   -0.608318
   15          6             0        3.047394    1.253453   -0.800043
   16          6             0        3.849151    0.260829   -0.253864
   17          6             0        5.274111    0.242242   -0.330569
   18          6             0        6.152657   -0.711302    0.166520
   19          6             0        5.747864   -1.941149    0.899783
   20          6             0        7.510198   -0.395970   -0.099146
   21          6             0        7.689412    0.765388   -0.782318
   22         16             0        6.182805    1.504266   -1.117914
   23         16             0        2.833557   -0.918264    0.515252
   24         16             0       -1.359188    0.391357   -0.109246
   25         16             0       -4.720288    0.720064   -0.267285
   26          1             0       -6.617433    3.160931   -2.519513
   27          1             0       -5.708762    2.471558   -1.304615
   28          1             0       -7.019076    3.416025   -0.921482
   29          1             0       -7.165385    0.795543   -2.355827
   30          1             0       -8.540638    1.781022   -1.910463
   31          1             0       -8.369121    0.040913   -0.228991
   32          1             0       -7.841381    1.519502    0.538905
   33          1             0       -7.019894   -1.549081    1.266587
   34          1             0       -4.573327   -2.285353    1.687490
   35          1             0       -2.253527   -2.535935    1.766572
   36          1             0       -0.007470   -3.391146    2.290066
   37          1             0        1.229527   -2.144782    2.444230
   38          1             0        1.136917   -3.122745    0.975792
   39          1             0        0.928416    1.740224   -0.974486
   40          1             0        3.456607    2.099890   -1.330116
   41          1             0        5.092158   -2.558946    0.285817
   42          1             0        5.216258   -1.686894    1.817435
   43          1             0        6.616181   -2.542593    1.171351
   44          1             0        8.326616   -1.028833    0.216593
   45          1             0        8.636423    1.177403   -1.078862
 --------------------------------------------------------------------
     1 basis functions        1 primitive gaussians
     1 alpha electrons        1 beta electrons

 Harmonic frequencies (cm**-1), IR intensities (km*mol⁻¹),
 Raman scattering activities (A**4/amu), Raman depolarization ratios,
 reduced masses (AMU), force constants (mDyne/A) and normal coordinates:
                      1                      2                      3
                        a                      a                      a 
 Frequencies --   -46.3583               -23.5896                30.5654
 Red. masses --    19.5147                13.7434                18.6879
 Frc consts  --     0.0000                 0.0000                 0.0000
 IR Inten    --     2.5199                 5.6864                 2.1970
 Raman Activ --     0.0000                 0.0000                 0.0000
 Depolar     --     0.0000                 0.0000                 0.0000
 Atom AN      X      Y      Z        X      Y      Z        X      Y      Z
   1   7    -0.01   0.07   0.11    -0.00  -0.16  -0.24    -0.03   0.08   0.16
   2   6     0.07   0.00  -0.01     0.01  -0.16  -0.15    -0.06   0.10   0.14
   3   6    -0.01  -0.03  -0.03    -0.00  -0.05  -0.09    -0.01   0.04   0.11
   4   6    -0.00   0.05   0.08    -0.00  -0.01  -0.02    -0.00   0.00   0.03
   5   6     0.01   0.24   0.37    -0.00  -0.00  -0.01     0.01  -0.01   0.01
   6   6     0.01   0.23   0.35     0.00   0.03   0.04     0.01  -0.03  -0.04
   7   6    -0.00   0.03   0.04     0.00   0.04   0.06     0.00  -0.03  -0.05
   8   6    -0.00  -0.02  -0.03     0.00   0.06   0.08     0.00  -0.02  -0.05
   9   6    -0.00  -0.03  -0.05     0.00   0.08   0.12     0.01   0.08   0.10
  10   6    -0.00  -0.04  -0.06     0.00   0.08   0.11     0.01   0.07   0.08
  11   6    -0.01  -0.06  -0.09     0.00   0.10   0.16     0.01   0.17   0.24
  12   6    -0.00  -0.02  -0.04     0.00   0.05   0.08     0.00  -0.04  -0.09
  13   6    -0.00  -0.01  -0.01     0.00   0.05   0.07    -0.00  -0.07  -0.13
  14   6     0.00   0.03   0.05     0.01   0.10   0.15    -0.00  -0.16  -0.28
  15   6     0.00   0.04   0.06     0.01   0.08   0.13    -0.00  -0.14  -0.24
  16   6    -0.00   0.01   0.02     0.00   0.01   0.02     0.00  -0.04  -0.06
  17   6    -0.00   0.01   0.02    -0.00  -0.02  -0.04     0.01   0.00   0.02
  18   6    -0.00  -0.00  -0.01    -0.02  -0.14  -0.23     0.00  -0.03  -0.03
  19   6    -0.00  -0.03  -0.06    -0.03  -0.24  -0.41    -0.01  -0.10  -0.15
  20   6    -0.00   0.01   0.00    -0.02  -0.14  -0.23     0.01   0.01   0.05
  21   6     0.00   0.03   0.05    -0.00  -0.02  -0.02     0.02   0.08   0.16
  22  16     0.00   0.08   0.12     0.02   0.18   0.32     0.04   0.16   0.31
  23  16    -0.00  -0.04  -0.07    -0.01  -0.05  -0.09     0.01   0.08   0.12
  24  16    -0.00  -0.02  -0.04     0.00   0.06   0.08    -0.01  -0.25  -0.43
  25  16    -0.02  -0.35  -0.53     0.00   0.05   0.07    -0.02  -0.02  -0.03
  26   1     0.04   0.01   0.03     0.01  -0.07  -0.08    -0.03   0.04   0.05
  27   1    -0.01   0.04   0.08    -0.00  -0.03  -0.05    -0.00   0.01   0.01
  28   1    -0.05   0.02   0.00    -0.01  -0.03  -0.09     0.01   0.01   0.06
  29   1     0.06   0.01   0.00     0.01  -0.06  -0.02    -0.03   0.04   0.03
  30   1     0.02  -0.02  -0.03     0.00  -0.06  -0.05    -0.02   0.04   0.06
  31   1     0.01  -0.02  -0.04     0.00  -0.02  -0.01    -0.01   0.02   0.03
  32   1    -0.04  -0.02  -0.01    -0.01   0.00  -0.04     0.01   0.00   0.05
  33   1     0.00   0.11   0.18    -0.00  -0.00  -0.01     0.00  -0.00   0.01
  34   1     0.00   0.11   0.17     0.00   0.01   0.01     0.00  -0.01  -0.02
  35   1    -0.00  -0.01  -0.02     0.00   0.03   0.04     0.00   0.05   0.07
  36   1    -0.00  -0.02  -0.03     0.00   0.04   0.07     0.00   0.06   0.08
  37   1    -0.00  -0.02  -0.02     0.01   0.04   0.03    -0.01   0.08   0.07
  38   1    -0.00  -0.01  -0.03    -0.01   0.01   0.05     0.02   0.03   0.09
  39   1     0.00   0.01   0.02     0.00   0.04   0.07    -0.00  -0.07  -0.12
  40   1     0.00   0.02   0.03     0.00   0.03   0.05    -0.00  -0.06  -0.10
  41   1     0.00  -0.01  -0.03    -0.01  -0.04  -0.14    -0.01  -0.01  -0.06
  42   1    -0.01  -0.02  -0.02    -0.01  -0.10  -0.11     0.00  -0.05  -0.03
  43   1    -0.00  -0.01  -0.02    -0.01  -0.09  -0.15    -0.01  -0.04  -0.07
  44   1    -0.00  -0.00  -0.01    -0.01  -0.07  -0.11     0.00  -0.00   0.00
  45   1     0.00   0.01   0.02     0.00   0.00   0.01     0.01   0.03   0.07
                      4                      5                      6
                        a                      a                      a 
 Frequencies --    37.2697                49.4621                58.6077
 Red. masses --    15.4854                14.2772                20.7545
 Frc consts  --     0.0000                 0.0000                 0.0000
 IR Inten    --     4.3289                 8.2667                 0.1267
 Raman Activ --     0.0000                 0.0000                 0.0000
 Depolar     --     0.0000                 0.0000                 0.0000
 Atom AN      X      Y      Z        X      Y      Z        X      Y      Z
   1   7    -0.34  -0.13   0.08     0.02  -0.19  -0.30    -0.01   0.08   0.15
   2   6    -0.25  -0.17   0.12    -0.01  -0.16  -0.06     0.10   0.00  -0.09
   3   6    -0.12  -0.18   0.12     0.01   0.08   0.07    -0.01  -0.14  -0.16
   4   6    -0.05  -0.08   0.05     0.00   0.11   0.14    -0.00  -0.08  -0.09
   5   6     0.05  -0.07   0.05    -0.00   0.11   0.15     0.00  -0.07  -0.06
   6   6     0.09   0.01  -0.01    -0.00   0.10   0.14     0.01  -0.02   0.00
   7   6     0.02   0.07  -0.05     0.00   0.09   0.12     0.00   0.01   0.03
   8   6     0.02   0.12  -0.09    -0.00   0.03   0.05     0.00   0.04   0.06
   9   6     0.03   0.11  -0.11    -0.01  -0.04  -0.06     0.01  -0.01  -0.03
  10   6     0.03   0.12  -0.11    -0.01  -0.10  -0.15     0.01   0.01  -0.01
  11   6     0.02   0.10  -0.12    -0.01  -0.19  -0.29     0.01  -0.06  -0.13
  12   6     0.03   0.14  -0.09    -0.01  -0.07  -0.11     0.00   0.07   0.08
  13   6     0.04   0.12  -0.06    -0.01  -0.09  -0.15    -0.00   0.05   0.03
  14   6     0.10   0.12  -0.03    -0.01  -0.14  -0.23    -0.01  -0.11  -0.22
  15   6     0.11   0.07   0.00    -0.01  -0.12  -0.20    -0.02  -0.14  -0.26
  16   6     0.06   0.03  -0.00    -0.01  -0.05  -0.08    -0.01  -0.00  -0.03
  17   6     0.06  -0.05   0.04     0.00   0.01   0.01    -0.01  -0.01  -0.02
  18   6    -0.00  -0.09   0.07     0.01   0.03   0.04    -0.02  -0.06  -0.08
  19   6    -0.09  -0.06   0.07     0.01  -0.00  -0.01    -0.04  -0.08  -0.13
  20   6     0.02  -0.17   0.11     0.01   0.09   0.13    -0.02  -0.08  -0.09
  21   6     0.11  -0.18   0.10     0.01   0.11   0.18     0.00  -0.06  -0.04
  22  16     0.26  -0.17   0.08     0.00   0.11   0.19     0.02  -0.00   0.03
  23  16    -0.00   0.08  -0.09    -0.00  -0.04  -0.06     0.01   0.32   0.46
  24  16     0.04   0.24  -0.10    -0.00   0.05   0.09    -0.00   0.24   0.35
  25  16    -0.17   0.03  -0.03     0.01   0.19   0.27    -0.01  -0.08  -0.07
  26   1    -0.12  -0.03   0.02    -0.00  -0.09  -0.10     0.04   0.03   0.05
  27   1    -0.08  -0.02  -0.00     0.01  -0.04  -0.08    -0.01   0.04   0.10
  28   1    -0.09  -0.05   0.03     0.02  -0.02  -0.10    -0.06   0.01   0.03
  29   1    -0.07  -0.04   0.03    -0.01  -0.08   0.01     0.07   0.03  -0.03
  30   1    -0.08  -0.07   0.05    -0.00  -0.05  -0.02     0.03  -0.02  -0.05
  31   1    -0.02  -0.07   0.05    -0.00   0.03   0.06     0.01  -0.06  -0.09
  32   1    -0.04  -0.06   0.04     0.01   0.06  -0.02    -0.04  -0.07  -0.03
  33   1     0.03  -0.04   0.03    -0.00   0.03   0.04     0.00  -0.02  -0.02
  34   1     0.05   0.01  -0.00    -0.00   0.03   0.04     0.00   0.00   0.01
  35   1     0.01   0.03  -0.04    -0.00  -0.02  -0.03     0.00  -0.02  -0.04
  36   1     0.00   0.03  -0.04    -0.00  -0.07  -0.10     0.00  -0.05  -0.08
  37   1     0.01   0.02  -0.03     0.01  -0.08  -0.07    -0.01  -0.04  -0.01
  38   1     0.00   0.03  -0.04    -0.01  -0.03  -0.10     0.02   0.02  -0.05
  39   1     0.04   0.05  -0.01    -0.01  -0.06  -0.09    -0.01  -0.06  -0.11
  40   1     0.04   0.02   0.01    -0.01  -0.04  -0.07    -0.01  -0.07  -0.13
  41   1    -0.03  -0.01   0.02     0.01   0.00  -0.02    -0.05   0.01  -0.03
  42   1    -0.03  -0.01   0.01    -0.01  -0.01  -0.01     0.03  -0.03  -0.01
  43   1    -0.04  -0.03   0.03     0.00   0.00  -0.00    -0.02  -0.05  -0.09
  44   1    -0.01  -0.06   0.04     0.00   0.03   0.05    -0.01  -0.03  -0.04
  45   1     0.04  -0.07   0.04     0.00   0.04   0.07     0.00  -0.02  -0.01
                      7                      8                      9
                        a                      a                      a 
 Frequencies --    69.6739                74.0974                99.2559
 Red. masses --    15.0919                14.4884                18.3959
 Frc consts  --     0.0000                 0.0000                 0.0000
 IR Inten    --     2.3597                 5.5107                 0.8050
 Raman Activ --     0.0000                 0.0000                 0.0000
 Depolar     --     0.0000                 0.0000                 0.0000
 Atom AN      X      Y      Z        X      Y      Z        X      Y      Z
   1   7     0.14   0.10   0.20     0.29  -0.12  -0.16    -0.08   0.05   0.06
   2   6     0.29  -0.02  -0.13     0.06   0.04   0.09     0.19  -0.14  -0.13
   3   6     0.04  -0.15  -0.21     0.11   0.17   0.16    -0.02  -0.08  -0.10
   4   6     0.01  -0.08  -0.02     0.05   0.02   0.08    -0.02   0.05   0.11
   5   6    -0.00  -0.08  -0.01    -0.00   0.00   0.07    -0.00   0.03   0.09
   6   6    -0.01  -0.04   0.09    -0.02  -0.10   0.01     0.01   0.04   0.06
   7   6     0.00  -0.01   0.15     0.01  -0.16  -0.03    -0.01   0.05   0.04
   8   6     0.00   0.03   0.15     0.00  -0.15  -0.06    -0.01  -0.01  -0.07
   9   6     0.05   0.07   0.15     0.07  -0.12  -0.09    -0.02  -0.00  -0.05
  10   6     0.04   0.08   0.03     0.06  -0.01  -0.07    -0.02  -0.05  -0.10
  11   6     0.09   0.10  -0.00     0.13   0.06  -0.08    -0.03  -0.06  -0.10
  12   6    -0.02   0.04  -0.06    -0.02   0.05  -0.04    -0.01  -0.07  -0.13
  13   6    -0.04   0.04  -0.14    -0.05   0.14  -0.01     0.00  -0.01  -0.01
  14   6    -0.04   0.07  -0.08    -0.06   0.14  -0.02     0.01   0.02   0.04
  15   6    -0.03   0.06  -0.08    -0.05   0.15  -0.01     0.02   0.08   0.15
  16   6    -0.05   0.02  -0.14    -0.05   0.16   0.02     0.02   0.09   0.19
  17   6    -0.04   0.00  -0.06    -0.06   0.07   0.02     0.01   0.06   0.12
  18   6    -0.11   0.00   0.06    -0.16  -0.03   0.00     0.01  -0.00   0.00
  19   6    -0.19   0.02   0.04    -0.27   0.01   0.01     0.03   0.04   0.08
  20   6    -0.07  -0.02   0.20    -0.13  -0.18  -0.02    -0.00  -0.10  -0.19
  21   6     0.01  -0.04   0.18    -0.01  -0.19  -0.01    -0.01  -0.11  -0.21
  22  16     0.09  -0.06  -0.01     0.11  -0.03   0.04    -0.01   0.01   0.03
  23  16    -0.10  -0.05  -0.41    -0.08   0.31   0.09     0.01   0.13   0.25
  24  16    -0.11   0.00  -0.01    -0.13  -0.08  -0.05    -0.01  -0.23  -0.42
  25  16     0.04  -0.03   0.20     0.12  -0.17   0.01    -0.05   0.19   0.27
  26   1     0.12   0.03   0.06     0.04  -0.04  -0.05     0.09  -0.04  -0.00
  27   1     0.02   0.06   0.16     0.09  -0.08  -0.11    -0.05   0.09   0.17
  28   1    -0.06   0.01   0.01     0.16  -0.01  -0.02    -0.16   0.03  -0.07
  29   1     0.16   0.03  -0.03    -0.05  -0.03   0.03     0.16  -0.03   0.00
  30   1     0.09  -0.03  -0.10     0.02   0.05   0.06     0.06  -0.10  -0.12
  31   1     0.03  -0.06  -0.13    -0.00   0.09   0.09     0.02  -0.05  -0.06
  32   1    -0.05  -0.07  -0.06     0.09   0.08   0.04    -0.07  -0.02  -0.05
  33   1    -0.00  -0.03  -0.02    -0.01   0.02   0.03     0.00   0.00   0.02
  34   1    -0.00  -0.01   0.02    -0.02  -0.03   0.00     0.01   0.00   0.00
  35   1     0.03   0.03   0.07     0.03  -0.05  -0.03    -0.01   0.01   0.01
  36   1     0.04   0.04   0.02     0.05  -0.00  -0.03    -0.01  -0.03  -0.05
  37   1     0.04   0.04  -0.02     0.02   0.03  -0.01    -0.02  -0.02  -0.01
  38   1     0.01   0.02  -0.01     0.05   0.03  -0.02     0.01   0.00  -0.03
  39   1    -0.01   0.03  -0.01    -0.02   0.03  -0.02     0.00  -0.00  -0.01
  40   1    -0.01   0.03  -0.01    -0.01   0.04  -0.01     0.01   0.03   0.05
  41   1    -0.03  -0.00  -0.01    -0.10   0.02   0.01    -0.02   0.02   0.05
  42   1    -0.09   0.01  -0.01    -0.07   0.02   0.00     0.04   0.03   0.04
  43   1    -0.06   0.01   0.05    -0.09  -0.02   0.00     0.01   0.00   0.00
  44   1    -0.03  -0.00   0.09    -0.05  -0.08  -0.01    -0.00  -0.05  -0.09
  45   1     0.01  -0.02   0.08     0.01  -0.08  -0.00    -0.01  -0.05  -0.09
                     10                     11                     12
                        a                      a                      a 
 Frequencies --   134.3320               135.7916               150.3457
 Red. masses --     8.8898                14.5384                15.1433
 Frc consts  --     0.0000                 0.0000                 0.0000
 IR Inten    --     7.6811                 6.7825                 1.1383
 Raman Activ --     0.0000                 0.0000                 0.0000
 Depolar     --     0.0000                 0.0000                 0.0000
 Atom AN      X      Y      Z        X      Y      Z        X      Y      Z
   1   7     0.29  -0.12   0.06     0.24  -0.06   0.01    -0.11   0.09  -0.05
   2   6    -0.07   0.13   0.01     0.20  -0.05   0.02     0.01   0.01   0.03
   3   6    -0.05  -0.13  -0.12    -0.00   0.07   0.08     0.03   0.13   0.10
   4   6    -0.04  -0.11  -0.12    -0.08  -0.03   0.14    -0.01  -0.01  -0.01
   5   6    -0.03  -0.05  -0.02    -0.06  -0.06   0.08    -0.03  -0.05  -0.06
   6   6    -0.03   0.05   0.12    -0.05  -0.10  -0.03    -0.04  -0.08  -0.07
   7   6    -0.03   0.07   0.14    -0.07  -0.09  -0.06    -0.02  -0.07  -0.02
   8   6    -0.02   0.12   0.14    -0.06  -0.02  -0.14    -0.02  -0.02   0.05
   9   6    -0.00   0.14   0.14    -0.01   0.01  -0.17     0.02  -0.01   0.03
  10   6    -0.01   0.07  -0.03    -0.01   0.13  -0.09     0.01   0.02   0.01
  11   6    -0.00  -0.01  -0.18     0.02   0.22  -0.02     0.05   0.08   0.05
  12   6    -0.03   0.02  -0.11    -0.06   0.18  -0.05    -0.01   0.00  -0.04
  13   6    -0.02  -0.02  -0.12    -0.03   0.13   0.01    -0.01  -0.06  -0.14
  14   6     0.04  -0.01  -0.08     0.10   0.08  -0.00     0.01  -0.08  -0.16
  15   6     0.06  -0.00   0.05     0.13  -0.07   0.01     0.02  -0.04  -0.07
  16   6     0.02  -0.00   0.11     0.03  -0.15   0.02     0.02  -0.00   0.02
  17   6     0.03  -0.00   0.12     0.03  -0.16   0.02     0.03   0.04   0.10
  18   6     0.07  -0.02   0.01     0.15  -0.06   0.02     0.03  -0.01  -0.01
  19   6     0.14   0.03   0.14     0.30  -0.15  -0.03     0.07   0.16   0.30
  20   6     0.04  -0.06  -0.17     0.11   0.12   0.04     0.01  -0.15  -0.27
  21   6    -0.01  -0.05  -0.16    -0.02   0.13   0.04     0.01  -0.11  -0.21
  22  16    -0.06   0.04   0.15    -0.18  -0.13  -0.01     0.04   0.17   0.32
  23  16    -0.07  -0.04  -0.02    -0.16  -0.04   0.06    -0.03  -0.13  -0.23
  24  16    -0.09   0.04  -0.10    -0.19   0.20  -0.06    -0.07   0.11   0.22
  25  16    -0.07  -0.05   0.03    -0.15  -0.11   0.07     0.00  -0.12  -0.09
  26   1    -0.11   0.13   0.08     0.14  -0.08  -0.02     0.11  -0.09  -0.06
  27   1     0.13  -0.16  -0.25     0.04  -0.00   0.10    -0.07   0.08   0.17
  28   1     0.29  -0.12   0.22     0.01   0.03  -0.07    -0.15   0.11  -0.16
  29   1    -0.12   0.05  -0.06     0.08  -0.04   0.04     0.03  -0.01   0.04
  30   1    -0.02   0.13   0.08     0.07  -0.02  -0.04     0.00  -0.03  -0.02
  31   1    -0.00  -0.05  -0.09    -0.02   0.04   0.02    -0.02   0.07   0.07
  32   1    -0.04  -0.08  -0.00     0.01   0.05   0.00     0.07   0.07   0.02
  33   1    -0.01  -0.02  -0.02    -0.01  -0.02   0.04    -0.01  -0.01  -0.02
  34   1    -0.01   0.03   0.06    -0.01  -0.04  -0.02    -0.02  -0.03  -0.02
  35   1     0.01   0.06   0.07     0.01  -0.02  -0.07     0.01  -0.01   0.01
  36   1     0.00  -0.00  -0.05     0.01   0.06  -0.01     0.02   0.05   0.06
  37   1     0.03  -0.03  -0.06    -0.02   0.08   0.01     0.03   0.05  -0.02
  38   1    -0.03   0.00  -0.08     0.03   0.07   0.01    -0.01  -0.01   0.02
  39   1     0.02  -0.00  -0.04     0.05   0.05  -0.01     0.01  -0.03  -0.06
  40   1     0.03   0.00   0.03     0.06  -0.03  -0.00     0.01  -0.01  -0.01
  41   1     0.02  -0.00   0.07     0.09  -0.05  -0.01    -0.01   0.01   0.15
  42   1     0.07   0.03   0.05     0.10  -0.07   0.01     0.05   0.12   0.09
  43   1     0.05   0.01   0.03     0.11  -0.03  -0.03     0.02   0.05   0.10
  44   1     0.02  -0.03  -0.09     0.05   0.06   0.02     0.00  -0.07  -0.13
  45   1    -0.01  -0.02  -0.07    -0.02   0.07   0.01    -0.00  -0.05  -0.09
                     13                     14                     15
                        a                      a                      a 
 Frequencies --   154.0705               169.1977               173.7462
 Red. masses --    20.6095                13.1583                 1.8330
 Frc consts  --     0.0000                 0.0000                 0.0000
 IR Inten    --     0.8992                 7.7694                 0.7767
 Raman Activ --     0.0000                 0.0000                 0.0000
 Depolar     --     0.0000                 0.0000                 0.0000
 Atom AN      X      Y      Z        X      Y      Z        X      Y      Z
   1   7     0.04   0.04  -0.06    -0.26   0.14  -0.13     0.02  -0.00   0.01
   2   6    -0.05   0.10  -0.06    -0.16   0.07   0.01     0.01   0.01   0.01
   3   6    -0.14   0.09  -0.06     0.06   0.11   0.03     0.00   0.01   0.01
   4   6    -0.20   0.00   0.00     0.05  -0.01  -0.14    -0.01  -0.01  -0.00
   5   6    -0.23   0.00   0.01    -0.03  -0.02  -0.12     0.00  -0.02  -0.01
   6   6    -0.23  -0.03   0.04    -0.06  -0.04   0.03     0.00  -0.01  -0.01
   7   6    -0.17  -0.08   0.07     0.00  -0.04   0.14    -0.00   0.00  -0.00
   8   6    -0.14  -0.08   0.06     0.01  -0.01   0.25    -0.00   0.02   0.01
   9   6    -0.08  -0.05   0.04     0.10   0.08   0.30    -0.00   0.01   0.00
  10   6    -0.07  -0.03   0.02     0.09   0.07   0.05    -0.00  -0.00  -0.01
  11   6    -0.07  -0.04   0.01     0.21  -0.03  -0.30    -0.01   0.01   0.00
  12   6    -0.03  -0.03   0.02    -0.02   0.05  -0.04    -0.00  -0.01  -0.02
  13   6     0.01  -0.02   0.03    -0.02   0.08  -0.03     0.00  -0.03  -0.04
  14   6     0.04  -0.02   0.04     0.04   0.08   0.01     0.00  -0.04  -0.06
  15   6     0.04   0.03  -0.00     0.06   0.04   0.07     0.01  -0.00   0.01
  16   6     0.13   0.07  -0.04     0.01  -0.01   0.06     0.01   0.04   0.08
  17   6     0.16   0.09  -0.07     0.00  -0.06   0.05     0.01   0.05   0.09
  18   6     0.13   0.06  -0.04     0.05  -0.03   0.04     0.01   0.04   0.07
  19   6     0.09   0.05  -0.09     0.12  -0.12  -0.08    -0.01  -0.04  -0.08
  20   6     0.16  -0.00   0.04     0.04   0.06   0.07     0.00  -0.01  -0.03
  21   6     0.26  -0.02   0.03    -0.02   0.05   0.03    -0.01  -0.05  -0.09
  22  16     0.50   0.04  -0.11    -0.10  -0.12  -0.07    -0.01   0.00  -0.00
  23  16     0.18   0.09  -0.02    -0.09   0.09   0.09     0.01   0.02   0.06
  24  16    -0.19  -0.14   0.07    -0.17  -0.16  -0.09     0.01   0.04   0.03
  25  16    -0.26  -0.10   0.09     0.18  -0.12  -0.05    -0.02  -0.01  -0.01
  26   1     0.04  -0.00  -0.02    -0.00  -0.04  -0.07     0.02  -0.01  -0.00
  27   1    -0.00  -0.00   0.01    -0.09   0.08   0.06     0.00  -0.00   0.02
  28   1     0.01   0.03  -0.03    -0.13   0.09  -0.12    -0.00   0.01  -0.01
  29   1    -0.02   0.02  -0.01    -0.06   0.02  -0.01     0.00  -0.00   0.00
  30   1    -0.01   0.05  -0.03    -0.06  -0.00   0.03     0.00   0.00   0.00
  31   1    -0.06   0.04  -0.03    -0.00   0.05   0.06    -0.00   0.01   0.01
  32   1    -0.03   0.03  -0.02     0.08   0.05   0.02     0.01   0.00   0.01
  33   1    -0.07   0.01   0.00    -0.02   0.00  -0.05     0.00  -0.01  -0.00
  34   1    -0.08  -0.01   0.01    -0.04  -0.01   0.02     0.00  -0.00  -0.00
  35   1    -0.01  -0.02   0.02     0.05   0.04   0.13    -0.00   0.01   0.00
  36   1    -0.02  -0.01   0.00     0.10  -0.02  -0.07    -0.01  -0.02  -0.03
  37   1    -0.02  -0.01   0.00     0.13  -0.05  -0.13    -0.03   0.00   0.03
  38   1    -0.02  -0.01   0.00    -0.01   0.01  -0.16     0.03   0.03   0.01
  39   1     0.01  -0.00   0.01     0.02   0.03  -0.00     0.00  -0.02  -0.03
  40   1    -0.01   0.01  -0.00     0.03   0.01   0.03     0.00  -0.00   0.00
  41   1     0.03   0.02  -0.04     0.04  -0.03  -0.04     0.45  -0.25  -0.27
  42   1     0.02   0.01  -0.03     0.03  -0.07  -0.01    -0.50  -0.07  -0.30
  43   1     0.02   0.01  -0.02     0.05  -0.03  -0.04     0.03   0.24   0.43
  44   1     0.03  -0.01   0.03     0.02   0.03   0.03     0.00  -0.01  -0.02
  45   1     0.08  -0.02   0.02    -0.01   0.02   0.01    -0.00  -0.02  -0.05
                     16                     17                     18
                        a                      a                      a 
 Frequencies --   179.0896               194.1987               219.5097
 Red. masses --    10.2880                 2.9095                 8.5815
 Frc consts  --     0.0000                 0.0000                 0.0000
 IR Inten    --    17.5000                 3.9366                24.5727
 Raman Activ --     0.0000                 0.0000                 0.0000
 Depolar     --     0.0000                 0.0000                 0.0000
 Atom AN      X      Y      Z        X      Y      Z        X      Y      Z
   1   7     0.25  -0.13   0.03     0.09  -0.06  -0.01     0.13  -0.15   0.07
   2   6     0.09  -0.02   0.12    -0.04   0.03   0.06    -0.23   0.11   0.04
   3   6     0.00   0.06   0.16    -0.00   0.03   0.06    -0.10  -0.09  -0.07
   4   6    -0.05  -0.10   0.03    -0.02  -0.06  -0.05    -0.01   0.00  -0.14
   5   6     0.04  -0.13  -0.04     0.01  -0.06  -0.06    -0.01   0.05  -0.06
   6   6     0.08  -0.05  -0.10     0.02   0.01  -0.01    -0.02   0.10   0.08
   7   6     0.01   0.07  -0.05     0.01   0.06   0.05     0.02   0.06   0.08
   8   6     0.01   0.21   0.04     0.01   0.11   0.09     0.02  -0.03  -0.00
   9   6    -0.07   0.24   0.17    -0.02   0.10   0.10     0.03  -0.11  -0.14
  10   6    -0.07   0.07   0.10    -0.02  -0.01  -0.02     0.03  -0.09  -0.13
  11   6    -0.23  -0.22  -0.13    -0.04  -0.01   0.01     0.08   0.13   0.15
  12   6     0.01  -0.00   0.04     0.00  -0.05  -0.05     0.01  -0.11  -0.16
  13   6     0.02  -0.04   0.04     0.01  -0.07  -0.06     0.00  -0.10  -0.17
  14   6    -0.02  -0.03   0.04    -0.01  -0.03  -0.00    -0.00  -0.07  -0.12
  15   6    -0.03   0.01   0.02    -0.01   0.03   0.06     0.01   0.07   0.11
  16   6    -0.01   0.02   0.00    -0.00   0.03   0.04     0.01   0.10   0.17
  17   6    -0.01   0.04  -0.02    -0.00   0.03   0.02     0.00   0.09   0.17
  18   6    -0.04   0.03  -0.01    -0.01   0.02   0.01    -0.00   0.06   0.13
  19   6    -0.10   0.03  -0.05    -0.04  -0.00  -0.04    -0.02  -0.09  -0.14
  20   6    -0.03   0.01   0.03    -0.01   0.01   0.02    -0.01   0.04   0.08
  21   6     0.00  -0.00   0.02    -0.00  -0.00   0.01    -0.02  -0.02  -0.04
  22  16     0.03   0.02  -0.05     0.00  -0.01  -0.05    -0.04  -0.07  -0.11
  23  16     0.06  -0.00   0.06     0.02  -0.05  -0.04     0.02   0.00   0.01
  24  16     0.15   0.07  -0.15     0.05   0.03  -0.02     0.02   0.05   0.13
  25  16    -0.17  -0.07  -0.14    -0.04  -0.04  -0.07     0.06   0.08   0.03
  26   1     0.23  -0.16  -0.04     0.13  -0.10  -0.04     0.25  -0.16  -0.03
  27   1     0.02  -0.03   0.19    -0.01  -0.02   0.12    -0.04  -0.10   0.24
  28   1    -0.01   0.07  -0.14    -0.02   0.06  -0.10    -0.03   0.08  -0.14
  29   1     0.01  -0.04   0.06    -0.04  -0.00   0.01    -0.16   0.04  -0.04
  30   1     0.04   0.02   0.02    -0.01   0.03   0.03    -0.06   0.12   0.08
  31   1    -0.03   0.05   0.07    -0.02   0.03   0.03    -0.00  -0.06  -0.05
  32   1     0.06   0.04   0.04     0.04   0.01   0.03    -0.05  -0.07   0.02
  33   1     0.03  -0.06  -0.01     0.01  -0.03  -0.02    -0.01   0.01  -0.03
  34   1     0.04  -0.01  -0.04     0.01   0.01   0.00    -0.01   0.04   0.04
  35   1    -0.04   0.10   0.08    -0.01   0.04   0.05     0.01  -0.04  -0.05
  36   1    -0.09   0.05   0.09    -0.04  -0.28  -0.41     0.04   0.13   0.19
  37   1     0.11  -0.12  -0.17    -0.35  -0.07   0.38     0.07   0.13  -0.07
  38   1    -0.26  -0.19  -0.10     0.36   0.35   0.06    -0.03  -0.09   0.08
  39   1    -0.01  -0.01   0.01    -0.00  -0.01   0.00    -0.00  -0.04  -0.06
  40   1    -0.02   0.00   0.00    -0.00   0.02   0.04     0.01   0.04   0.06
  41   1    -0.04   0.03  -0.02    -0.06   0.04   0.00    -0.05   0.05  -0.07
  42   1    -0.02   0.01  -0.01     0.04  -0.01   0.02     0.04  -0.09   0.00
  43   1    -0.04  -0.01  -0.02    -0.02  -0.04  -0.07    -0.01  -0.07  -0.13
  44   1    -0.01  -0.00   0.01    -0.00   0.00   0.01    -0.00   0.02   0.03
  45   1     0.00  -0.01   0.01     0.00  -0.00   0.00    -0.01  -0.02  -0.04
                     19                     20                     21
                        a                      a                      a 
 Frequencies --   223.6508               249.5633               254.1816
 Red. masses --    10.1138                15.7903                12.3119
 Frc consts  --     0.0000                 0.0000                 0.0000
 IR Inten    --    24.0024                12.5949                17.0668
 Raman Activ --     0.0000                 0.0000                 0.0000
 Depolar     --     0.0000                 0.0000                 0.0000
 Atom AN      X      Y      Z        X      Y      Z        X      Y      Z
   1   7     0.12  -0.17   0.09     0.01   0.12  -0.11    -0.06   0.26  -0.22
   2   6    -0.22   0.09   0.02     0.03   0.09  -0.03    -0.01   0.18   0.03
   3   6    -0.12  -0.10  -0.08    -0.07   0.06  -0.03     0.14   0.01  -0.02
   4   6    -0.02   0.06  -0.10    -0.16  -0.08   0.03     0.00  -0.34  -0.18
   5   6    -0.02   0.10  -0.03    -0.07  -0.07   0.04     0.04  -0.22   0.01
   6   6    -0.03   0.09   0.04    -0.02   0.01   0.02     0.08   0.03   0.28
   7   6     0.01   0.02   0.02    -0.02   0.02   0.00     0.03   0.07   0.24
   8   6     0.01  -0.07  -0.04     0.03   0.03  -0.02     0.03   0.08  -0.01
   9   6     0.03  -0.07  -0.04     0.06   0.02  -0.03     0.00  -0.04  -0.20
  10   6     0.03   0.00   0.04     0.07   0.02  -0.03     0.00  -0.08  -0.16
  11   6     0.10  -0.01  -0.08     0.37   0.23  -0.16    -0.19  -0.07   0.16
  12   6     0.02   0.08   0.14     0.07   0.01  -0.01     0.03  -0.04  -0.09
  13   6     0.02   0.14   0.22     0.12  -0.14   0.09     0.02   0.06   0.01
  14   6     0.01   0.10   0.16     0.07  -0.13   0.09     0.02   0.09   0.04
  15   6    -0.01  -0.08  -0.15     0.04  -0.11   0.06     0.02   0.03  -0.02
  16   6    -0.02  -0.13  -0.22     0.04  -0.10   0.04    -0.00  -0.02  -0.07
  17   6    -0.02  -0.14  -0.22    -0.00   0.02  -0.03    -0.01  -0.08  -0.10
  18   6    -0.01  -0.10  -0.16    -0.04   0.01  -0.02    -0.01  -0.06  -0.08
  19   6     0.02   0.09   0.18    -0.31   0.10  -0.03     0.01   0.01   0.06
  20   6    -0.01  -0.05  -0.09    -0.05   0.01  -0.01    -0.01  -0.01  -0.02
  21   6    -0.01   0.04   0.07    -0.08   0.03   0.00    -0.02   0.04   0.07
  22  16    -0.02   0.07   0.15    -0.13   0.07  -0.03    -0.04  -0.00   0.03
  23  16     0.01   0.03   0.02     0.24  -0.24   0.14    -0.01   0.09   0.04
  24  16     0.01  -0.14  -0.12     0.14   0.04  -0.03     0.09   0.05  -0.10
  25  16     0.06   0.11   0.04    -0.31  -0.05   0.05    -0.08  -0.15   0.18
  26   1     0.24  -0.15  -0.01    -0.03   0.03  -0.03    -0.03   0.01  -0.09
  27   1    -0.04  -0.10   0.22     0.01   0.04  -0.05    -0.01   0.10  -0.05
  28   1    -0.02   0.06  -0.11     0.02   0.03  -0.02    -0.02   0.11  -0.10
  29   1    -0.15   0.03  -0.04     0.01   0.02  -0.00    -0.04   0.06  -0.02
  30   1    -0.06   0.11   0.07     0.01   0.02  -0.02    -0.02   0.05   0.07
  31   1     0.00  -0.07  -0.06    -0.05   0.05  -0.02    -0.02   0.06   0.00
  32   1    -0.08  -0.08   0.01    -0.00   0.02  -0.01     0.13  -0.00   0.03
  33   1    -0.01   0.03  -0.01    -0.00  -0.04   0.02     0.02  -0.09  -0.01
  34   1    -0.02   0.03   0.02     0.00   0.01   0.01     0.04   0.04   0.12
  35   1     0.01  -0.03  -0.02     0.02   0.00  -0.01    -0.01  -0.02  -0.08
  36   1     0.04  -0.04  -0.05     0.19   0.04  -0.00    -0.11   0.04   0.08
  37   1     0.02  -0.02  -0.01     0.12   0.12  -0.09    -0.07   0.00   0.04
  38   1     0.03   0.04  -0.05     0.09   0.10  -0.08    -0.04  -0.10   0.11
  39   1     0.00   0.05   0.08     0.01  -0.05   0.03     0.01   0.03   0.02
  40   1    -0.00  -0.04  -0.08     0.01  -0.03   0.01     0.01   0.00  -0.01
  41   1     0.06  -0.07   0.09    -0.11   0.06  -0.02     0.02  -0.03   0.04
  42   1    -0.05   0.11  -0.00    -0.10   0.07  -0.02    -0.01   0.03  -0.00
  43   1     0.02   0.09   0.16    -0.13  -0.02   0.02     0.01   0.03   0.05
  44   1    -0.00  -0.01  -0.03    -0.01   0.01  -0.00    -0.00   0.00  -0.00
  45   1    -0.00   0.03   0.06    -0.02   0.01   0.00    -0.00   0.03   0.04
                     22                     23                     24
                        a                      a                      a 
 Frequencies --   267.7815               288.9959               301.0752
 Red. masses --    19.7927                11.8845                11.7789
 Frc consts  --     0.0000                 0.0000                 0.0000
 IR Inten    --     0.8573                 5.5045                 2.1963
 Raman Activ --     0.0000                 0.0000                 0.0000
 Depolar     --     0.0000                 0.0000                 0.0000
 Atom AN      X      Y      Z        X      Y      Z        X      Y      Z
   1   7    -0.04  -0.05   0.06     0.02  -0.09   0.11     0.02   0.05  -0.05
   2   6    -0.01  -0.06   0.04     0.09  -0.12   0.02     0.04   0.01   0.06
   3   6     0.13  -0.04   0.03     0.02   0.06   0.10     0.10  -0.05   0.04
   4   6     0.17  -0.00  -0.09     0.01  -0.00  -0.04     0.06  -0.16  -0.09
   5   6     0.06   0.01  -0.05     0.02  -0.04  -0.12     0.10  -0.09  -0.00
   6   6     0.01  -0.02   0.07     0.02   0.06  -0.05     0.12   0.07   0.10
   7   6    -0.00  -0.02   0.08    -0.01   0.15   0.05     0.02   0.11   0.02
   8   6    -0.05   0.02   0.01    -0.03   0.09   0.13    -0.02   0.02  -0.07
   9   6    -0.08   0.00  -0.05    -0.07  -0.02   0.04    -0.12  -0.06  -0.08
  10   6    -0.11   0.06  -0.09    -0.07  -0.13  -0.16    -0.13   0.01   0.06
  11   6    -0.12   0.10  -0.04     0.14   0.16  -0.01     0.13   0.16  -0.13
  12   6    -0.14   0.07  -0.08    -0.07  -0.20  -0.23    -0.12   0.06   0.18
  13   6    -0.07  -0.05   0.04    -0.05  -0.17  -0.10    -0.09  -0.05   0.24
  14   6     0.04  -0.08   0.08    -0.12  -0.05   0.07    -0.22  -0.11   0.12
  15   6     0.06  -0.18   0.11    -0.13   0.12   0.16    -0.25  -0.09  -0.12
  16   6     0.04  -0.19   0.09    -0.05   0.07  -0.03    -0.10   0.05  -0.08
  17   6     0.06   0.04  -0.08    -0.05  -0.11  -0.24    -0.06   0.14   0.11
  18   6     0.08   0.07  -0.10    -0.06  -0.14  -0.24    -0.06   0.14   0.16
  19   6    -0.25   0.21  -0.08     0.17  -0.01   0.11     0.25  -0.09  -0.04
  20   6     0.10   0.04  -0.04    -0.04  -0.06  -0.05    -0.05  -0.00   0.08
  21   6     0.12   0.06  -0.00     0.04   0.08   0.23     0.06  -0.16  -0.13
  22  16     0.21   0.12  -0.08     0.08  -0.03  -0.04     0.20   0.04   0.03
  23  16    -0.20  -0.26   0.20     0.07   0.11   0.15     0.00  -0.10  -0.07
  24  16    -0.29   0.14  -0.09    -0.05   0.02   0.08    -0.08   0.02  -0.12
  25  16     0.33  -0.01   0.00    -0.04   0.09  -0.16    -0.01   0.09  -0.01
  26   1     0.00  -0.01   0.02    -0.02   0.01   0.05    -0.00  -0.02  -0.03
  27   1    -0.01  -0.01   0.03     0.02  -0.01  -0.00     0.01   0.03  -0.01
  28   1    -0.02  -0.02   0.01     0.01  -0.06   0.07     0.00   0.03  -0.03
  29   1    -0.01  -0.01   0.00     0.07  -0.05   0.04     0.00   0.01   0.01
  30   1    -0.01  -0.02   0.03     0.04  -0.06  -0.04     0.01   0.00   0.04
  31   1     0.05  -0.02   0.04    -0.02   0.05   0.09     0.01   0.01   0.02
  32   1     0.05  -0.01   0.01     0.06   0.06   0.01     0.07  -0.02   0.03
  33   1    -0.00   0.02  -0.03     0.01  -0.02  -0.05     0.04  -0.04  -0.01
  34   1    -0.00  -0.00   0.03     0.02   0.02  -0.01     0.06   0.04   0.05
  35   1    -0.02  -0.00  -0.02    -0.02   0.01   0.03    -0.05  -0.03  -0.05
  36   1    -0.04   0.04   0.00     0.10   0.06   0.07     0.11  -0.00  -0.03
  37   1    -0.03   0.04  -0.02     0.03   0.14  -0.06     0.04   0.08  -0.06
  38   1    -0.03   0.01   0.00     0.05   0.02   0.02     0.03   0.10  -0.08
  39   1     0.03  -0.01   0.01    -0.05  -0.03   0.02    -0.08  -0.04   0.06
  40   1     0.03  -0.06   0.03    -0.06   0.06   0.07    -0.11  -0.03  -0.07
  41   1    -0.09   0.09  -0.04     0.08  -0.10   0.10     0.09  -0.03  -0.03
  42   1    -0.09   0.12  -0.05     0.05   0.05   0.01     0.09  -0.13   0.03
  43   1    -0.13   0.00   0.02     0.09   0.08   0.08     0.12   0.01  -0.09
  44   1     0.02   0.01  -0.01    -0.02  -0.02   0.00    -0.03  -0.02   0.03
  45   1     0.04   0.02   0.01     0.02   0.05   0.13     0.02  -0.09  -0.08
                     25                     26                     27
                        a                      a                      a 
 Frequencies --   320.3540               327.8896               364.7438
 Red. masses --    10.5604                22.0580                11.3478
 Frc consts  --     0.0000                 0.0000                 0.0000
 IR Inten    --     8.0188                 2.5985                 2.3507
 Raman Activ --     0.0000                 0.0000                 0.0000
 Depolar     --     0.0000                 0.0000                 0.0000
 Atom AN      X      Y      Z        X      Y      Z        X      Y      Z
   1   7     0.01   0.18  -0.24    -0.07  -0.07   0.09     0.02   0.06  -0.10
   2   6    -0.07   0.19   0.06    -0.06  -0.04  -0.07     0.02   0.04   0.07
   3   6     0.00  -0.21  -0.11     0.04   0.06  -0.03    -0.04  -0.10   0.01
   4   6     0.06   0.05   0.23     0.06   0.08  -0.04     0.03   0.15   0.23
   5   6     0.09   0.04   0.23    -0.11   0.07  -0.03     0.02  -0.00   0.01
   6   6     0.09  -0.16  -0.08    -0.18  -0.10   0.06     0.01  -0.12  -0.16
   7   6     0.04  -0.18  -0.20    -0.07  -0.17   0.10     0.00   0.02   0.04
   8   6     0.02  -0.01  -0.11    -0.05   0.07  -0.05    -0.00   0.13   0.24
   9   6    -0.03   0.10   0.10    -0.05   0.11  -0.07    -0.00   0.04   0.09
  10   6    -0.04   0.07   0.08    -0.07   0.12  -0.06    -0.02  -0.16  -0.27
  11   6    -0.01   0.03  -0.05    -0.16   0.08  -0.05    -0.02   0.03   0.04
  12   6    -0.06  -0.01  -0.03     0.02   0.08  -0.04    -0.02  -0.17  -0.29
  13   6    -0.05  -0.15  -0.10     0.14  -0.13   0.08     0.01   0.03   0.07
  14   6    -0.10  -0.11  -0.04     0.01  -0.11   0.07     0.02   0.14   0.25
  15   6    -0.10   0.06   0.14    -0.04   0.06  -0.05     0.00  -0.07  -0.14
  16   6    -0.05   0.07   0.08     0.03   0.12  -0.08    -0.00  -0.14  -0.26
  17   6    -0.04  -0.00  -0.09    -0.02   0.01   0.00     0.01  -0.04  -0.05
  18   6    -0.05  -0.05  -0.14    -0.10  -0.04   0.04     0.02   0.09   0.17
  19   6     0.10   0.00   0.04     0.04  -0.10   0.05    -0.02  -0.02  -0.02
  20   6    -0.04  -0.04  -0.04    -0.12  -0.03   0.03     0.01   0.07   0.12
  21   6     0.04   0.05   0.15    -0.11  -0.04   0.02    -0.02  -0.13  -0.24
  22  16     0.10  -0.01  -0.07    -0.15  -0.00   0.02    -0.02   0.07   0.13
  23  16    -0.02  -0.03   0.07     0.54  -0.01  -0.03     0.06   0.06   0.08
  24  16    -0.01   0.16   0.02    -0.06   0.23  -0.14    -0.06   0.01   0.03
  25  16     0.06  -0.08   0.11     0.29  -0.21   0.13     0.03  -0.05  -0.10
  26   1     0.01  -0.04  -0.11     0.00   0.02   0.04    -0.02  -0.02  -0.05
  27   1    -0.00   0.06  -0.04    -0.03  -0.04   0.03     0.01   0.04  -0.04
  28   1     0.01   0.12  -0.13    -0.02  -0.05   0.05     0.02   0.04  -0.05
  29   1    -0.10   0.08  -0.05    -0.01  -0.01  -0.02    -0.01   0.01   0.01
  30   1    -0.04   0.09   0.11    -0.02  -0.01  -0.02     0.00   0.01   0.04
  31   1     0.08  -0.14  -0.19     0.02   0.01   0.04     0.05  -0.09  -0.10
  32   1    -0.16  -0.17   0.01     0.03   0.04  -0.03    -0.14  -0.09   0.01
  33   1     0.03   0.03   0.10    -0.06   0.05  -0.02     0.01   0.00  -0.00
  34   1     0.03  -0.07  -0.06    -0.09  -0.04   0.02     0.00  -0.06  -0.08
  35   1    -0.02   0.04   0.05    -0.02   0.03  -0.02     0.00   0.04   0.07
  36   1     0.01  -0.01  -0.03    -0.07   0.03  -0.02    -0.01   0.04   0.06
  37   1     0.01  -0.01  -0.01    -0.05   0.01  -0.00    -0.04   0.09  -0.00
  38   1    -0.02   0.03  -0.04    -0.05   0.02  -0.01     0.03  -0.04   0.08
  39   1    -0.04  -0.05  -0.03    -0.03  -0.06   0.04     0.01   0.08   0.13
  40   1    -0.04   0.04   0.07    -0.05   0.03  -0.02    -0.00  -0.04  -0.07
  41   1     0.04  -0.05   0.05     0.02  -0.05   0.02    -0.00   0.03  -0.05
  42   1     0.04   0.02   0.01     0.02  -0.05   0.03    -0.01  -0.05   0.00
  43   1     0.06   0.05   0.02     0.04   0.00  -0.01    -0.01  -0.03  -0.03
  44   1    -0.02  -0.02  -0.00    -0.03  -0.01   0.01     0.01   0.03   0.04
  45   1     0.02   0.03   0.08    -0.03  -0.02   0.01    -0.01  -0.07  -0.12
                     28                     29                     30
                        a                      a                      a 
 Frequencies --   371.1416               410.6535               419.1882
 Red. masses --    21.9794                12.5889                17.3720
 Frc consts  --     0.0000                 0.0000                 0.0000
 IR Inten    --     1.8785                 2.6124                 1.7840
 Raman Activ --     0.0000                 0.0000                 0.0000
 Depolar     --     0.0000                 0.0000                 0.0000
 Atom AN      X      Y      Z        X      Y      Z        X      Y      Z
   1   7     0.06   0.06  -0.09     0.02   0.04  -0.09    -0.01   0.00  -0.00
   2   6     0.10  -0.00   0.16     0.05   0.00   0.10    -0.01   0.00  -0.01
   3   6     0.07  -0.16   0.08    -0.10  -0.06   0.07     0.02  -0.00  -0.01
   4   6     0.09  -0.09  -0.01    -0.00   0.22   0.26     0.03   0.05   0.05
   5   6     0.12  -0.07   0.01    -0.04  -0.07  -0.20    -0.03  -0.00  -0.01
   6   6     0.12   0.06   0.01    -0.05  -0.05  -0.07    -0.05  -0.06   0.00
   7   6    -0.03   0.13  -0.07    -0.00   0.15   0.30    -0.03  -0.02   0.06
   8   6    -0.11  -0.13   0.03     0.01   0.15   0.25    -0.03   0.14  -0.02
   9   6    -0.10  -0.10   0.04     0.04  -0.10  -0.18    -0.21   0.01  -0.04
  10   6    -0.10   0.06   0.04     0.04  -0.02  -0.08    -0.20  -0.11   0.04
  11   6    -0.10   0.04  -0.03    -0.00  -0.01   0.03     0.06   0.10  -0.06
  12   6    -0.05   0.07   0.04     0.03   0.13   0.16    -0.07  -0.12   0.11
  13   6     0.05  -0.03   0.01     0.03   0.12   0.17    -0.11  -0.02   0.07
  14   6     0.10  -0.05  -0.03     0.02  -0.04  -0.09    -0.14  -0.04   0.01
  15   6     0.10   0.06  -0.01     0.01  -0.05  -0.07    -0.13   0.02  -0.03
  16   6     0.13   0.09   0.00    -0.00   0.09   0.19     0.02   0.10  -0.01
  17   6     0.09  -0.06   0.05    -0.01   0.14   0.17     0.09  -0.11   0.12
  18   6     0.09  -0.09   0.01    -0.07  -0.02  -0.06     0.29  -0.04  -0.01
  19   6    -0.13  -0.02   0.02     0.04  -0.01   0.02    -0.13   0.09  -0.04
  20   6     0.06  -0.00  -0.03    -0.07  -0.10  -0.14     0.29   0.04  -0.09
  21   6    -0.06   0.06   0.02    -0.01   0.09   0.22     0.11   0.13  -0.02
  22  16    -0.20  -0.09   0.03     0.03  -0.01  -0.16    -0.11  -0.32   0.15
  23  16     0.38   0.12  -0.12    -0.02  -0.13  -0.07    -0.06   0.24  -0.17
  24  16    -0.43  -0.17   0.11     0.01  -0.06  -0.13     0.28   0.03  -0.05
  25  16    -0.06   0.26  -0.15     0.04  -0.11  -0.14     0.11  -0.13   0.05
  26   1    -0.02  -0.05  -0.06    -0.04  -0.02  -0.04    -0.00   0.00  -0.00
  27   1     0.03   0.06  -0.04     0.02   0.04  -0.05    -0.00  -0.00  -0.00
  28   1     0.02   0.06  -0.06     0.02   0.03  -0.03    -0.00  -0.00   0.00
  29   1     0.02   0.00   0.04     0.03  -0.01   0.05    -0.01   0.00  -0.01
  30   1     0.02  -0.01   0.06     0.02  -0.01   0.01    -0.01   0.00   0.01
  31   1     0.04  -0.07  -0.04     0.04  -0.09  -0.08     0.02  -0.02  -0.01
  32   1    -0.01  -0.10   0.06    -0.16  -0.08   0.02    -0.02  -0.01  -0.01
  33   1     0.04  -0.03  -0.00    -0.02  -0.05  -0.11    -0.02   0.00  -0.01
  34   1     0.08   0.03   0.00    -0.03  -0.03  -0.04    -0.03  -0.03  -0.00
  35   1    -0.00  -0.05   0.01     0.01  -0.06  -0.10    -0.10   0.02  -0.03
  36   1    -0.02   0.00  -0.02    -0.02   0.02   0.02     0.10  -0.01   0.02
  37   1    -0.02  -0.00  -0.01    -0.01   0.01   0.01     0.01   0.09  -0.06
  38   1    -0.04   0.03  -0.02     0.01  -0.03   0.03     0.02   0.07  -0.04
  39   1     0.03  -0.02  -0.02     0.00  -0.03  -0.06    -0.04  -0.01  -0.00
  40   1     0.01   0.03  -0.00     0.01  -0.04  -0.05    -0.08   0.02  -0.02
  41   1    -0.05   0.02  -0.00     0.02  -0.03   0.03    -0.07   0.10  -0.05
  42   1    -0.05   0.03  -0.01     0.02   0.00   0.01    -0.07   0.10  -0.05
  43   1    -0.07  -0.04   0.04     0.03   0.03   0.00    -0.12  -0.07   0.05
  44   1     0.04   0.02  -0.02    -0.03  -0.05  -0.07     0.10   0.03  -0.05
  45   1    -0.03   0.04   0.01     0.01   0.04   0.10    -0.00   0.09  -0.03
                     31                     32                     33
                        a                      a                      a 
 Frequencies --   442.1599               466.2140               479.0973
 Red. masses --    11.5485                13.8895                13.4371
 Frc consts  --     0.0000                 0.0000                 0.0000
 IR Inten    --     0.8399                 2.9133                 1.6560
 Raman Activ --     0.0000                 0.0000                 0.0000
 Depolar     --     0.0000                 0.0000                 0.0000
 Atom AN      X      Y      Z        X      Y      Z        X      Y      Z
   1   7     0.02   0.03  -0.06     0.03   0.04  -0.06    -0.02  -0.03   0.04
   2   6     0.06  -0.02   0.12     0.14  -0.06   0.25    -0.07   0.02  -0.12
   3   6    -0.07  -0.06   0.08    -0.02  -0.16   0.14     0.15   0.03  -0.09
   4   6     0.00   0.13   0.11     0.06  -0.03  -0.17     0.06  -0.08   0.01
   5   6    -0.06  -0.08  -0.21    -0.16   0.02  -0.11     0.06   0.04   0.23
   6   6    -0.08   0.04   0.08    -0.21   0.06   0.15     0.05  -0.15  -0.14
   7   6    -0.03   0.08   0.20    -0.15  -0.10  -0.05    -0.04   0.03  -0.03
   8   6    -0.01  -0.02  -0.07    -0.12  -0.06  -0.23    -0.08   0.21   0.25
   9   6    -0.01  -0.07  -0.15    -0.17   0.11   0.09    -0.24  -0.08  -0.07
  10   6     0.00   0.11   0.19    -0.16  -0.01   0.02    -0.25  -0.06  -0.05
  11   6     0.01   0.00  -0.01    -0.02   0.11  -0.08    -0.07   0.16  -0.09
  12   6     0.02   0.10   0.18     0.05  -0.15  -0.09    -0.00   0.01   0.16
  13   6    -0.01  -0.12  -0.22     0.02   0.06  -0.05    -0.00   0.11   0.04
  14   6    -0.01  -0.07  -0.14     0.13   0.12   0.04     0.15  -0.02  -0.16
  15   6     0.01   0.14   0.24     0.14  -0.06  -0.07     0.19   0.02   0.08
  16   6    -0.01  -0.05  -0.08     0.04  -0.07   0.00     0.09  -0.01   0.10
  17   6    -0.02  -0.19  -0.33     0.02   0.09   0.08     0.04  -0.04  -0.14
  18   6     0.00  -0.00  -0.01    -0.08  -0.00   0.04    -0.09  -0.07  -0.01
  19   6     0.00   0.00  -0.01     0.02  -0.06   0.03     0.00  -0.10   0.06
  20   6     0.02   0.14   0.24    -0.10  -0.06  -0.05    -0.10   0.02   0.11
  21   6    -0.01  -0.15  -0.27    -0.05   0.01   0.09    -0.09  -0.08  -0.06
  22  16     0.01   0.09   0.15     0.02   0.13  -0.13     0.01   0.23  -0.08
  23  16    -0.02   0.04   0.07    -0.09   0.02   0.00    -0.05   0.04  -0.06
  24  16     0.08  -0.01  -0.05     0.31  -0.09   0.14     0.15  -0.24   0.05
  25  16     0.06  -0.05  -0.06     0.13   0.07   0.00     0.01  -0.02   0.02
  26   1    -0.04  -0.03  -0.03    -0.07  -0.06  -0.06     0.04   0.03   0.03
  27   1     0.02   0.04  -0.04     0.04   0.08  -0.06    -0.02  -0.04   0.04
  28   1     0.02   0.03  -0.03     0.02   0.05  -0.05    -0.02  -0.03   0.02
  29   1     0.04  -0.02   0.06     0.08  -0.04   0.11    -0.07   0.03  -0.08
  30   1     0.02  -0.02   0.00     0.05  -0.05   0.02    -0.03   0.03   0.03
  31   1     0.02  -0.07  -0.05     0.03  -0.08  -0.04     0.01   0.04   0.03
  32   1    -0.10  -0.06   0.04    -0.05  -0.12   0.09     0.09   0.05  -0.05
  33   1    -0.03  -0.05  -0.12    -0.08   0.03  -0.07     0.02   0.04   0.12
  34   1    -0.04   0.02   0.04    -0.08   0.04   0.08     0.03  -0.07  -0.09
  35   1    -0.01  -0.05  -0.10    -0.06   0.07   0.07    -0.08  -0.04  -0.07
  36   1     0.01  -0.02  -0.03     0.06  -0.00  -0.01     0.06   0.02   0.01
  37   1     0.03  -0.05   0.00    -0.00   0.06  -0.05    -0.03   0.12  -0.06
  38   1    -0.03   0.03  -0.05    -0.01   0.07  -0.05    -0.01   0.07  -0.03
  39   1    -0.00  -0.03  -0.06     0.06   0.07   0.03     0.07  -0.01  -0.10
  40   1     0.01   0.08   0.14     0.06  -0.04  -0.03     0.08   0.00   0.03
  41   1    -0.00   0.00  -0.00     0.01  -0.03   0.01     0.01  -0.05   0.04
  42   1     0.00   0.00  -0.00     0.01  -0.04   0.02     0.01  -0.03   0.02
  43   1    -0.00  -0.00  -0.00     0.03   0.01  -0.01     0.02   0.00   0.01
  44   1     0.01   0.08   0.13    -0.03  -0.03  -0.04    -0.02   0.03   0.06
  45   1    -0.01  -0.06  -0.10    -0.00  -0.02   0.04    -0.01  -0.05  -0.00
                     34                     35                     36
                        a                      a                      a 
 Frequencies --   497.0893               513.7607               535.2698
 Red. masses --    11.7025                11.3282                19.0683
 Frc consts  --     0.0000                 0.0000                 0.0000
 IR Inten    --     0.6255                 0.1699                 5.2610
 Raman Activ --     0.0000                 0.0000                 0.0000
 Depolar     --     0.0000                 0.0000                 0.0000
 Atom AN      X      Y      Z        X      Y      Z        X      Y      Z
   1   7     0.03   0.03  -0.03    -0.01  -0.00   0.02     0.01   0.01  -0.01
   2   6     0.11  -0.06   0.19    -0.04   0.03  -0.07     0.02  -0.01   0.04
   3   6    -0.07  -0.12   0.10    -0.00   0.06  -0.03    -0.08   0.00   0.03
   4   6    -0.01  -0.15  -0.35    -0.01   0.11   0.19    -0.04  -0.00  -0.07
   5   6    -0.13   0.19   0.14     0.06  -0.14  -0.18     0.00   0.04  -0.02
   6   6    -0.16  -0.03  -0.08     0.08   0.09   0.14     0.01   0.03  -0.00
   7   6    -0.07  -0.16  -0.15     0.04   0.02  -0.01     0.05  -0.04  -0.04
   8   6    -0.00   0.13   0.23     0.01  -0.17  -0.27     0.07   0.07   0.01
   9   6     0.12   0.05  -0.02    -0.03   0.10   0.21    -0.01  -0.03   0.01
  10   6     0.13  -0.09  -0.17    -0.04  -0.10  -0.13     0.03  -0.21   0.12
  11   6     0.05  -0.08   0.04    -0.02   0.01  -0.02     0.21  -0.22   0.13
  12   6     0.04   0.06   0.03    -0.03  -0.10  -0.15    -0.15  -0.10   0.09
  13   6     0.04   0.13   0.24     0.00   0.23   0.38    -0.15  -0.07   0.04
  14   6    -0.08  -0.09  -0.14     0.01  -0.08  -0.12     0.03  -0.10   0.06
  15   6    -0.08   0.04   0.03     0.02  -0.03  -0.03     0.05  -0.10   0.07
  16   6    -0.05   0.13   0.17     0.04   0.18   0.31     0.17  -0.03  -0.01
  17   6    -0.05  -0.08  -0.13     0.01  -0.09  -0.15     0.18  -0.05   0.02
  18   6     0.02  -0.01  -0.11    -0.01  -0.10  -0.14     0.05  -0.19   0.12
  19   6     0.01   0.06  -0.04    -0.01  -0.03   0.01    -0.09  -0.26   0.15
  20   6     0.05   0.09   0.11     0.00   0.09   0.17     0.01  -0.02   0.01
  21   6     0.04  -0.04  -0.10    -0.02  -0.07  -0.11    -0.10   0.01   0.00
  22  16     0.00  -0.09   0.11     0.00   0.07   0.03     0.01   0.34  -0.20
  23  16     0.00  -0.10  -0.04    -0.01  -0.05  -0.13    -0.04   0.21  -0.12
  24  16     0.00   0.06  -0.09    -0.02   0.03   0.07    -0.16   0.32  -0.20
  25  16     0.03   0.13   0.02    -0.01  -0.07   0.01     0.01  -0.03   0.04
  26   1    -0.06  -0.05  -0.04     0.02   0.02   0.02    -0.02  -0.01  -0.01
  27   1     0.03   0.06  -0.05    -0.01  -0.03   0.02     0.01   0.01  -0.01
  28   1     0.01   0.04  -0.04    -0.00  -0.01   0.02     0.01   0.01  -0.01
  29   1     0.08  -0.04   0.10    -0.02   0.01  -0.03     0.03  -0.01   0.04
  30   1     0.05  -0.04  -0.01    -0.01   0.02  -0.01     0.01  -0.01  -0.03
  31   1    -0.02  -0.04  -0.01     0.01   0.01  -0.00    -0.02  -0.00  -0.01
  32   1     0.00  -0.09   0.08    -0.03   0.03  -0.03    -0.03  -0.01   0.02
  33   1    -0.06   0.13   0.10     0.03  -0.09  -0.11     0.01   0.01   0.00
  34   1    -0.07  -0.01  -0.02     0.03   0.05   0.07    -0.02   0.01   0.01
  35   1     0.04   0.01  -0.01    -0.01   0.09   0.16    -0.06   0.01  -0.02
  36   1    -0.02   0.01   0.02     0.00   0.01   0.01     0.09  -0.08   0.05
  37   1    -0.01   0.00   0.02    -0.03   0.04  -0.01     0.06  -0.04   0.02
  38   1     0.04  -0.07   0.06     0.02  -0.01   0.02     0.06  -0.05   0.03
  39   1    -0.04  -0.08  -0.11     0.00  -0.07  -0.13     0.04  -0.00   0.00
  40   1    -0.03  -0.00  -0.01     0.00  -0.05  -0.08    -0.02  -0.01   0.02
  41   1    -0.00   0.01   0.01    -0.01  -0.03   0.04    -0.03  -0.06   0.03
  42   1     0.01   0.05  -0.02     0.01   0.03  -0.00    -0.03  -0.06   0.04
  43   1    -0.00   0.02   0.00    -0.00   0.00   0.02    -0.04  -0.09   0.05
  44   1     0.01   0.04   0.08     0.01   0.07   0.11     0.04   0.03  -0.03
  45   1     0.00  -0.00  -0.03    -0.00  -0.02  -0.02    -0.01  -0.02   0.01
                     37                     38                     39
                        a                      a                      a 
 Frequencies --   552.1026               559.7431               574.6083
 Red. masses --    11.0198                10.3913                13.3832
 Frc consts  --     0.0000                 0.0000                 0.0000
 IR Inten    --     0.4879                 0.0456                 0.3353
 Raman Activ --     0.0000                 0.0000                 0.0000
 Depolar     --     0.0000                 0.0000                 0.0000
 Atom AN      X      Y      Z        X      Y      Z        X      Y      Z
   1   7     0.00  -0.00  -0.00     0.00  -0.00  -0.00    -0.02  -0.05   0.04
   2   6     0.01  -0.01   0.02     0.00  -0.00   0.00    -0.01  -0.02  -0.04
   3   6     0.05  -0.04  -0.01     0.01  -0.01  -0.00     0.44  -0.09  -0.08
   4   6     0.03  -0.10  -0.13     0.01  -0.01  -0.02     0.23   0.01   0.24
   5   6    -0.04   0.14   0.23    -0.01   0.02   0.04    -0.19  -0.16   0.03
   6   6    -0.06  -0.21  -0.30    -0.01  -0.04  -0.05    -0.21  -0.09   0.13
   7   6    -0.03   0.34   0.54    -0.01   0.08   0.13    -0.24  -0.07  -0.02
   8   6    -0.03  -0.19  -0.32    -0.01  -0.10  -0.16    -0.14   0.08  -0.02
   9   6     0.02   0.03   0.01     0.01   0.08   0.11     0.02   0.11  -0.07
  10   6     0.03   0.03   0.09     0.00  -0.10  -0.16     0.10  -0.11   0.06
  11   6     0.04  -0.04   0.03     0.01  -0.01  -0.00     0.20  -0.18   0.11
  12   6    -0.00  -0.05  -0.06     0.00   0.02   0.04     0.03  -0.06   0.04
  13   6    -0.01  -0.02  -0.02     0.02   0.17   0.29     0.00   0.01  -0.01
  14   6     0.00   0.04   0.07    -0.02  -0.17  -0.29     0.03   0.02  -0.01
  15   6    -0.01  -0.06  -0.08     0.02   0.19   0.31     0.03   0.01  -0.01
  16   6     0.01   0.08   0.13    -0.02  -0.23  -0.38    -0.01  -0.01   0.01
  17   6     0.01  -0.01  -0.00    -0.00  -0.02  -0.04    -0.03   0.02  -0.01
  18   6    -0.00  -0.05  -0.07     0.02   0.15   0.27    -0.02   0.04  -0.03
  19   6    -0.00  -0.01   0.00     0.00   0.01   0.02     0.02   0.06  -0.03
  20   6     0.01   0.03   0.06    -0.01  -0.11  -0.19    -0.02  -0.00   0.01
  21   6    -0.00  -0.02  -0.04     0.01   0.07   0.11     0.00  -0.02   0.01
  22  16     0.00   0.02   0.00    -0.00  -0.01  -0.02    -0.01  -0.05   0.03
  23  16    -0.01  -0.00  -0.02     0.00   0.01   0.02     0.01  -0.01   0.01
  24  16    -0.00   0.06   0.02    -0.00   0.02   0.01    -0.02   0.12  -0.08
  25  16    -0.01   0.01  -0.08    -0.00   0.00  -0.02    -0.15   0.27  -0.18
  26   1    -0.01  -0.00  -0.00    -0.00   0.00   0.00     0.04   0.01   0.02
  27   1     0.01   0.01  -0.01     0.00   0.00  -0.00    -0.02  -0.02   0.05
  28   1     0.00  -0.00   0.00    -0.00  -0.00   0.00    -0.03  -0.03   0.01
  29   1    -0.00   0.00  -0.00    -0.00   0.00  -0.00    -0.13   0.05  -0.13
  30   1     0.00  -0.00   0.02    -0.00   0.00   0.01    -0.05   0.03   0.17
  31   1     0.00  -0.00   0.00     0.00  -0.00   0.00     0.13  -0.03   0.02
  32   1     0.04  -0.02   0.01     0.01  -0.00   0.00     0.12   0.01  -0.05
  33   1    -0.02   0.08   0.11    -0.00   0.01   0.01    -0.10  -0.01  -0.06
  34   1    -0.02  -0.15  -0.22    -0.00  -0.03  -0.05    -0.03  -0.01   0.04
  35   1     0.00   0.05   0.06     0.00   0.06   0.10    -0.01   0.03  -0.03
  36   1     0.01  -0.02  -0.01     0.00   0.01   0.02     0.07  -0.06   0.04
  37   1     0.03  -0.04   0.01    -0.02   0.04  -0.00     0.06  -0.04   0.03
  38   1    -0.00   0.00  -0.02     0.03  -0.03   0.04     0.06  -0.05   0.03
  39   1     0.00   0.02   0.03    -0.01  -0.10  -0.17     0.01   0.01  -0.00
  40   1    -0.01  -0.04  -0.06     0.01   0.11   0.19     0.02  -0.00  -0.00
  41   1    -0.01  -0.02   0.02     0.02   0.05  -0.07     0.01   0.01  -0.00
  42   1     0.00   0.02  -0.00    -0.02  -0.08   0.02     0.01   0.01  -0.01
  43   1    -0.00   0.00   0.01    -0.00  -0.02  -0.03     0.01   0.03  -0.01
  44   1     0.00   0.02   0.04    -0.01  -0.07  -0.13    -0.02  -0.01   0.01
  45   1    -0.00  -0.00  -0.00     0.00   0.00   0.00    -0.00  -0.00   0.00
                     40                     41                     42
                        a                      a                      a 
 Frequencies --   591.2519               592.3826               595.2124
 Red. masses --    13.9817                11.1267                11.0036
 Frc consts  --     0.0000                 0.0000                 0.0000
 IR Inten    --     0.5150                 1.3235                 0.0590
 Raman Activ --     0.0000                 0.0000                 0.0000
 Depolar     --     0.0000                 0.0000                 0.0000
 Atom AN      X      Y      Z        X      Y      Z        X      Y      Z
   1   7     0.00   0.01  -0.01    -0.00  -0.00  -0.00    -0.00   0.00   0.00
   2   6    -0.00   0.01   0.00     0.00  -0.00  -0.00    -0.00   0.00  -0.00
   3   6    -0.12   0.03   0.02     0.03  -0.00  -0.00    -0.00   0.00  -0.00
   4   6    -0.06   0.01  -0.06     0.01   0.00   0.02    -0.00   0.00   0.00
   5   6     0.07   0.04  -0.02    -0.02  -0.01  -0.01     0.00  -0.00  -0.01
   6   6     0.07   0.03  -0.03    -0.01   0.00   0.02     0.00   0.00   0.01
   7   6     0.06   0.03  -0.01    -0.01  -0.00   0.01     0.00   0.00   0.00
   8   6     0.02   0.02  -0.06    -0.01  -0.09  -0.12    -0.00  -0.03  -0.05
   9   6    -0.17  -0.03   0.09     0.05   0.14   0.19    -0.00   0.05   0.08
  10   6    -0.13  -0.26   0.03     0.02  -0.22  -0.45    -0.01  -0.12  -0.18
  11   6     0.13  -0.13   0.07    -0.03   0.02  -0.04     0.00  -0.01  -0.01
  12   6    -0.08  -0.05   0.18     0.04   0.32   0.44     0.01   0.14   0.22
  13   6    -0.05   0.01  -0.08    -0.00  -0.15  -0.22    -0.01  -0.11  -0.19
  14   6     0.24   0.04  -0.03    -0.06   0.01   0.04     0.01   0.06   0.10
  15   6     0.24   0.01  -0.01    -0.06  -0.00   0.00    -0.00  -0.07  -0.12
  16   6     0.01  -0.08   0.01    -0.01  -0.04  -0.10     0.02   0.19   0.32
  17   6    -0.10   0.15  -0.00     0.04   0.10   0.24    -0.03  -0.26  -0.46
  18   6    -0.13   0.18  -0.17     0.02  -0.18  -0.19     0.02   0.23   0.40
  19   6     0.13   0.31  -0.19    -0.03  -0.08   0.03     0.00   0.02   0.02
  20   6    -0.12  -0.05   0.08     0.04   0.08   0.10    -0.01  -0.11  -0.19
  21   6    -0.03  -0.12   0.05     0.00  -0.02  -0.09     0.01   0.07   0.13
  22  16    -0.09  -0.24   0.14     0.02   0.05  -0.04     0.00   0.01   0.03
  23  16     0.10   0.05  -0.02    -0.02   0.01   0.04     0.00  -0.01  -0.02
  24  16    -0.14   0.17  -0.11     0.03  -0.06   0.00    -0.00  -0.01  -0.01
  25  16     0.06  -0.10   0.07    -0.01   0.02  -0.02     0.00  -0.00   0.00
  26   1    -0.01  -0.00  -0.00     0.00   0.00   0.00     0.00   0.00   0.00
  27   1     0.00   0.00  -0.01    -0.00  -0.00   0.00    -0.00  -0.00   0.00
  28   1     0.01   0.01  -0.00    -0.00  -0.00  -0.00     0.00   0.00   0.00
  29   1     0.03  -0.01   0.03    -0.01   0.00  -0.01    -0.00   0.00  -0.00
  30   1     0.01  -0.01  -0.05    -0.00   0.00   0.01    -0.00   0.00  -0.00
  31   1    -0.03   0.01  -0.01     0.01  -0.00   0.00     0.00  -0.00   0.00
  32   1    -0.03   0.00   0.01     0.01   0.00  -0.00    -0.00   0.00  -0.00
  33   1     0.04  -0.00   0.01    -0.01  -0.01  -0.01     0.00  -0.00  -0.00
  34   1     0.01   0.01  -0.01    -0.00  -0.01  -0.00     0.00  -0.00  -0.00
  35   1    -0.11   0.03   0.03     0.03   0.08   0.13    -0.00   0.03   0.05
  36   1     0.11  -0.07   0.06    -0.03   0.06   0.04     0.00   0.02   0.03
  37   1     0.02   0.04  -0.01    -0.08   0.12  -0.02    -0.03   0.05  -0.01
  38   1     0.06  -0.01   0.02     0.07  -0.07   0.10     0.03  -0.03   0.04
  39   1     0.11   0.05  -0.02    -0.02   0.02   0.07     0.00   0.03   0.05
  40   1     0.11  -0.01   0.01    -0.03   0.02   0.03    -0.00  -0.06  -0.10
  41   1     0.05   0.03  -0.02    -0.03  -0.06   0.06     0.02   0.09  -0.10
  42   1     0.06   0.07  -0.03     0.00   0.06  -0.01    -0.02  -0.13   0.03
  43   1     0.09   0.15  -0.08    -0.02  -0.02   0.05    -0.00  -0.03  -0.06
  44   1    -0.08  -0.05   0.06     0.03   0.06   0.06    -0.01  -0.07  -0.13
  45   1    -0.01  -0.02   0.02     0.00   0.02   0.02    -0.00  -0.02  -0.03
                     43                     44                     45
                        a                      a                      a 
 Frequencies --   656.2217               685.0348               688.7412
 Red. masses --    15.6663                15.9507                18.2703
 Frc consts  --     0.0000                 0.0000                 0.0000
 IR Inten    --     0.1212                 9.8783                56.3620
 Raman Activ --     0.0000                 0.0000                 0.0000
 Depolar     --     0.0000                 0.0000                 0.0000
 Atom AN      X      Y      Z        X      Y      Z        X      Y      Z
   1   7    -0.00  -0.00   0.00     0.02   0.03  -0.01    -0.02  -0.05   0.02
   2   6     0.01  -0.01   0.01    -0.05   0.04  -0.06     0.07  -0.06   0.10
   3   6     0.05  -0.01  -0.01    -0.22   0.05   0.02     0.30  -0.05  -0.03
   4   6     0.02  -0.00   0.01    -0.09  -0.07   0.03     0.13   0.13  -0.09
   5   6    -0.05  -0.00   0.00     0.10  -0.10   0.06    -0.05   0.18  -0.11
   6   6    -0.04  -0.00   0.00     0.08  -0.16   0.10    -0.05   0.32  -0.21
   7   6     0.02  -0.04   0.03    -0.13  -0.00   0.00     0.08   0.19  -0.13
   8   6     0.05  -0.08   0.05    -0.16   0.20  -0.12     0.04   0.06  -0.04
   9   6     0.14  -0.03   0.01    -0.04   0.26  -0.16    -0.05   0.03  -0.02
  10   6     0.08   0.11  -0.08     0.03  -0.05   0.03    -0.01  -0.03   0.02
  11   6    -0.10   0.10  -0.06     0.13  -0.10   0.06     0.03  -0.03   0.02
  12   6    -0.03   0.07  -0.04     0.08  -0.04   0.02     0.02  -0.01   0.01
  13   6    -0.05  -0.12   0.08     0.02   0.11  -0.07     0.01   0.09  -0.05
  14   6    -0.04  -0.19   0.12    -0.14   0.17  -0.09    -0.08   0.12  -0.07
  15   6    -0.05  -0.23   0.14    -0.10   0.09  -0.05    -0.05   0.09  -0.05
  16   6     0.13  -0.10   0.06    -0.03   0.06  -0.03    -0.03   0.06  -0.04
  17   6     0.12   0.07  -0.05     0.06  -0.01   0.00     0.04  -0.01   0.00
  18   6     0.10   0.09  -0.06     0.17  -0.01  -0.00     0.11  -0.01  -0.00
  19   6     0.13   0.24  -0.14     0.05   0.06  -0.04     0.03   0.03  -0.02
  20   6     0.13  -0.31   0.17     0.23  -0.22   0.11     0.15  -0.14   0.07
  21   6    -0.18  -0.29   0.18    -0.10  -0.18   0.11    -0.06  -0.11   0.07
  22  16    -0.22   0.13  -0.06    -0.14   0.18  -0.10    -0.09   0.12  -0.06
  23  16    -0.09   0.31  -0.18     0.06  -0.21   0.12     0.04  -0.17   0.10
  24  16     0.11  -0.03   0.01    -0.13  -0.15   0.10    -0.10  -0.06   0.04
  25  16    -0.06   0.06  -0.04     0.24   0.09  -0.06    -0.23  -0.39   0.26
  26   1    -0.00  -0.00   0.00     0.02   0.02   0.00    -0.03  -0.03  -0.01
  27   1     0.00   0.00   0.00    -0.00  -0.02  -0.01     0.01   0.04   0.00
  28   1    -0.00  -0.00  -0.00     0.02   0.01   0.01    -0.03  -0.01  -0.01
  29   1    -0.01   0.00  -0.01     0.04  -0.01   0.03    -0.05   0.01  -0.03
  30   1    -0.00   0.00   0.02     0.01   0.00  -0.10    -0.01  -0.01   0.13
  31   1     0.01  -0.00   0.00    -0.09   0.04   0.01     0.13  -0.07  -0.02
  32   1     0.01  -0.00  -0.00    -0.04   0.03  -0.00     0.04  -0.05   0.01
  33   1    -0.02   0.01  -0.01     0.04  -0.04   0.03    -0.01   0.05  -0.04
  34   1    -0.02  -0.00   0.00     0.06  -0.04   0.03    -0.02   0.09  -0.06
  35   1     0.08  -0.03   0.02    -0.05   0.09  -0.06    -0.04   0.02  -0.01
  36   1    -0.09   0.06  -0.04     0.06  -0.04   0.03     0.03  -0.02   0.01
  37   1    -0.03  -0.01   0.01     0.03  -0.01   0.00     0.01   0.00  -0.00
  38   1    -0.03  -0.01   0.01     0.04  -0.01   0.00     0.01   0.00  -0.00
  39   1     0.00  -0.04   0.03    -0.05   0.04  -0.02    -0.03   0.03  -0.02
  40   1    -0.06  -0.05   0.03    -0.02   0.02  -0.01    -0.01   0.03  -0.01
  41   1     0.04   0.06  -0.04     0.00   0.04  -0.02     0.00   0.02  -0.01
  42   1     0.04   0.06  -0.04     0.00   0.04  -0.02     0.00   0.02  -0.01
  43   1     0.05   0.08  -0.05    -0.02  -0.02   0.01    -0.01  -0.01   0.01
  44   1     0.02  -0.10   0.05     0.08  -0.05   0.02     0.05  -0.03   0.01
  45   1    -0.06  -0.07   0.04    -0.04  -0.03   0.02    -0.02  -0.02   0.01
                     46                     47                     48
                        a                      a                      a 
 Frequencies --   699.6115               721.6105               730.5289
 Red. masses --    18.2019                14.9366                14.8803
 Frc consts  --     0.0000                 0.0000                 0.0000
 IR Inten    --    20.8150                24.3285                 2.9464
 Raman Activ --     0.0000                 0.0000                 0.0000
 Depolar     --     0.0000                 0.0000                 0.0000
 Atom AN      X      Y      Z        X      Y      Z        X      Y      Z
   1   7    -0.00  -0.01   0.00    -0.00   0.00  -0.00    -0.00   0.02  -0.01
   2   6     0.00  -0.00   0.01     0.00  -0.00   0.00     0.00   0.00  -0.02
   3   6     0.01   0.01   0.00     0.01  -0.00  -0.00    -0.04  -0.05  -0.01
   4   6     0.01   0.03  -0.03     0.00   0.00  -0.00    -0.16  -0.24   0.21
   5   6     0.04   0.03  -0.02    -0.00   0.01  -0.00    -0.42  -0.28   0.19
   6   6     0.03   0.07  -0.05    -0.00  -0.01   0.01    -0.14   0.36  -0.23
   7   6    -0.08   0.14  -0.09     0.02  -0.03   0.02     0.01   0.25  -0.17
   8   6    -0.12   0.26  -0.16     0.03  -0.04   0.02     0.01  -0.06   0.04
   9   6     0.09   0.39  -0.25    -0.02  -0.07   0.04     0.00  -0.06   0.04
  10   6     0.15   0.04  -0.03    -0.03  -0.02   0.01     0.01   0.01  -0.01
  11   6     0.10  -0.05   0.03    -0.03   0.00   0.00    -0.00  -0.00   0.00
  12   6     0.05  -0.00  -0.00    -0.02   0.00  -0.00    -0.01   0.02  -0.01
  13   6     0.00  -0.08   0.05    -0.15   0.27  -0.16    -0.00   0.00  -0.00
  14   6     0.01  -0.14   0.09    -0.34   0.32  -0.17    -0.01   0.00  -0.00
  15   6    -0.00  -0.22   0.13    -0.18  -0.37   0.23    -0.01  -0.01   0.01
  16   6     0.04  -0.14   0.08    -0.04  -0.29   0.18     0.00  -0.01   0.00
  17   6    -0.02   0.01  -0.01    -0.03  -0.01   0.01     0.00   0.00  -0.00
  18   6    -0.11   0.02  -0.00    -0.03   0.01  -0.00    -0.00  -0.00   0.00
  19   6    -0.02  -0.01   0.01    -0.02  -0.01   0.01    -0.00  -0.00   0.00
  20   6    -0.16   0.13  -0.06    -0.03   0.03  -0.02    -0.00   0.00  -0.00
  21   6     0.05   0.10  -0.06     0.03   0.03  -0.02    -0.00  -0.00  -0.00
  22  16     0.08  -0.11   0.06     0.05  -0.00  -0.00     0.00  -0.00   0.00
  23  16    -0.02   0.26  -0.16     0.42   0.05  -0.05     0.01   0.00  -0.00
  24  16    -0.17  -0.31   0.20     0.06   0.04  -0.03     0.02   0.04  -0.03
  25  16     0.06  -0.19   0.12    -0.03   0.02  -0.01     0.43  -0.03   0.01
  26   1    -0.00  -0.01  -0.00    -0.00  -0.00  -0.00    -0.00   0.01  -0.00
  27   1     0.00   0.01  -0.00    -0.00  -0.00   0.00    -0.00   0.00   0.00
  28   1    -0.00  -0.00  -0.00     0.00  -0.00   0.00    -0.00   0.00   0.00
  29   1     0.00  -0.00   0.01    -0.00   0.00  -0.00    -0.03   0.02  -0.03
  30   1     0.00  -0.00   0.00    -0.00  -0.00   0.00    -0.00   0.02   0.03
  31   1     0.01  -0.01  -0.01     0.00  -0.00  -0.00    -0.06   0.04   0.01
  32   1    -0.01  -0.01   0.00     0.00  -0.00  -0.00     0.03   0.02  -0.02
  33   1     0.02   0.00   0.00    -0.00   0.00  -0.00    -0.04  -0.17   0.09
  34   1     0.04   0.03  -0.02    -0.01  -0.01   0.00     0.10   0.12  -0.09
  35   1    -0.00   0.12  -0.08    -0.00  -0.02   0.01     0.02  -0.03   0.02
  36   1    -0.00   0.00   0.00     0.00  -0.00   0.00    -0.01   0.00  -0.00
  37   1     0.03  -0.03   0.02    -0.01   0.01  -0.01    -0.00  -0.01   0.01
  38   1     0.03  -0.03   0.02    -0.01   0.01  -0.00    -0.00  -0.01   0.01
  39   1     0.01  -0.03   0.02     0.01   0.17  -0.10     0.00   0.00  -0.00
  40   1     0.00  -0.07   0.04     0.08  -0.15   0.09    -0.00  -0.00   0.00
  41   1     0.00  -0.02   0.01     0.00  -0.01   0.00     0.00  -0.00  -0.00
  42   1     0.00  -0.02   0.01     0.00  -0.01   0.01    -0.00  -0.00   0.00
  43   1     0.02   0.02  -0.02    -0.00   0.00  -0.00     0.00   0.00  -0.00
  44   1    -0.06   0.03  -0.01    -0.01   0.01  -0.00     0.00   0.00   0.00
  45   1     0.02   0.01  -0.01     0.01   0.00  -0.00    -0.00   0.00   0.00
                     49                     50                     51
                        a                      a                      a 
 Frequencies --   757.0013               809.3758               815.5046
 Red. masses --     2.8265                 3.1919                 3.2391
 Frc consts  --     0.0000                 0.0000                 0.0000
 IR Inten    --    10.9066                10.1644                14.5104
 Raman Activ --     0.0000                 0.0000                 0.0000
 Depolar     --     0.0000                 0.0000                 0.0000
 Atom AN      X      Y      Z        X      Y      Z        X      Y      Z
   1   7     0.00  -0.00  -0.00     0.03   0.01   0.00    -0.00   0.00   0.00
   2   6     0.00  -0.00  -0.00     0.02  -0.03   0.01    -0.00   0.00  -0.00
   3   6    -0.00  -0.00  -0.00    -0.04  -0.04  -0.01     0.00  -0.00  -0.00
   4   6    -0.00   0.00   0.00    -0.02  -0.01  -0.03     0.00  -0.00  -0.00
   5   6    -0.00  -0.00   0.00     0.02   0.09   0.09    -0.00   0.00   0.01
   6   6    -0.00   0.00   0.00     0.01   0.20   0.33     0.00   0.02   0.03
   7   6    -0.00   0.00   0.00     0.00  -0.06  -0.07    -0.00  -0.00  -0.01
   8   6    -0.00  -0.00   0.00     0.01   0.03   0.03     0.00   0.00   0.01
   9   6    -0.00   0.00   0.00    -0.00  -0.05  -0.09    -0.00  -0.02  -0.02
  10   6    -0.00  -0.00  -0.00    -0.00   0.01   0.01     0.00   0.00   0.01
  11   6     0.00   0.00   0.00    -0.00   0.00   0.01     0.00  -0.00  -0.00
  12   6     0.00   0.00   0.01    -0.00  -0.00   0.00    -0.00   0.02   0.03
  13   6     0.00  -0.00  -0.00    -0.00   0.01   0.01    -0.01  -0.05  -0.09
  14   6    -0.00  -0.00  -0.00    -0.00  -0.02  -0.03     0.01   0.17   0.28
  15   6     0.00   0.00   0.00    -0.00  -0.01  -0.02     0.01   0.13   0.22
  16   6    -0.00  -0.01  -0.01     0.00   0.01   0.01    -0.01  -0.06  -0.09
  17   6     0.00   0.00   0.00    -0.00  -0.00  -0.00     0.00   0.02   0.03
  18   6    -0.01  -0.07  -0.12    -0.00  -0.00  -0.00     0.00   0.00   0.01
  19   6    -0.00  -0.01  -0.03    -0.00   0.00   0.00    -0.00  -0.00  -0.00
  20   6     0.01   0.07   0.11     0.00   0.00   0.00    -0.00  -0.00  -0.00
  21   6     0.02   0.18   0.31     0.00  -0.00  -0.00     0.00  -0.00  -0.00
  22  16    -0.00  -0.01  -0.01    -0.00   0.00   0.00    -0.00  -0.00  -0.00
  23  16     0.00  -0.00   0.00     0.00   0.00   0.00    -0.00  -0.02  -0.03
  24  16     0.00  -0.00  -0.00    -0.00   0.00   0.01     0.00  -0.00  -0.00
  25  16     0.00  -0.00  -0.00     0.01  -0.02  -0.04    -0.00  -0.00  -0.00
  26   1     0.00   0.00  -0.00    -0.03  -0.00  -0.00     0.00  -0.00  -0.00
  27   1     0.00   0.00   0.00     0.02   0.07  -0.00    -0.00  -0.01  -0.00
  28   1    -0.00  -0.00  -0.00    -0.03  -0.01  -0.01     0.01   0.00   0.00
  29   1    -0.00  -0.00  -0.00    -0.04  -0.00  -0.03     0.01   0.00   0.00
  30   1    -0.00   0.00   0.00     0.01   0.04   0.03    -0.00  -0.01  -0.01
  31   1    -0.00  -0.00   0.00    -0.04   0.02   0.04     0.00  -0.00   0.00
  32   1    -0.00  -0.00  -0.00     0.04   0.02  -0.01     0.00  -0.00   0.00
  33   1    -0.00  -0.00  -0.00    -0.00  -0.19  -0.31    -0.00  -0.02  -0.03
  34   1     0.00  -0.00  -0.00    -0.03  -0.44  -0.66    -0.00  -0.04  -0.06
  35   1    -0.00  -0.00  -0.00     0.00   0.09   0.13     0.00   0.02   0.04
  36   1     0.00   0.00   0.00     0.00  -0.00  -0.00     0.00  -0.00  -0.00
  37   1    -0.00   0.00   0.00     0.01  -0.01  -0.00    -0.00  -0.00   0.00
  38   1     0.00   0.00   0.00    -0.01   0.01  -0.01     0.00   0.00  -0.00
  39   1    -0.00  -0.00  -0.00     0.00   0.03   0.05    -0.03  -0.35  -0.58
  40   1    -0.00  -0.00  -0.00     0.00   0.03   0.05    -0.03  -0.30  -0.50
  41   1    -0.01  -0.04   0.05     0.00   0.00  -0.00    -0.00   0.00   0.00
  42   1     0.02   0.06  -0.01    -0.00  -0.00   0.00     0.00  -0.00   0.00
  43   1     0.00   0.01   0.03     0.00   0.00  -0.00    -0.00  -0.00  -0.00
  44   1    -0.01  -0.11  -0.18    -0.00  -0.00  -0.00    -0.00   0.00   0.00
  45   1    -0.05  -0.44  -0.76     0.00  -0.00  -0.00     0.00   0.00   0.01
                     52                     53                     54
                        a                      a                      a 
 Frequencies --   821.1201               827.0460               834.3274
 Red. masses --     3.2020                 3.4667                14.7939
 Frc consts  --     0.0000                 0.0000                 0.0000
 IR Inten    --    92.1156                15.7238                57.1919
 Raman Activ --     0.0000                 0.0000                 0.0000
 Depolar     --     0.0000                 0.0000                 0.0000
 Atom AN      X      Y      Z        X      Y      Z        X      Y      Z
   1   7     0.16  -0.00   0.03     0.02  -0.00   0.01    -0.00  -0.00   0.00
   2   6     0.15  -0.18   0.00     0.02  -0.02  -0.00    -0.01   0.01  -0.00
   3   6    -0.18  -0.15  -0.05    -0.02  -0.01  -0.01     0.00   0.01   0.00
   4   6    -0.13   0.06   0.02    -0.01   0.01   0.01     0.01   0.00  -0.00
   5   6     0.06   0.08  -0.05     0.00  -0.02  -0.05     0.01  -0.00   0.00
   6   6     0.02  -0.06  -0.03     0.00  -0.04  -0.05     0.00   0.00   0.00
   7   6     0.01  -0.03   0.03     0.00  -0.01  -0.01    -0.01   0.01  -0.01
   8   6     0.01   0.00  -0.02     0.00   0.04   0.06    -0.01  -0.02   0.01
   9   6     0.00   0.05   0.05    -0.01  -0.24  -0.38    -0.03  -0.02   0.01
  10   6    -0.00  -0.01  -0.01     0.00   0.03   0.05    -0.01  -0.00   0.00
  11   6    -0.00   0.00  -0.00    -0.00   0.01   0.02    -0.00  -0.00   0.00
  12   6    -0.00  -0.01  -0.00    -0.00   0.03   0.04     0.09  -0.03   0.01
  13   6    -0.00   0.00  -0.00    -0.00  -0.01  -0.01     0.11  -0.04   0.02
  14   6     0.00   0.01   0.01     0.00  -0.01  -0.01     0.05  -0.02   0.01
  15   6     0.00   0.01   0.01     0.00  -0.00  -0.00     0.01   0.01  -0.01
  16   6    -0.00  -0.00  -0.00     0.00   0.00  -0.00    -0.16  -0.09   0.06
  17   6    -0.00  -0.00   0.00     0.00   0.00   0.00    -0.16  -0.06   0.05
  18   6    -0.00   0.00  -0.00    -0.00   0.00  -0.00    -0.07   0.04  -0.02
  19   6    -0.00  -0.00   0.00    -0.00  -0.00  -0.00    -0.04  -0.07   0.05
  20   6     0.00   0.00   0.00     0.00   0.00   0.00     0.12  -0.01  -0.00
  21   6     0.02  -0.00  -0.00     0.00   0.00   0.00     0.72  -0.10   0.02
  22  16    -0.01   0.01  -0.00    -0.00   0.00  -0.00    -0.39   0.20  -0.09
  23  16     0.00  -0.00  -0.00     0.00   0.00   0.00     0.01   0.09  -0.06
  24  16    -0.01  -0.01   0.00     0.00   0.01   0.02    -0.03   0.03  -0.02
  25  16     0.06   0.01  -0.00     0.01   0.01   0.01     0.00  -0.01   0.00
  26   1    -0.18  -0.01  -0.01    -0.02  -0.00  -0.00     0.01  -0.00   0.00
  27   1     0.16   0.48   0.01     0.02   0.06   0.00    -0.00  -0.01  -0.00
  28   1    -0.28  -0.12  -0.03    -0.04  -0.02  -0.00     0.01   0.00   0.00
  29   1    -0.32  -0.01  -0.20    -0.04  -0.00  -0.03     0.01  -0.00   0.01
  30   1     0.04   0.27   0.29     0.00   0.03   0.04    -0.00  -0.01  -0.01
  31   1    -0.16   0.08   0.15    -0.01   0.01   0.01     0.00  -0.00  -0.00
  32   1     0.10   0.14  -0.12     0.00   0.02  -0.02    -0.00  -0.00   0.00
  33   1     0.02   0.02   0.00     0.00   0.07   0.10     0.00  -0.00   0.00
  34   1    -0.04   0.04   0.10    -0.00   0.09   0.14     0.01  -0.00  -0.00
  35   1    -0.01  -0.06  -0.11     0.02   0.45   0.72    -0.00  -0.01   0.00
  36   1     0.00   0.00   0.00     0.00  -0.01  -0.02     0.01  -0.01   0.00
  37   1    -0.00   0.01  -0.00     0.02  -0.03   0.00    -0.00   0.01  -0.00
  38   1     0.00  -0.00   0.00    -0.03   0.02  -0.03     0.00   0.01  -0.00
  39   1    -0.00  -0.01  -0.02     0.00   0.01   0.02    -0.01  -0.02   0.02
  40   1     0.00  -0.01  -0.02     0.00   0.01   0.02     0.05  -0.01   0.01
  41   1     0.00  -0.00   0.00    -0.00  -0.00   0.00    -0.00  -0.04   0.02
  42   1    -0.00  -0.00   0.00     0.00   0.00  -0.00    -0.00  -0.04   0.02
  43   1     0.00  -0.00  -0.00     0.00   0.00   0.00    -0.00  -0.01   0.00
  44   1    -0.00  -0.00   0.00    -0.00  -0.00   0.00    -0.08  -0.13   0.08
  45   1     0.01  -0.00   0.00     0.00  -0.00  -0.00     0.27  -0.13   0.06
                     55                     56                     57
                        a                      a                      a 
 Frequencies --   854.7932               860.5314               863.1420
 Red. masses --    14.6271                 3.6283                 3.2113
 Frc consts  --     0.0000                 0.0000                 0.0000
 IR Inten    --    18.0299                 0.2174                 3.8062
 Raman Activ --     0.0000                 0.0000                 0.0000
 Depolar     --     0.0000                 0.0000                 0.0000
 Atom AN      X      Y      Z        X      Y      Z        X      Y      Z
   1   7     0.01  -0.00  -0.00     0.00   0.00   0.00     0.00   0.00   0.00
   2   6    -0.00   0.00  -0.01    -0.00  -0.00  -0.00    -0.00  -0.00  -0.00
   3   6    -0.01   0.01   0.01    -0.00  -0.00  -0.00    -0.00  -0.01  -0.00
[...]
   4   6    -0.00  -0.00  -0.00     0.00  -0.00   0.00    -0.00   0.00  -0.00
   5   6     0.00   0.00  -0.00     0.00   0.00  -0.00    -0.00  -0.00   0.00
   6   6     0.00  -0.00  -0.00     0.00  -0.00   0.00     0.00  -0.00   0.00
   7   6    -0.00  -0.00  -0.00    -0.00   0.00  -0.00     0.00   0.00  -0.00
   8   6     0.00  -0.00  -0.00    -0.00  -0.00   0.00     0.00   0.00  -0.00
   9   6    -0.00   0.00   0.00    -0.00  -0.00   0.00     0.00   0.00  -0.00
  10   6     0.00   0.00   0.01     0.00  -0.00   0.00    -0.01   0.00  -0.00
  11   6     0.02   0.16   0.24     0.09   0.04  -0.03    -0.23  -0.09   0.07
  12   6    -0.00  -0.00  -0.00     0.00   0.00  -0.00    -0.00  -0.00   0.00
  13   6    -0.00   0.00   0.00    -0.00  -0.00   0.00     0.00   0.00  -0.00
  14   6     0.00   0.00   0.00     0.00  -0.00   0.00     0.00  -0.00   0.00
  15   6    -0.00   0.00   0.00     0.00  -0.00   0.00     0.00  -0.00   0.00
  16   6     0.00  -0.00  -0.00    -0.00   0.00  -0.00    -0.00   0.00  -0.00
  17   6    -0.00  -0.00  -0.00     0.00  -0.00   0.00     0.00  -0.00   0.00
  18   6    -0.00   0.00   0.00     0.01   0.00  -0.00     0.00   0.00  -0.00
  19   6    -0.00   0.01   0.01     0.25   0.01   0.03     0.10   0.00   0.01
  20   6     0.00   0.00   0.00    -0.00   0.00  -0.00    -0.00   0.00  -0.00
  21   6    -0.00  -0.00  -0.00    -0.00   0.00  -0.00    -0.00  -0.00   0.00
  22  16    -0.00   0.00   0.00     0.00   0.00  -0.00     0.00   0.00  -0.00
  23  16     0.00  -0.00  -0.00    -0.00   0.00  -0.00    -0.00   0.00  -0.00
  24  16    -0.00   0.00   0.00     0.00   0.00  -0.00    -0.00   0.00  -0.00
  25  16    -0.00   0.00   0.00    -0.00  -0.00   0.00    -0.00   0.00  -0.00
  26   1    -0.00  -0.00   0.00    -0.00  -0.00   0.00     0.00  -0.00  -0.00
  27   1     0.00  -0.00  -0.00     0.00  -0.00   0.00    -0.00   0.00  -0.00
  28   1    -0.00   0.00   0.00    -0.00  -0.00  -0.00    -0.00   0.00   0.00
  29   1    -0.00   0.00   0.00     0.00  -0.00  -0.00    -0.00   0.00   0.00
  30   1     0.00  -0.00   0.00     0.00  -0.00   0.00     0.00  -0.00   0.00
  31   1     0.00   0.00   0.00    -0.00  -0.00   0.00     0.00   0.00  -0.00
  32   1    -0.00   0.00   0.00     0.00  -0.00  -0.00     0.00  -0.00  -0.00
  33   1    -0.00   0.00   0.00    -0.00  -0.00   0.00     0.00   0.00  -0.00
  34   1    -0.00   0.00   0.00    -0.00   0.00  -0.00     0.00   0.00  -0.00
  35   1     0.00   0.00   0.00     0.00   0.00  -0.00    -0.00  -0.01   0.01
  36   1     0.00   0.02   0.03    -0.09  -0.13   0.09     0.22   0.32  -0.23
  37   1    -0.44  -0.30  -0.42    -0.14  -0.10  -0.16     0.32   0.24   0.37
  38   1     0.38  -0.29  -0.47    -0.11   0.11   0.16     0.27  -0.27  -0.39
  39   1    -0.00   0.00  -0.00    -0.00   0.00  -0.00    -0.00   0.00  -0.00
  40   1    -0.00  -0.00  -0.00     0.00   0.00  -0.00     0.00   0.00  -0.00
  41   1    -0.02  -0.01  -0.01    -0.38  -0.38  -0.39    -0.15  -0.16  -0.16
  42   1     0.02  -0.01  -0.04    -0.18   0.11   0.38    -0.08   0.05   0.16
  43   1     0.00  -0.00   0.00    -0.31   0.23  -0.10    -0.13   0.10  -0.04
  44   1    -0.00   0.00   0.00     0.01  -0.01   0.00     0.00  -0.00   0.00
  45   1     0.00   0.00  -0.00    -0.00   0.00  -0.00     0.00   0.00  -0.00
                    118                    119                    120
                        a                      a                      a 
 Frequencies --  3016.5788              3017.0938              3082.3953
 Red. masses --     1.4004                 1.3709                 1.8241
 Frc consts  --     0.0000                 0.0000                 0.0000
 IR Inten    --    45.7114                18.8237                20.4146
 Raman Activ --     0.0000                 0.0000                 0.0000
 Depolar     --     0.0000                 0.0000                 0.0000
 Atom AN      X      Y      Z        X      Y      Z        X      Y      Z
   1   7    -0.00   0.00  -0.00    -0.00   0.00  -0.00    -0.00   0.00  -0.00
   2   6     0.00   0.00   0.00     0.00   0.00   0.00    -0.00  -0.00   0.00
   3   6     0.00   0.00   0.00     0.00   0.00   0.00    -0.00  -0.00   0.00
   4   6     0.00   0.00  -0.00     0.00   0.00  -0.00    -0.01   0.00  -0.00
   5   6    -0.00  -0.00   0.00     0.00   0.00  -0.00    -0.19  -0.13   0.09
   6   6     0.00  -0.00   0.00     0.00   0.00  -0.00    -0.02   0.09  -0.06
   7   6    -0.00  -0.00   0.00    -0.00   0.00  -0.00    -0.00   0.00  -0.00
   8   6     0.00  -0.00   0.00     0.00  -0.00   0.00    -0.00   0.00  -0.00
   9   6    -0.00   0.00  -0.00     0.00   0.01  -0.00    -0.01  -0.01   0.01
  10   6     0.00  -0.00   0.00     0.00  -0.01   0.00     0.00  -0.00   0.00
  11   6     0.00  -0.01   0.01    -0.01  -0.15   0.10    -0.00  -0.00   0.00
  12   6    -0.00   0.00  -0.00     0.00   0.00  -0.00     0.00   0.00  -0.00
  13   6     0.00   0.00  -0.00    -0.00  -0.00   0.00    -0.00  -0.00   0.00
  14   6     0.00   0.00  -0.00     0.00   0.00  -0.00    -0.00   0.00  -0.00
  15   6    -0.00   0.00  -0.00    -0.00   0.00  -0.00    -0.00  -0.00   0.00
  16   6     0.00   0.00  -0.00     0.00  -0.00   0.00    -0.00  -0.00   0.00
  17   6    -0.00   0.00  -0.00    -0.00  -0.00   0.00     0.00  -0.00   0.00
  18   6     0.00  -0.01   0.00    -0.00   0.00  -0.00     0.00   0.00  -0.00
  19   6     0.09  -0.15   0.07    -0.01   0.01  -0.01    -0.00   0.00  -0.00
  20   6    -0.00   0.01  -0.00     0.00  -0.00   0.00    -0.02   0.01  -0.01
  21   6     0.00  -0.00   0.00     0.00   0.00  -0.00     0.00   0.00  -0.00
  22  16     0.00  -0.00   0.00     0.00   0.00  -0.00     0.00  -0.00   0.00
  23  16     0.00  -0.00   0.00     0.00  -0.00   0.00     0.00  -0.00   0.00
  24  16    -0.00  -0.00   0.00    -0.00  -0.00   0.00     0.00   0.00  -0.00
  25  16    -0.00  -0.00   0.00    -0.00  -0.00   0.00     0.00   0.00  -0.00
  26   1    -0.00  -0.00   0.00    -0.00  -0.00   0.00    -0.00  -0.00   0.00
  27   1     0.00   0.00  -0.00     0.00  -0.00   0.00     0.00  -0.00   0.00
  28   1     0.00  -0.00  -0.00     0.00  -0.00  -0.00     0.00  -0.00  -0.00
  29   1     0.00  -0.00  -0.00     0.00  -0.00  -0.00    -0.00  -0.00  -0.00
  30   1    -0.00   0.00  -0.00    -0.00   0.00  -0.00     0.00  -0.00   0.00
  31   1    -0.00  -0.00   0.00    -0.00  -0.00   0.00     0.01   0.01   0.00
  32   1     0.00  -0.00  -0.00     0.00  -0.00  -0.00     0.00  -0.00  -0.00
  33   1     0.00   0.00  -0.00    -0.00  -0.00   0.00     0.69   0.44  -0.31
  34   1    -0.00   0.00  -0.00     0.00   0.00  -0.00     0.09  -0.32   0.20
  35   1    -0.00  -0.00   0.00    -0.01  -0.02   0.01     0.03   0.05  -0.03
  36   1     0.04   0.05  -0.03     0.44   0.57  -0.41     0.00   0.00  -0.00
  37   1    -0.02  -0.02  -0.02    -0.23  -0.18  -0.22    -0.00  -0.00  -0.00
  38   1    -0.02   0.01   0.02    -0.20   0.14   0.27    -0.00   0.00   0.00
  39   1     0.00  -0.00  -0.00     0.00  -0.00   0.00     0.01  -0.01   0.00
  40   1    -0.00  -0.00   0.00    -0.00   0.00  -0.00     0.00   0.01  -0.00
  41   1     0.22   0.18   0.21    -0.02  -0.01  -0.02    -0.00  -0.00  -0.00
  42   1     0.16  -0.09  -0.24    -0.01   0.01   0.02    -0.00   0.00   0.00
  43   1    -0.70   0.46  -0.20     0.06  -0.04   0.02     0.00  -0.00   0.00
  44   1     0.02  -0.02   0.01    -0.00   0.00  -0.00     0.06  -0.04   0.02
  45   1    -0.00  -0.00   0.00    -0.00  -0.00   0.00    -0.01  -0.00   0.00
                    121                    122                    123
                        a                      a                      a 
 Frequencies --  3083.1289              3088.1101              3094.4408
 Red. masses --     1.8437                 1.7990                 1.8921
 Frc consts  --     0.0000                 0.0000                 0.0000
 IR Inten    --    21.7396                13.9935                 0.4800
 Raman Activ --     0.0000                 0.0000                 0.0000
 Depolar     --     0.0000                 0.0000                 0.0000
 Atom AN      X      Y      Z        X      Y      Z        X      Y      Z
   1   7    -0.00   0.00  -0.00     0.00  -0.00   0.00    -0.00   0.00  -0.00
   2   6    -0.00  -0.00  -0.00     0.00   0.00   0.00    -0.00   0.00   0.00
   3   6    -0.00  -0.00   0.00     0.00   0.00  -0.00    -0.00  -0.00   0.00
   4   6    -0.00   0.00  -0.00     0.00  -0.00   0.00    -0.00   0.00  -0.00
   5   6    -0.02  -0.01   0.01     0.00   0.00  -0.00    -0.09  -0.06   0.04
   6   6    -0.00   0.01  -0.00     0.00  -0.00   0.00     0.06  -0.19   0.12
   7   6    -0.00   0.00  -0.00    -0.00  -0.00   0.00     0.01   0.00  -0.00
   8   6     0.00   0.00  -0.00     0.00  -0.00   0.00     0.00  -0.00   0.00
   9   6    -0.00  -0.00   0.00    -0.00  -0.00   0.00     0.05   0.08  -0.05
  10   6     0.00  -0.00   0.00     0.00   0.00  -0.00    -0.00   0.00  -0.00
  11   6    -0.00   0.00   0.00    -0.00  -0.00   0.00     0.00   0.00  -0.00
  12   6    -0.00  -0.00   0.00    -0.00   0.00   0.00    -0.00  -0.00   0.00
  13   6     0.00   0.00  -0.00    -0.01  -0.00   0.00    -0.00   0.00  -0.00
  14   6     0.01  -0.00   0.00    -0.15   0.14  -0.07    -0.00   0.00  -0.00
  15   6     0.00   0.01  -0.00    -0.06  -0.12   0.08     0.00   0.01  -0.00
  16   6     0.00  -0.00   0.00    -0.00  -0.00   0.00     0.00   0.00  -0.00
  17   6    -0.00   0.00  -0.00    -0.00  -0.00   0.00     0.00  -0.00   0.00
  18   6    -0.00  -0.01   0.00     0.00  -0.00   0.00    -0.00   0.00  -0.00
  19   6     0.01  -0.00   0.00     0.00  -0.00   0.00    -0.00   0.00  -0.00
  20   6     0.20  -0.16   0.08     0.01  -0.01   0.00     0.00  -0.00   0.00
  21   6    -0.02  -0.01   0.01    -0.00  -0.00   0.00     0.00   0.00  -0.00
  22  16    -0.00   0.00  -0.00     0.00   0.00  -0.00    -0.00  -0.00   0.00
  23  16    -0.00  -0.00   0.00     0.00   0.00  -0.00    -0.00  -0.00   0.00
  24  16    -0.00   0.00  -0.00     0.00  -0.00  -0.00    -0.00  -0.00   0.00
  25  16     0.00   0.00  -0.00     0.00  -0.00   0.00     0.00   0.00  -0.00
  26   1    -0.00  -0.00   0.00     0.00  -0.00  -0.00    -0.00  -0.00   0.00
  27   1     0.00  -0.00   0.00    -0.00   0.00  -0.00     0.00  -0.00   0.00
  28   1     0.00  -0.00  -0.00    -0.00   0.00   0.00     0.00  -0.00  -0.00
  29   1    -0.00   0.00  -0.00     0.00  -0.00  -0.00     0.00  -0.00  -0.00
  30   1     0.00  -0.00   0.00    -0.00   0.00  -0.00     0.00  -0.00   0.00
  31   1     0.00   0.00   0.00    -0.00  -0.00  -0.00     0.00   0.00   0.00
  32   1     0.00  -0.00  -0.00    -0.00   0.00   0.00    -0.00  -0.00  -0.00
  33   1     0.05   0.04  -0.02    -0.00  -0.00   0.00     0.30   0.19  -0.13
  34   1     0.01  -0.03   0.02    -0.00   0.01  -0.01    -0.19   0.65  -0.42
  35   1     0.00   0.00  -0.00     0.01   0.01  -0.01    -0.17  -0.28   0.18
  36   1    -0.00  -0.00   0.00     0.00  -0.00   0.00    -0.00  -0.01   0.00
  37   1     0.00   0.00   0.00     0.00   0.00   0.00     0.00   0.00   0.00
  38   1     0.00  -0.00  -0.00     0.00  -0.00  -0.00     0.00  -0.00  -0.00
  39   1    -0.02   0.02  -0.01     0.54  -0.49   0.26     0.01  -0.01   0.00
  40   1    -0.01  -0.02   0.01     0.22   0.45  -0.28    -0.01  -0.02   0.01
  41   1     0.00   0.00   0.00     0.00   0.00   0.00     0.00   0.00   0.00
  42   1     0.00  -0.00  -0.00     0.00  -0.00  -0.00     0.00  -0.00  -0.00
  43   1    -0.02   0.02  -0.01    -0.00   0.00  -0.00     0.00  -0.00   0.00
  44   1    -0.72   0.56  -0.28    -0.03   0.02  -0.01    -0.00   0.00  -0.00
  45   1     0.10   0.04  -0.03     0.01   0.00  -0.00    -0.00  -0.00   0.00
                    124                    125                    126
                        a                      a                      a 
 Frequencies --  3099.4504              3102.3073              3135.5890
 Red. masses --     1.9030                 1.8478                 1.8874
 Frc consts  --     0.0000                 0.0000                 0.0000
 IR Inten    --    10.9238                12.3066                 0.1045
 Raman Activ --     0.0000                 0.0000                 0.0000
 Depolar     --     0.0000                 0.0000                 0.0000
 Atom AN      X      Y      Z        X      Y      Z        X      Y      Z
   1   7    -0.00  -0.00   0.00    -0.00   0.00  -0.00     0.00  -0.00  -0.00
   2   6    -0.00  -0.00  -0.00    -0.00   0.00   0.00     0.00   0.00  -0.00
   3   6    -0.00  -0.00  -0.00     0.00  -0.00   0.00    -0.00  -0.00   0.00
   4   6    -0.00   0.00  -0.00    -0.00   0.00  -0.00     0.00   0.00  -0.00
   5   6    -0.00  -0.00   0.00    -0.02  -0.02   0.01    -0.00  -0.00   0.00
   6   6     0.00  -0.00   0.00     0.03  -0.09   0.06     0.00  -0.00   0.00
   7   6     0.00   0.00  -0.00     0.00  -0.00   0.00     0.00   0.00  -0.00
   8   6     0.00   0.00  -0.00    -0.01   0.00  -0.00    -0.00   0.00  -0.00
   9   6     0.01   0.01  -0.01    -0.11  -0.19   0.12    -0.00  -0.00   0.00
  10   6    -0.00   0.00   0.00     0.01  -0.01   0.00     0.00  -0.00   0.00
  11   6     0.00   0.00  -0.00    -0.00  -0.00   0.00     0.00  -0.00  -0.00
  12   6     0.00  -0.00   0.00     0.00   0.00  -0.00     0.00   0.00  -0.00
  13   6     0.01   0.00  -0.00     0.00   0.00  -0.00     0.00  -0.00   0.00
  14   6     0.12  -0.11   0.06     0.01  -0.01   0.00    -0.00   0.00  -0.00
  15   6    -0.09  -0.18   0.11    -0.00  -0.01   0.00     0.00   0.00  -0.00
  16   6    -0.01   0.00   0.00    -0.00   0.00  -0.00     0.00  -0.00   0.00
  17   6     0.00  -0.00   0.00    -0.00  -0.00   0.00     0.00   0.00  -0.00
  18   6     0.00  -0.00   0.00     0.00  -0.00   0.00     0.00   0.00  -0.00
  19   6    -0.00  -0.00   0.00     0.00   0.00  -0.00    -0.00  -0.00   0.00
  20   6     0.00  -0.00   0.00     0.00  -0.00   0.00    -0.03   0.03  -0.01
  21   6    -0.00  -0.00   0.00     0.00   0.00  -0.00    -0.24  -0.12   0.08
  22  16     0.00   0.00  -0.00     0.00   0.00  -0.00     0.00  -0.00   0.00
  23  16    -0.00   0.00  -0.00     0.00  -0.00   0.00    -0.00   0.00  -0.00
  24  16    -0.00  -0.00   0.00     0.00   0.00  -0.00     0.00  -0.00   0.00
  25  16     0.00   0.00  -0.00    -0.00   0.00  -0.00     0.00  -0.00   0.00
  26   1     0.00   0.00  -0.00    -0.00  -0.00   0.00     0.00  -0.00   0.00
  27   1     0.00  -0.00   0.00     0.00  -0.00   0.00    -0.00   0.00  -0.00
  28   1    -0.00  -0.00   0.00     0.00  -0.00  -0.00    -0.00   0.00   0.00
  29   1    -0.00   0.00   0.00     0.00  -0.00  -0.00     0.00   0.00   0.00
  30   1     0.00  -0.00   0.00    -0.00   0.00  -0.00     0.00   0.00  -0.00
  31   1     0.00   0.00   0.00     0.00  -0.00   0.00     0.00   0.00  -0.00
  32   1    -0.00   0.00   0.00    -0.00   0.00   0.00     0.00   0.00  -0.00
  33   1     0.00   0.00  -0.00     0.07   0.05  -0.03     0.00   0.00  -0.00
  34   1    -0.00   0.01  -0.00    -0.09   0.30  -0.19    -0.00   0.00  -0.00
  35   1    -0.02  -0.04   0.02     0.40   0.66  -0.43     0.00   0.00  -0.00
  36   1    -0.00  -0.00   0.00     0.01   0.02  -0.01    -0.00   0.00  -0.00
  37   1    -0.00  -0.00  -0.00    -0.00  -0.00  -0.00    -0.00  -0.00  -0.00
  38   1    -0.00   0.00   0.00    -0.00   0.00   0.00    -0.00   0.00   0.00
  39   1    -0.39   0.36  -0.19    -0.03   0.03  -0.01     0.00  -0.00   0.00
  40   1     0.29   0.60  -0.38     0.01   0.02  -0.01    -0.00  -0.00   0.00
  41   1     0.00   0.00   0.00    -0.00  -0.00  -0.00     0.00   0.00   0.00
  42   1     0.00  -0.00  -0.00    -0.00   0.00   0.00     0.00  -0.00  -0.00
  43   1     0.00  -0.00   0.00     0.00  -0.00   0.00     0.00  -0.00   0.00
  44   1    -0.01   0.00  -0.00    -0.00   0.00  -0.00     0.08  -0.06   0.03
  45   1     0.00   0.00  -0.00    -0.00  -0.00   0.00     0.84   0.37  -0.27
                    127                    128                    129
                        a                      a                      a 
 Frequencies --  3180.5386              3202.5752              3219.7155
 Red. masses --     2.0301                 2.0279                 1.3161
 Frc consts  --     0.0000                 0.0000                 0.0000
 IR Inten    --   606.6578                86.1173                32.2280
 Raman Activ --     0.0000                 0.0000                 0.0000
 Depolar     --     0.0000                 0.0000                 0.0000
 Atom AN      X      Y      Z        X      Y      Z        X      Y      Z
   1   7     0.23  -0.14   0.08     0.07  -0.02  -0.27     0.03   0.15   0.03
   2   6     0.01  -0.00   0.00     0.00  -0.00  -0.01     0.00   0.01   0.00
   3   6    -0.00   0.00   0.00     0.00   0.00   0.00     0.00  -0.00  -0.00
   4   6    -0.00   0.00  -0.00     0.00  -0.00  -0.00    -0.00   0.00   0.00
   5   6    -0.00  -0.00   0.00     0.00  -0.00   0.00     0.00   0.00  -0.00
   6   6     0.00   0.00  -0.00    -0.00   0.00  -0.00     0.00   0.00  -0.00
   7   6     0.00  -0.00   0.00     0.00  -0.00   0.00     0.00  -0.00   0.00
   8   6    -0.00   0.00  -0.00    -0.00  -0.00  -0.00    -0.00   0.00  -0.00
   9   6     0.00  -0.00   0.00     0.00   0.00  -0.00     0.00  -0.00  -0.00
  10   6    -0.00  -0.00   0.00    -0.00   0.00   0.00    -0.00   0.00  -0.00
  11   6     0.00  -0.00   0.00     0.00  -0.00  -0.00     0.00   0.00   0.00
  12   6     0.00   0.00  -0.00     0.00  -0.00  -0.00     0.00   0.00   0.00
  13   6    -0.00  -0.00   0.00    -0.00   0.00   0.00    -0.00  -0.00  -0.00
  14   6     0.00  -0.00  -0.00     0.00  -0.00   0.00     0.00  -0.00   0.00
  15   6    -0.00   0.00  -0.00    -0.00  -0.00   0.00    -0.00  -0.00   0.00
  16   6     0.00  -0.00   0.00    -0.00   0.00   0.00    -0.00  -0.00  -0.00
  17   6    -0.00   0.00  -0.00    -0.00  -0.00  -0.00    -0.00   0.00   0.00
  18   6     0.00  -0.00   0.00    -0.00   0.00  -0.00     0.00  -0.00   0.00
  19   6     0.00   0.00   0.00    -0.00  -0.00  -0.00     0.00   0.00   0.00
  20   6     0.00  -0.00   0.00    -0.00  -0.00  -0.00    -0.00  -0.00   0.00
  21   6    -0.00   0.00  -0.00     0.00   0.00  -0.00     0.00   0.00   0.00
  22  16     0.00   0.00  -0.00    -0.00   0.00   0.00     0.00  -0.00  -0.00
  23  16     0.00  -0.00   0.00     0.00  -0.00  -0.00     0.00   0.00   0.00
  24  16     0.00   0.00  -0.00     0.00   0.00   0.00     0.00   0.00  -0.00
  25  16    -0.00   0.00  -0.00    -0.00   0.00   0.00    -0.00   0.00  -0.00
  26   1     0.03   0.10  -0.25    -0.02  -0.33   0.70    -0.02  -0.20   0.47
  27   1    -0.82   0.20  -0.24    -0.05   0.01  -0.04    -0.38   0.12  -0.11
  28   1    -0.09   0.19   0.20    -0.20   0.38   0.35     0.27  -0.48  -0.49
  29   1    -0.00   0.00   0.00    -0.01   0.01   0.01     0.01  -0.01  -0.01
  30   1    -0.02   0.01  -0.01     0.00  -0.00   0.00    -0.01   0.00  -0.00
  31   1     0.00  -0.00   0.00    -0.00   0.00  -0.00    -0.00  -0.00   0.00
  32   1     0.00  -0.00  -0.00    -0.00  -0.00   0.00    -0.00   0.00   0.00
  33   1     0.01   0.00  -0.00    -0.00   0.00   0.00     0.00   0.00  -0.00
  34   1     0.00   0.00  -0.00     0.00   0.00   0.00     0.00  -0.00   0.00
  35   1     0.00   0.00  -0.00    -0.00  -0.00   0.00    -0.00  -0.00   0.00
  36   1     0.00   0.00  -0.00    -0.00  -0.00   0.00    -0.00  -0.00   0.00
  37   1    -0.00  -0.00  -0.00     0.00   0.00   0.00    -0.00  -0.00  -0.00
  38   1    -0.00   0.00   0.00    -0.00   0.00   0.00     0.00  -0.00  -0.00
  39   1    -0.00   0.00  -0.00    -0.00   0.00  -0.00    -0.00   0.00  -0.00
  40   1    -0.00  -0.00   0.00     0.00   0.00  -0.00     0.00   0.00  -0.00
  41   1    -0.00  -0.00  -0.00     0.00   0.00   0.00    -0.00  -0.00  -0.00
  42   1    -0.00   0.00   0.00    -0.00   0.00   0.00    -0.00   0.00   0.00
  43   1    -0.00   0.00  -0.00     0.00   0.00   0.00     0.00  -0.00  -0.00
  44   1    -0.00   0.00  -0.00     0.00  -0.00   0.00     0.00  -0.00   0.00
  45   1    -0.00  -0.00   0.00    -0.00  -0.00   0.00    -0.00  -0.00   0.00
