21
 energy: -25.830929190894 gnorm: 0.000276678001 xtb: 6.5.1 (fef0646)
N            2.95120908115404       -2.49089099135581       -0.40080689530864
C            2.60140583519731       -1.05860944629205       -0.24171014484941
C            3.05772912513090       -0.55883971885428        1.12904197922774
C            4.56070031988356       -0.56433076233521        1.23748710166029
C            5.30542280178066        0.45839578656501        0.66086819376692
C            6.68660960553261        0.45096531828006        0.73465408601867
C            7.34291471838674       -0.58224516644013        1.38488319195306
C            6.61071282648902       -1.60548303613314        1.96212199868042
C            5.22769154503634       -1.59850880578985        1.88415069089958
H            2.73011993940694       -2.82286404851317       -1.34620407931570
H            2.43560114673919       -3.06086683212406        0.28013254149668
H            3.95689880670438       -2.61522834129481       -0.22668097646812
H            1.52369699057329       -0.93752171232054       -0.34226407367123
H            3.09730299973347       -0.48211341816075       -1.02243632720638
H            2.62641406230455       -1.17641909879286        1.91668074823022
H            2.69213818135336        0.45820870060406        1.26558813941654
H            4.80296976458505        1.27388077573468        0.16206368835905
H            7.25595657961105        1.25437928807437        0.29069861275445
H            8.42113431272179       -0.58333887050088        1.44819068163074
H            7.11945733361619       -2.40783915655153        2.47572104936095
H            4.67094402405953       -2.39209046379899        2.36050979336434
