28
 energy: -39.489519397414 gnorm: 0.000505594682 xtb: 6.5.1 (fef0646)
N            3.80476464436715        0.47511358522074        1.50841773782720
C            2.75496312514185        0.56672235902445        0.46846771176602
C            3.24540952464068        1.47039041891917       -0.65726196830355
O            4.43548477151255        0.86143887613688       -1.15276610872483
C            5.07738299194997        1.42022753542408       -2.21565852525473
C            4.70736887154173        2.59793683466100       -2.81486383131088
C            5.45621798787366        3.11170972641496       -3.88499351516810
C            6.56227522120950        2.45973012535974       -4.34695343205049
C            6.96558693881591        1.24044388155069       -3.76115281775048
C            8.09654733100643        0.53227258995020       -4.21783177248169
C            8.46311469886456       -0.65369041144668       -3.64445919669795
C            7.70986441345375       -1.19064063883159       -2.59043126005042
C            6.61043087800292       -0.52665603007897       -2.12131364084941
C            6.21530582568692        0.70242041952972       -2.68605118853092
H            3.57973888317391       -0.24532631595359        2.20360784042912
H            3.92866112688326        1.37560168822298        1.98681776275167
H            4.68996246847502        0.23467648172083        1.04190471094258
H            1.83379297764779        0.96650020196634        0.88895576612822
H            2.56772445405954       -0.42759428115334        0.06278981283533
H            3.46541820856954        2.47996377810711       -0.29149087070671
H            2.48860856843242        1.53642348797177       -1.44466436637070
H            3.84444077216576        3.15350774557897       -2.48636087638862
H            5.14327791203282        4.04098537896263       -4.33718234639930
H            7.14062407938288        2.86117808100063       -5.16591894630634
H            8.66832610425037        0.94671325899993       -5.03606394206102
H            9.33109227963118       -1.18644469126921       -4.00447715201017
H            8.00649048780822       -2.13379110136781       -2.15709079634921
H            6.02125445341970       -0.94676298462177       -1.32331478891474
