      -----------------------------------------------------------      
     |                   =====================                   |     
     |                           x T B                           |     
     |                   =====================                   |     
     |                         S. Grimme                         |     
     |          Mulliken Center for Theoretical Chemistry        |     
     |                    University of Bonn                     |     
      -----------------------------------------------------------      

   * xtb version 6.5.1 (fef0646) compiled by 'conda@b96dff2e9fd6' on 2023-01-04

   xtb is free software: you can redistribute it and/or modify it under
   the terms of the GNU Lesser General Public License as published by
   the Free Software Foundation, either version 3 of the License, or
   (at your option) any later version.
   
   xtb is distributed in the hope that it will be useful,
   but WITHOUT ANY WARRANTY; without even the implied warranty of
   MERCHANTABILITY or FITNESS FOR A PARTICULAR PURPOSE.  See the
   GNU Lesser General Public License for more details.
   
   Cite this work as:
   * C. Bannwarth, E. Caldeweyher, S. Ehlert, A. Hansen, P. Pracht,
     J. Seibert, S. Spicher, S. Grimme, WIREs Comput. Mol. Sci., 2020, 11,
     e01493. DOI: 10.1002/wcms.1493
   
   for GFN2-xTB:
   * C. Bannwarth, S. Ehlert and S. Grimme., J. Chem. Theory Comput., 2019,
     15, 1652-1671. DOI: 10.1021/acs.jctc.8b01176
   for GFN1-xTB:
   * S. Grimme, C. Bannwarth, P. Shushkov, J. Chem. Theory Comput., 2017,
     13, 1989-2009. DOI: 10.1021/acs.jctc.7b00118
   for GFN0-xTB:
   * P. Pracht, E. Caldeweyher, S. Ehlert, S. Grimme, ChemRxiv, 2019, preprint.
     DOI: 10.26434/chemrxiv.8326202.v1
   for GFN-FF:
   * S. Spicher and S. Grimme, Angew. Chem. Int. Ed., 2020, 59, 15665-15673.
     DOI: 10.1002/anie.202004239
   
   for ALPB and GBSA implicit solvation:
   * S. Ehlert, M. Stahn, S. Spicher, S. Grimme, J. Chem. Theory Comput.,
     2021, 17, 4250-4261. DOI: 10.1021/acs.jctc.1c00471
   
   for DFT-D4:
   * E. Caldeweyher, C. Bannwarth and S. Grimme, J. Chem. Phys., 2017,
     147, 034112. DOI: 10.1063/1.4993215
   * E. Caldeweyher, S. Ehlert, A. Hansen, H. Neugebauer, S. Spicher,
     C. Bannwarth and S. Grimme, J. Chem. Phys., 2019, 150, 154122.
     DOI: 10.1063/1.5090222
   * E. Caldeweyher, J.-M. Mewes, S. Ehlert and S. Grimme, Phys. Chem. Chem. Phys.
     2020, 22, 8499-8512. DOI: 10.1039/D0CP00502A
   
   for sTDA-xTB:
   * S. Grimme and C. Bannwarth, J. Chem. Phys., 2016, 145, 054103.
     DOI: 10.1063/1.4959605
   
   in the mass-spec context:
   * V. Asgeirsson, C. Bauer and S. Grimme, Chem. Sci., 2017, 8, 4879.
     DOI: 10.1039/c7sc00601b
   * J. Koopman and S. Grimme, ACS Omega 2019, 4, 12, 15120-15133.
     DOI: 10.1021/acsomega.9b02011
   
   for metadynamics refer to:
   * S. Grimme, J. Chem. Theory Comput., 2019, 155, 2847-2862
     DOI: 10.1021/acs.jctc.9b00143
   
   for SPH calculations refer to:
   * S. Spicher and S. Grimme, J. Chem. Theory Comput., 2021, 17, 1701-1714
     DOI: 10.1021/acs.jctc.0c01306
   
   with help from (in alphabetical order)
   P. Atkinson, C. Bannwarth, F. Bohle, G. Brandenburg, E. Caldeweyher
   M. Checinski, S. Dohm, S. Ehlert, S. Ehrlich, I. Gerasimov, C. Hölzer
   A. Katbashev, J. Koopman, C. Lavigne, S. Lehtola, F. März, M. Müller,
   F. Musil, H. Neugebauer, J. Pisarek, C. Plett, P. Pracht, F. Pultar,
   J. Seibert, P. Shushkov, S. Spicher, M. Stahn, M. Steiner, T. Strunk,
   J. Stückrath, T. Rose, and J. Unsleber
   
 * started run on 2023/01/24 at 14:58:13.817     

           -------------------------------------------------
          |                Calculation Setup                |
           -------------------------------------------------

          program call               : xtb init.xyz --opt -c 0 -u 0 -P 16 --alpb water
          hostname                   : gpg-woodward
          coordinate file            : init.xyz
          omp threads                :                    16

   ID    Z sym.   atoms
    1    7 N      1
    2    6 C      2-13
    3   17 Cl     14
    4    1 H      15-28

molecular fragmentation (1/2 indicates fragments):
1111111111111211111111111111
# atoms in fragment 1/2:    27     1
 fragment masses (1/2) :      172.25       35.45
CMA distance (Bohr)    :  10.282
constraining FC (au)   :  0.0500

           -------------------------------------------------
          |                 G F N 2 - x T B                 |
           -------------------------------------------------

        Reference                      10.1021/acs.jctc.8b01176
      * Hamiltonian:
        H0-scaling (s, p, d)           1.850000    2.230000    2.230000
        zeta-weighting                 0.500000
      * Dispersion:
        s8                             2.700000
        a1                             0.520000
        a2                             5.000000
        s9                             5.000000
      * Repulsion:
        kExp                           1.500000    1.000000
        rExp                           1.000000
      * Coulomb:
        alpha                          2.000000
        third order                    shell-resolved
        anisotropic                    true
        a3                             3.000000
        a5                             4.000000
        cn-shift                       1.200000
        cn-exp                         4.000000
        max-rad                        5.000000

      * Solvation model:               ALPB
        Solvent                        water
        Parameter file                 internal GFN2-xTB/ALPB
        Dielectric constant                8.0200E+01
        Reference state                gsolv [1 M gas/solution]
        Free energy shift                  1.0808E-03 Eh       6.7819E-01 kcal/mol
        Temperature                        2.9815E+02 K
        Density                            1.0000E+00 kg/L
        Solvent mass                       1.8000E+01 g/mol
        Interaction kernel             P16
        Born radius scaling (c1)           1.4744E+00
        Born radii integrator          GBOBC
        Born offset                        0.0000E+00 a0       0.0000E+00 AA
        H-bond correction              true
        Ion screening                  false
        Surface tension                    1.0000E-05 Eh       1.5569E+01 dyn/cm
        Grid points                               230 per atom

          ...................................................
          :                      SETUP                      :
          :.................................................:
          :  # basis functions                  76          :
          :  # atomic orbitals                  75          :
          :  # shells                           43          :
          :  # electrons                        74          :
          :  max. iterations                   250          :
          :  Hamiltonian                  GFN2-xTB          :
          :  restarted?                      false          :
          :  GBSA solvation                   true          :
          :  PC potential                    false          :
          :  electronic temp.          300.0000000     K    :
          :  accuracy                    1.0000000          :
          :  -> integral cutoff          0.2500000E+02      :
          :  -> integral neglect         0.1000000E-07      :
          :  -> SCF convergence          0.1000000E-05 Eh   :
          :  -> wf. convergence          0.1000000E-03 e    :
          :  Broyden damping             0.4000000          :
          ...................................................

 iter      E             dE          RMSdq      gap      omega  full diag
   1    -40.8539859 -0.408540E+02  0.439E+00    2.93       0.0  T
   2    -40.9328888 -0.789029E-01  0.255E+00    2.93       1.0  T
   3    -40.9356365 -0.274764E-02  0.105E+00    2.92       1.0  T
   4    -40.9354432  0.193247E-03  0.487E-01    2.93       1.0  T
   5    -40.9395390 -0.409578E-02  0.255E-01    2.92       1.0  T
   6    -40.9398217 -0.282702E-03  0.193E-01    2.92       1.0  T
   7    -40.9401644 -0.342665E-03  0.109E-01    2.92       1.0  T
   8    -40.9402864 -0.122041E-03  0.518E-02    2.92       1.0  T
   9    -40.9403138 -0.273653E-04  0.191E-02    2.92       1.0  T
  10    -40.9403151 -0.127258E-05  0.933E-03    2.92       2.0  T
  11    -40.9403158 -0.701452E-06  0.260E-03    2.92       7.3  T
  12    -40.9403158 -0.457829E-07  0.167E-03    2.92      11.3  T
  13    -40.9403158 -0.154158E-07  0.777E-04    2.92      24.3  T
  14    -40.9403158 -0.452896E-08  0.379E-04    2.92      49.9  T

   *** convergence criteria satisfied after 14 iterations ***

         #    Occupation            Energy/Eh            Energy/eV
      -------------------------------------------------------------
         1        2.0000           -1.0120528             -27.5394
       ...           ...                  ...                  ...
        31        2.0000           -0.4146298             -11.2827
        32        2.0000           -0.4128083             -11.2331
        33        2.0000           -0.4044485             -11.0056
        34        2.0000           -0.4039353             -10.9916
        35        2.0000           -0.3989961             -10.8572
        36        2.0000           -0.3985700             -10.8456
        37        2.0000           -0.3716571             -10.1133 (HOMO)
        38                         -0.2642868              -7.1916 (LUMO)
        39                         -0.2260642              -6.1515
        40                         -0.1902402              -5.1767
        41                         -0.1516873              -4.1276
        42                         -0.0578579              -1.5744
       ...                                ...                  ...
        75                          0.6949906              18.9117
      -------------------------------------------------------------
                  HL-Gap            0.1073702 Eh            2.9217 eV
             Fermi-level           -0.3179720 Eh           -8.6525 eV

 SCC (total)                   0 d,  0 h,  0 min,  0.076 sec
 SCC setup                      ...        0 min,  0.000 sec (  0.634%)
 Dispersion                     ...        0 min,  0.006 sec (  7.636%)
 classical contributions        ...        0 min,  0.000 sec (  0.108%)
 integral evaluation            ...        0 min,  0.002 sec (  2.627%)
 iterations                     ...        0 min,  0.063 sec ( 82.153%)
 molecular gradient             ...        0 min,  0.004 sec (  5.634%)
 printout                       ...        0 min,  0.001 sec (  0.732%)

         :::::::::::::::::::::::::::::::::::::::::::::::::::::
         ::                     SUMMARY                     ::
         :::::::::::::::::::::::::::::::::::::::::::::::::::::
         :: total energy             -40.324456961712 Eh    ::
         :: total w/o Gsasa/hb       -40.317767996542 Eh    ::
         :: gradient norm              0.095183095875 Eh/a0 ::
         :: HOMO-LUMO gap              2.921693000351 eV    ::
         ::.................................................::
         :: SCC energy               -40.940315834171 Eh    ::
         :: -> isotropic ES            0.100417168369 Eh    ::
         :: -> anisotropic ES         -0.027666135557 Eh    ::
         :: -> anisotropic XC          0.014705408013 Eh    ::
         :: -> dispersion             -0.026490779298 Eh    ::
         :: -> Gsolv                  -0.055729072020 Eh    ::
         ::    -> Gelec               -0.049040106850 Eh    ::
         ::    -> Gsasa               -0.002209315537 Eh    ::
         ::    -> Ghb                 -0.005560409332 Eh    ::
         ::    -> Gshift               0.001080759698 Eh    ::
         :: repulsion energy           0.615808222138 Eh    ::
         :: add. restraining           0.000000000000 Eh    ::
         :: total charge               0.000000000000 e     ::
         :::::::::::::::::::::::::::::::::::::::::::::::::::::

      ----------------------------------------------------------- 
     |                   =====================                   |
     |                        A N C O P T                        |
     |                   =====================                   |
     |               Approximate Normal Coordinate               |
     |                Rational Function Optimizer                |
      ----------------------------------------------------------- 

          ...................................................
          :                      SETUP                      :
          :.................................................:
          :   optimization level            normal          :
          :   max. optcycles                   200          :
          :   ANC micro-cycles                  20          :
          :   degrees of freedom                78          :
          :.................................................:
          :   RF solver                   davidson          :
          :   write xtbopt.log                true          :
          :   linear?                        false          :
          :   energy convergence         0.5000000E-05 Eh   :
          :   grad. convergence          0.1000000E-02 Eh/α :
          :   maximium RF displ.         1.0000000          :
          :   Hlow (freq-cutoff)         0.1000000E-01      :
          :   Hmax (freq-cutoff)         5.0000000          :
          :   S6 in model hess.         20.0000000          :
          ...................................................

generating ANC from model Hessian ...
Using Lindh-Hessian (1995)
 Shifting diagonal of input Hessian by    9.4178817907879658E-003
 Lowest  eigenvalues of input Hessian
    0.000000    0.000000    0.000000    0.000000    0.000000    0.000000
    0.010000    0.010571    0.010772    0.012036    0.014712    0.015788
    0.016312    0.019683    0.020396    0.022539    0.024829    0.025319
 Highest eigenvalues
    1.764562    1.785594    1.805047    1.903855    2.009745    2.087488


........................................................................
.............................. CYCLE    1 ..............................
........................................................................
   1    -40.9403158 -0.409403E+02  0.257E-04    2.92       0.0  T
   2    -40.9403158 -0.257188E-09  0.199E-04    2.92      95.2  T
   3    -40.9403158 -0.134314E-09  0.158E-04    2.92     119.9  T
     SCC iter.                  ...        0 min,  0.014 sec
     gradient                   ...        0 min,  0.005 sec
 * total energy  :   -40.3244570 Eh     change       -0.1063320E-08 Eh
   gradient norm :     0.0951832 Eh/α   predicted     0.0000000E+00 (-100.00%)
   displ. norm   :     0.4675922 α      lambda       -0.1863110E-01
   maximum displ.:     0.2185451 α      in ANC's #18, #17, #4, ...

........................................................................
.............................. CYCLE    2 ..............................
........................................................................
   1    -40.9685017 -0.409685E+02  0.237E-01    3.11       0.0  T
   2    -40.9686326 -0.130899E-03  0.133E-01    3.11       1.0  T
   3    -40.9686346 -0.200900E-05  0.382E-02    3.11       1.0  T
   4    -40.9686452 -0.105911E-04  0.172E-02    3.11       1.1  T
   5    -40.9686490 -0.381105E-05  0.700E-03    3.11       2.7  T
   6    -40.9686491 -0.144036E-06  0.476E-03    3.11       4.0  T
   7    -40.9686493 -0.184431E-06  0.273E-03    3.11       6.9  T
   8    -40.9686494 -0.349222E-07  0.177E-03    3.11      10.7  T
   9    -40.9686494 -0.342839E-07  0.614E-04    3.11      30.8  T
  10    -40.9686494 -0.317921E-08  0.230E-04    3.11      82.1  T
     SCC iter.                  ...        0 min,  0.040 sec
     gradient                   ...        0 min,  0.003 sec
 * total energy  :   -40.3360387 Eh     change       -0.1158176E-01 Eh
   gradient norm :     0.0485517 Eh/α   predicted    -0.1137133E-01 (  -1.82%)
   displ. norm   :     0.2711240 α      lambda       -0.4374412E-02
   maximum displ.:     0.1543313 α      in ANC's #4, #2, #3, ...

........................................................................
.............................. CYCLE    3 ..............................
........................................................................
   1    -40.9818892 -0.409819E+02  0.111E-01    3.23       0.0  T
   2    -40.9819084 -0.191856E-04  0.656E-02    3.23       1.0  T
   3    -40.9819070  0.144774E-05  0.202E-02    3.23       1.0  T
   4    -40.9819135 -0.652613E-05  0.939E-03    3.23       2.0  T
   5    -40.9819139 -0.442636E-06  0.597E-03    3.23       3.2  T
   6    -40.9819141 -0.190856E-06  0.392E-03    3.23       4.8  T
   7    -40.9819142 -0.121104E-06  0.228E-03    3.23       8.3  T
   8    -40.9819143 -0.320699E-07  0.136E-03    3.23      13.9  T
   9    -40.9819143 -0.184179E-07  0.396E-04    3.23      47.8  T
  10    -40.9819143 -0.182182E-08  0.166E-04    3.23     113.7  T
     SCC iter.                  ...        0 min,  0.039 sec
     gradient                   ...        0 min,  0.003 sec
 * total energy  :   -40.3389049 Eh     change       -0.2866133E-02 Eh
   gradient norm :     0.0175413 Eh/α   predicted    -0.2347984E-02 ( -18.08%)
   displ. norm   :     0.3159895 α      lambda       -0.1532319E-02
   maximum displ.:     0.2173470 α      in ANC's #4, #2, #3, ...

........................................................................
.............................. CYCLE    4 ..............................
........................................................................
   1    -40.9832460 -0.409832E+02  0.731E-02    3.26       0.0  T
   2    -40.9832525 -0.642930E-05  0.439E-02    3.26       1.0  T
   3    -40.9832548 -0.232593E-05  0.144E-02    3.26       1.3  T
   4    -40.9832561 -0.128203E-05  0.102E-02    3.26       1.9  T
   5    -40.9832566 -0.569313E-06  0.659E-03    3.26       2.9  T
   6    -40.9832570 -0.336333E-06  0.327E-03    3.26       5.8  T
   7    -40.9832571 -0.100794E-06  0.153E-03    3.26      12.4  T
   8    -40.9832571 -0.124964E-07  0.691E-04    3.26      27.4  T
   9    -40.9832571 -0.523406E-08  0.188E-04    3.26     100.7  T
     SCC iter.                  ...        0 min,  0.033 sec
     gradient                   ...        0 min,  0.003 sec
 * total energy  :   -40.3400411 Eh     change       -0.1136263E-02 Eh
   gradient norm :     0.0112333 Eh/α   predicted    -0.8427198E-03 ( -25.83%)
   displ. norm   :     0.3799394 α      lambda       -0.1021830E-02
   maximum displ.:     0.2653981 α      in ANC's #4, #2, #3, ...

........................................................................
.............................. CYCLE    5 ..............................
........................................................................
   1    -40.9825727 -0.409826E+02  0.706E-02    3.25       0.0  T
   2    -40.9825775 -0.480179E-05  0.444E-02    3.25       1.0  T
   3    -40.9825801 -0.260193E-05  0.158E-02    3.25       1.2  T
   4    -40.9825820 -0.189112E-05  0.116E-02    3.25       1.6  T
   5    -40.9825829 -0.875296E-06  0.633E-03    3.25       3.0  T
   6    -40.9825833 -0.375443E-06  0.253E-03    3.25       7.5  T
   7    -40.9825833 -0.542845E-07  0.118E-03    3.25      16.0  T
   8    -40.9825833 -0.799997E-08  0.511E-04    3.25      37.0  T
   9    -40.9825833 -0.196685E-08  0.157E-04    3.25     120.2  T
     SCC iter.                  ...        0 min,  0.033 sec
     gradient                   ...        0 min,  0.003 sec
 * total energy  :   -40.3407811 Eh     change       -0.7399656E-03 Eh
   gradient norm :     0.0087814 Eh/α   predicted    -0.5846740E-03 ( -20.99%)
   displ. norm   :     0.3546740 α      lambda       -0.6876296E-03
   maximum displ.:     0.2309276 α      in ANC's #4, #2, #3, ...

........................................................................
.............................. CYCLE    6 ..............................
........................................................................
   1    -40.9824499 -0.409824E+02  0.656E-02    3.24       0.0  T
   2    -40.9824530 -0.314603E-05  0.412E-02    3.24       1.0  T
   3    -40.9824539 -0.874809E-06  0.151E-02    3.24       1.3  T
   4    -40.9824565 -0.255359E-05  0.101E-02    3.24       1.9  T
   5    -40.9824571 -0.625282E-06  0.534E-03    3.24       3.5  T
   6    -40.9824574 -0.340639E-06  0.168E-03    3.24      11.2  T
   7    -40.9824575 -0.174343E-07  0.924E-04    3.24      20.5  T
   8    -40.9824575 -0.340526E-08  0.256E-04    3.24      73.9  T
     SCC iter.                  ...        0 min,  0.030 sec
     gradient                   ...        0 min,  0.003 sec
 * total energy  :   -40.3413321 Eh     change       -0.5509950E-03 Eh
   gradient norm :     0.0087801 Eh/α   predicted    -0.3870762E-03 ( -29.75%)
   displ. norm   :     0.4755305 α      lambda       -0.8758246E-03
   maximum displ.:     0.2881353 α      in ANC's #4, #2, #3, ...

........................................................................
.............................. CYCLE    7 ..............................
........................................................................
   1    -40.9826128 -0.409826E+02  0.921E-02    3.22       0.0  T
   2    -40.9826184 -0.559388E-05  0.572E-02    3.22       1.0  T
   3    -40.9826181  0.236021E-06  0.212E-02    3.22       1.0  T
   4    -40.9826242 -0.604506E-05  0.130E-02    3.22       1.5  T
   5    -40.9826252 -0.103887E-05  0.732E-03    3.22       2.6  T
   6    -40.9826258 -0.557862E-06  0.248E-03    3.22       7.6  T
   7    -40.9826258 -0.509132E-07  0.116E-03    3.22      16.4  T
   8    -40.9826258 -0.931779E-08  0.455E-04    3.22      41.6  T
   9    -40.9826258 -0.128443E-08  0.155E-04    3.22     122.2  T
     SCC iter.                  ...        0 min,  0.032 sec
     gradient                   ...        0 min,  0.003 sec
 * total energy  :   -40.3420025 Eh     change       -0.6704075E-03 Eh
   gradient norm :     0.0111459 Eh/α   predicted    -0.5369473E-03 ( -19.91%)
   displ. norm   :     0.4082039 α      lambda       -0.8015181E-03
   maximum displ.:     0.2063232 α      in ANC's #4, #2, #1, ...

........................................................................
.............................. CYCLE    8 ..............................
........................................................................
   1    -40.9837769 -0.409838E+02  0.890E-02    3.21       0.0  T
   2    -40.9837831 -0.624923E-05  0.544E-02    3.21       1.0  T
   3    -40.9837823  0.855592E-06  0.198E-02    3.21       1.0  T
   4    -40.9837877 -0.537293E-05  0.116E-02    3.21       1.6  T
   5    -40.9837884 -0.789521E-06  0.766E-03    3.21       2.5  T
   6    -40.9837889 -0.460404E-06  0.309E-03    3.21       6.1  T
   7    -40.9837890 -0.110991E-06  0.109E-03    3.21      17.4  T
   8    -40.9837890 -0.921653E-08  0.498E-04    3.21      38.0  T
   9    -40.9837890 -0.188173E-08  0.176E-04    3.21     107.6  T
     SCC iter.                  ...        0 min,  0.033 sec
     gradient                   ...        0 min,  0.003 sec
 * total energy  :   -40.3426106 Eh     change       -0.6081645E-03 Eh
   gradient norm :     0.0112609 Eh/α   predicted    -0.4675407E-03 ( -23.12%)
   displ. norm   :     0.3459549 α      lambda       -0.6047660E-03
   maximum displ.:     0.1580478 α      in ANC's #1, #4, #2, ...

........................................................................
.............................. CYCLE    9 ..............................
........................................................................
   1    -40.9848350 -0.409848E+02  0.839E-02    3.22       0.0  T
   2    -40.9848424 -0.731939E-05  0.511E-02    3.22       1.0  T
   3    -40.9848423  0.306450E-07  0.181E-02    3.22       1.0  T
   4    -40.9848461 -0.381723E-05  0.111E-02    3.22       1.7  T
   5    -40.9848469 -0.800867E-06  0.761E-03    3.22       2.5  T
   6    -40.9848474 -0.484916E-06  0.256E-03    3.22       7.4  T
   7    -40.9848475 -0.773793E-07  0.991E-04    3.22      19.1  T
   8    -40.9848475 -0.619504E-08  0.365E-04    3.22      51.7  T
     SCC iter.                  ...        0 min,  0.028 sec
     gradient                   ...        0 min,  0.003 sec
 * total energy  :   -40.3429954 Eh     change       -0.3847195E-03 Eh
   gradient norm :     0.0068474 Eh/α   predicted    -0.3385750E-03 ( -11.99%)
   displ. norm   :     0.1382857 α      lambda       -0.1355834E-03
   maximum displ.:     0.0952519 α      in ANC's #1, #2, #9, ...

........................................................................
.............................. CYCLE   10 ..............................
........................................................................
   1    -40.9850777 -0.409851E+02  0.378E-02    3.23       0.0  T
   2    -40.9850784 -0.705421E-06  0.231E-02    3.23       1.0  T
   3    -40.9850787 -0.286473E-06  0.623E-03    3.23       3.0  T
   4    -40.9850791 -0.368473E-06  0.457E-03    3.23       4.1  T
   5    -40.9850792 -0.131134E-06  0.276E-03    3.23       6.8  T
   6    -40.9850793 -0.629262E-07  0.116E-03    3.23      16.3  T
   7    -40.9850793 -0.168824E-07  0.350E-04    3.23      54.0  T
   8    -40.9850793 -0.355861E-09  0.191E-04    3.23      98.8  T
     SCC iter.                  ...        0 min,  0.029 sec
     gradient                   ...        0 min,  0.003 sec
 * total energy  :   -40.3430942 Eh     change       -0.9878192E-04 Eh
   gradient norm :     0.0029752 Eh/α   predicted    -0.6909011E-04 ( -30.06%)
   displ. norm   :     0.1159304 α      lambda       -0.9903592E-04
   maximum displ.:     0.0896920 α      in ANC's #1, #2, #3, ...

........................................................................
.............................. CYCLE   11 ..............................
........................................................................
   1    -40.9854022 -0.409854E+02  0.366E-02    3.24       0.0  T
   2    -40.9854026 -0.365712E-06  0.220E-02    3.24       1.0  T
   3    -40.9854028 -0.201888E-06  0.449E-03    3.24       4.2  T
   4    -40.9854030 -0.163153E-06  0.335E-03    3.24       5.6  T
   5    -40.9854030 -0.757123E-07  0.154E-03    3.24      12.2  T
   6    -40.9854031 -0.280128E-07  0.604E-04    3.24      31.3  T
   7    -40.9854031 -0.214563E-08  0.264E-04    3.24      71.5  T
     SCC iter.                  ...        0 min,  0.024 sec
     gradient                   ...        0 min,  0.003 sec
 * total energy  :   -40.3431663 Eh     change       -0.7219149E-04 Eh
   gradient norm :     0.0021208 Eh/α   predicted    -0.5018951E-04 ( -30.48%)
   displ. norm   :     0.1317284 α      lambda       -0.6876230E-04
   maximum displ.:     0.0966767 α      in ANC's #1, #2, #9, ...

........................................................................
.............................. CYCLE   12 ..............................
........................................................................
   1    -40.9847146 -0.409847E+02  0.370E-02    3.25       0.0  T
   2    -40.9847150 -0.417498E-06  0.223E-02    3.25       1.0  T
   3    -40.9847152 -0.251475E-06  0.444E-03    3.25       4.3  T
   4    -40.9847153 -0.113806E-06  0.343E-03    3.25       5.5  T
   5    -40.9847154 -0.674053E-07  0.221E-03    3.25       8.5  T
   6    -40.9847155 -0.408276E-07  0.829E-04    3.25      22.8  T
   7    -40.9847155 -0.910843E-08  0.306E-04    3.25      61.8  T
     SCC iter.                  ...        0 min,  0.025 sec
     gradient                   ...        0 min,  0.003 sec
 * total energy  :   -40.3432193 Eh     change       -0.5294786E-04 Eh
   gradient norm :     0.0032919 Eh/α   predicted    -0.3497882E-04 ( -33.94%)
   displ. norm   :     0.1477637 α      lambda       -0.7045482E-04
   maximum displ.:     0.1033105 α      in ANC's #1, #2, #4, ...

........................................................................
.............................. CYCLE   13 ..............................
........................................................................
   1    -40.9851041 -0.409851E+02  0.420E-02    3.25       0.0  T
   2    -40.9851046 -0.530659E-06  0.252E-02    3.25       1.0  T
   3    -40.9851048 -0.163265E-06  0.568E-03    3.25       3.3  T
   4    -40.9851051 -0.338267E-06  0.396E-03    3.25       4.8  T
   5    -40.9851052 -0.903446E-07  0.240E-03    3.25       7.9  T
   6    -40.9851053 -0.562098E-07  0.763E-04    3.25      24.8  T
   7    -40.9851053 -0.554483E-08  0.399E-04    3.25      47.3  T
     SCC iter.                  ...        0 min,  0.024 sec
     gradient                   ...        0 min,  0.003 sec
 * total energy  :   -40.3432723 Eh     change       -0.5302700E-04 Eh
   gradient norm :     0.0033621 Eh/α   predicted    -0.3599895E-04 ( -32.11%)
   displ. norm   :     0.1649289 α      lambda       -0.6860931E-04
   maximum displ.:     0.1166153 α      in ANC's #1, #2, #9, ...

........................................................................
.............................. CYCLE   14 ..............................
........................................................................
   1    -40.9846510 -0.409847E+02  0.446E-02    3.24       0.0  T
   2    -40.9846515 -0.499302E-06  0.268E-02    3.24       1.0  T
   3    -40.9846517 -0.259008E-06  0.555E-03    3.24       3.4  T
   4    -40.9846520 -0.248380E-06  0.406E-03    3.24       4.7  T
   5    -40.9846521 -0.985101E-07  0.235E-03    3.24       8.1  T
   6    -40.9846521 -0.501020E-07  0.903E-04    3.24      20.9  T
   7    -40.9846521 -0.106705E-07  0.355E-04    3.24      53.2  T
     SCC iter.                  ...        0 min,  0.024 sec
     gradient                   ...        0 min,  0.003 sec
 * total energy  :   -40.3433275 Eh     change       -0.5516896E-04 Eh
   gradient norm :     0.0024653 Eh/α   predicted    -0.3524131E-04 ( -36.12%)
   displ. norm   :     0.1832753 α      lambda       -0.6359315E-04
   maximum displ.:     0.1302517 α      in ANC's #1, #2, #9, ...

........................................................................
.............................. CYCLE   15 ..............................
........................................................................
   1    -40.9847592 -0.409848E+02  0.501E-02    3.24       0.0  T
   2    -40.9847598 -0.547444E-06  0.299E-02    3.24       1.0  T
   3    -40.9847601 -0.330610E-06  0.581E-03    3.24       3.3  T
   4    -40.9847604 -0.250022E-06  0.431E-03    3.24       4.4  T
   5    -40.9847605 -0.116133E-06  0.226E-03    3.24       8.4  T
   6    -40.9847605 -0.529915E-07  0.923E-04    3.24      20.5  T
   7    -40.9847605 -0.883541E-08  0.395E-04    3.24      47.9  T
     SCC iter.                  ...        0 min,  0.025 sec
     gradient                   ...        0 min,  0.003 sec
 * total energy  :   -40.3433768 Eh     change       -0.4933538E-04 Eh
   gradient norm :     0.0018867 Eh/α   predicted    -0.3286803E-04 ( -33.38%)
   displ. norm   :     0.2679514 α      lambda       -0.4604505E-04
   maximum displ.:     0.1904757 α      in ANC's #1, #2, #9, ...

........................................................................
.............................. CYCLE   16 ..............................
........................................................................
   1    -40.9849194 -0.409849E+02  0.720E-02    3.23       0.0  T
   2    -40.9849204 -0.977426E-06  0.429E-02    3.23       1.0  T
   3    -40.9849211 -0.708310E-06  0.771E-03    3.23       2.5  T
   4    -40.9849215 -0.377650E-06  0.588E-03    3.23       3.2  T
   5    -40.9849217 -0.227286E-06  0.276E-03    3.23       6.9  T
   6    -40.9849218 -0.955324E-07  0.118E-03    3.23      16.0  T
   7    -40.9849218 -0.867745E-08  0.472E-04    3.23      40.0  T
   8    -40.9849218 -0.192082E-08  0.167E-04    3.23     113.1  T
     SCC iter.                  ...        0 min,  0.028 sec
     gradient                   ...        0 min,  0.003 sec
 * total energy  :   -40.3434231 Eh     change       -0.4624445E-04 Eh
   gradient norm :     0.0021037 Eh/α   predicted    -0.2375835E-04 ( -48.62%)
   displ. norm   :     0.1043704 α      lambda       -0.2383078E-04
   maximum displ.:     0.0768951 α      in ANC's #1, #2, #4, ...

........................................................................
.............................. CYCLE   17 ..............................
........................................................................
   1    -40.9852771 -0.409853E+02  0.281E-02    3.23       0.0  T
   2    -40.9852772 -0.135602E-06  0.167E-02    3.23       1.1  T
   3    -40.9852773 -0.913087E-07  0.278E-03    3.23       6.8  T
   4    -40.9852774 -0.497894E-07  0.212E-03    3.23       8.9  T
   5    -40.9852774 -0.269336E-07  0.113E-03    3.23      16.7  T
   6    -40.9852774 -0.144957E-07  0.471E-04    3.23      40.1  T
   7    -40.9852774 -0.176725E-08  0.184E-04    3.23     102.5  T
     SCC iter.                  ...        0 min,  0.025 sec
     gradient                   ...        0 min,  0.003 sec
 * total energy  :   -40.3434443 Eh     change       -0.2125797E-04 Eh
   gradient norm :     0.0018592 Eh/α   predicted    -0.1205105E-04 ( -43.31%)
   displ. norm   :     0.2986187 α      lambda       -0.4685294E-04
   maximum displ.:     0.2198568 α      in ANC's #1, #2, #4, ...

........................................................................
.............................. CYCLE   18 ..............................
........................................................................
   1    -40.9855019 -0.409855E+02  0.803E-02    3.23       0.0  T
   2    -40.9855028 -0.958012E-06  0.477E-02    3.23       1.0  T
   3    -40.9855034 -0.620631E-06  0.750E-03    3.23       2.5  T
   4    -40.9855038 -0.382514E-06  0.565E-03    3.23       3.3  T
   5    -40.9855040 -0.188124E-06  0.300E-03    3.23       6.3  T
   6    -40.9855041 -0.108429E-06  0.125E-03    3.23      15.1  T
   7    -40.9855041 -0.103174E-07  0.471E-04    3.23      40.1  T
   8    -40.9855041 -0.153588E-08  0.176E-04    3.23     107.4  T
     SCC iter.                  ...        0 min,  0.027 sec
     gradient                   ...        0 min,  0.003 sec
 * total energy  :   -40.3434943 Eh     change       -0.5001417E-04 Eh
   gradient norm :     0.0019143 Eh/α   predicted    -0.2436001E-04 ( -51.29%)
   displ. norm   :     0.2089899 α      lambda       -0.2403621E-04
   maximum displ.:     0.1582263 α      in ANC's #1, #2, #4, ...

........................................................................
.............................. CYCLE   19 ..............................
........................................................................
   1    -40.9854705 -0.409855E+02  0.571E-02    3.23       0.0  T
   2    -40.9854709 -0.424695E-06  0.338E-02    3.23       1.0  T
   3    -40.9854712 -0.237881E-06  0.504E-03    3.23       3.7  T
   4    -40.9854714 -0.194155E-06  0.368E-03    3.23       5.1  T
   5    -40.9854714 -0.757460E-07  0.201E-03    3.23       9.4  T
   6    -40.9854715 -0.502085E-07  0.821E-04    3.23      23.0  T
   7    -40.9854715 -0.353958E-08  0.320E-04    3.23      59.1  T
     SCC iter.                  ...        0 min,  0.024 sec
     gradient                   ...        0 min,  0.003 sec
 * total energy  :   -40.3435230 Eh     change       -0.2862898E-04 Eh
   gradient norm :     0.0021901 Eh/α   predicted    -0.1225372E-04 ( -57.20%)
   displ. norm   :     0.0950984 α      lambda       -0.2096801E-04
   maximum displ.:     0.0719061 α      in ANC's #1, #2, #4, ...

........................................................................
.............................. CYCLE   20 ..............................
........................................................................
   1    -40.9857408 -0.409857E+02  0.270E-02    3.24       0.0  T
   2    -40.9857409 -0.840135E-07  0.159E-02    3.24       1.2  T
   3    -40.9857409 -0.258471E-07  0.207E-03    3.24       9.1  T
   4    -40.9857409 -0.415207E-07  0.140E-03    3.24      13.5  T
   5    -40.9857409 -0.941733E-08  0.907E-04    3.24      20.8  T
   6    -40.9857409 -0.751364E-08  0.403E-04    3.24      46.9  T
     SCC iter.                  ...        0 min,  0.020 sec
     gradient                   ...        0 min,  0.003 sec
 * total energy  :   -40.3435410 Eh     change       -0.1804654E-04 Eh
   gradient norm :     0.0015641 Eh/α   predicted    -0.1057963E-04 ( -41.38%)
   displ. norm   :     0.2169683 α      lambda       -0.3285644E-04
   maximum displ.:     0.1584217 α      in ANC's #1, #2, #4, ...
 * RMSD in coord.:     0.6893715 α      energy gain  -0.1908405E-01 Eh

generating ANC from model Hessian ...
Using Lindh-Hessian (1995)
 Shifting diagonal of input Hessian by    1.0075995839801970E-002
 Lowest  eigenvalues of input Hessian
    0.010000    0.000000    0.000000    0.000000    0.000000    0.000000
    0.000000    0.010453    0.011210    0.011953    0.015518    0.016044
    0.017295    0.019916    0.020703    0.023587    0.023901    0.026811
 Highest eigenvalues
    1.781310    1.823880    1.891855    1.969767    2.030699    2.123296


........................................................................
.............................. CYCLE   21 ..............................
........................................................................
   1    -40.9859935 -0.409860E+02  0.622E-02    3.24       0.0  T
   2    -40.9859939 -0.364473E-06  0.366E-02    3.24       1.0  T
   3    -40.9859940 -0.864778E-07  0.432E-03    3.24       4.4  T
   4    -40.9859942 -0.201780E-06  0.282E-03    3.24       6.7  T
   5    -40.9859942 -0.378582E-07  0.177E-03    3.24      10.7  T
   6    -40.9859942 -0.289607E-07  0.874E-04    3.24      21.6  T
   7    -40.9859942 -0.619777E-08  0.417E-04    3.24      45.3  T
     SCC iter.                  ...        0 min,  0.024 sec
     gradient                   ...        0 min,  0.003 sec
 * total energy  :   -40.3435767 Eh     change       -0.3566627E-04 Eh
   gradient norm :     0.0015580 Eh/α   predicted     0.0000000E+00 (-100.00%)
   displ. norm   :     0.0362965 α      lambda       -0.2317702E-05
   maximum displ.:     0.0190927 α      in ANC's #5, #9, #2, ...

........................................................................
.............................. CYCLE   22 ..............................
........................................................................
   1    -40.9854200 -0.409854E+02  0.992E-03    3.24       0.0  T
   2    -40.9854201 -0.527119E-07  0.603E-03    3.24       3.1  T
   3    -40.9854201 -0.319327E-07  0.146E-03    3.24      12.9  T
   4    -40.9854201 -0.929020E-08  0.113E-03    3.24      16.8  T
   5    -40.9854201 -0.623878E-08  0.778E-04    3.24      24.3  T
   6    -40.9854201 -0.613843E-08  0.223E-04    3.24      84.9  T
     SCC iter.                  ...        0 min,  0.021 sec
     gradient                   ...        0 min,  0.003 sec
 * total energy  :   -40.3435917 Eh     change       -0.1497168E-04 Eh
   gradient norm :     0.0006315 Eh/α   predicted    -0.6585238E-05 ( -56.02%)
   displ. norm   :     0.0838778 α      lambda       -0.1766591E-04
   maximum displ.:     0.0466382 α      in ANC's #9, #5, #2, ...

........................................................................
.............................. CYCLE   23 ..............................
........................................................................
   1    -40.9850543 -0.409851E+02  0.200E-02    3.23       0.0  T
   2    -40.9850544 -0.106240E-06  0.122E-02    3.23       1.6  T
   3    -40.9850545 -0.109426E-06  0.246E-03    3.23       7.7  T
   4    -40.9850546 -0.239742E-07  0.194E-03    3.23       9.7  T
   5    -40.9850546 -0.287268E-07  0.864E-04    3.23      21.9  T
   6    -40.9850546 -0.802363E-08  0.340E-04    3.23      55.7  T
     SCC iter.                  ...        0 min,  0.020 sec
     gradient                   ...        0 min,  0.003 sec
 * total energy  :   -40.3436085 Eh     change       -0.1681202E-04 Eh
   gradient norm :     0.0011624 Eh/α   predicted    -0.8863353E-05 ( -47.28%)
   displ. norm   :     0.0496285 α      lambda       -0.5927276E-05
   maximum displ.:     0.0311883 α      in ANC's #9, #2, #5, ...

........................................................................
.............................. CYCLE   24 ..............................
........................................................................
   1    -40.9852427 -0.409852E+02  0.121E-02    3.23       0.0  T
   2    -40.9852428 -0.282593E-07  0.727E-03    3.23       2.6  T
   3    -40.9852428 -0.212400E-07  0.129E-03    3.23      14.7  T
   4    -40.9852428 -0.104016E-07  0.101E-03    3.23      18.7  T
   5    -40.9852428 -0.690118E-08  0.537E-04    3.23      35.2  T
   6    -40.9852428 -0.294744E-08  0.218E-04    3.23      86.5  T
     SCC iter.                  ...        0 min,  0.020 sec
     gradient                   ...        0 min,  0.003 sec
 * total energy  :   -40.3436149 Eh     change       -0.6427564E-05 Eh
   gradient norm :     0.0008790 Eh/α   predicted    -0.2967733E-05 ( -53.83%)
   displ. norm   :     0.0514106 α      lambda       -0.4907927E-05
   maximum displ.:     0.0313508 α      in ANC's #9, #2, #4, ...

........................................................................
.............................. CYCLE   25 ..............................
........................................................................
   1    -40.9855053 -0.409855E+02  0.137E-02    3.23       0.0  T
   2    -40.9855053 -0.268568E-07  0.815E-03    3.23       2.3  T
   3    -40.9855053 -0.907625E-08  0.116E-03    3.23      16.3  T
   4    -40.9855053 -0.123245E-07  0.817E-04    3.23      23.1  T
   5    -40.9855053 -0.358045E-08  0.552E-04    3.23      34.2  T
     SCC iter.                  ...        0 min,  0.017 sec
     gradient                   ...        0 min,  0.003 sec
 * total energy  :   -40.3436199 Eh     change       -0.5050281E-05 Eh
   gradient norm :     0.0003882 Eh/α   predicted    -0.2457553E-05 ( -51.34%)
   displ. norm   :     0.0478670 α      lambda       -0.3079829E-05
   maximum displ.:     0.0298210 α      in ANC's #4, #9, #2, ...

........................................................................
.............................. CYCLE   26 ..............................
........................................................................
   1    -40.9856890 -0.409857E+02  0.130E-02    3.24       0.0  T
   2    -40.9856890 -0.169837E-07  0.767E-03    3.24       2.5  T
   3    -40.9856890 -0.616332E-08  0.870E-04    3.23      21.7  T
   4    -40.9856890 -0.697611E-08  0.594E-04    3.23      31.8  T
     SCC iter.                  ...        0 min,  0.014 sec
     gradient                   ...        0 min,  0.003 sec
 * total energy  :   -40.3436233 Eh     change       -0.3349338E-05 Eh
   gradient norm :     0.0004456 Eh/α   predicted    -0.1541854E-05 ( -53.97%)
   displ. norm   :     0.0381994 α      lambda       -0.2156576E-05
   maximum displ.:     0.0271899 α      in ANC's #4, #2, #9, ...

   *** GEOMETRY OPTIMIZATION CONVERGED AFTER 26 ITERATIONS ***

------------------------------------------------------------------------
 total energy gain   :        -0.0191663 Eh      -12.0271 kcal/mol
 total RMSD          :         0.7055538 a0        0.3734 Å
 total power (kW/mol):        -1.9354304 (step)  -59.2546 (real)
------------------------------------------------------------------------

 ANCopt (total)                0 d,  0 h,  0 min,  0.849 sec
 optimizer setup                ...        0 min,  0.000 sec (  0.012%)
 model hessian                  ...        0 min,  0.019 sec (  2.259%)
 ANC generation                 ...        0 min,  0.005 sec (  0.640%)
 coordinate transformation      ...        0 min,  0.001 sec (  0.071%)
 single point calculation       ...        0 min,  0.815 sec ( 95.948%)
 optimization log               ...        0 min,  0.003 sec (  0.339%)
 hessian update                 ...        0 min,  0.001 sec (  0.100%)
 rational function              ...        0 min,  0.003 sec (  0.316%)

================
 final structure:
================
28
 xtb: 6.5.1 (fef0646)
N            0.96450260024755        0.02721862084386        0.28376542218969
C            2.36860599431343        0.25685880944748       -0.14683529560670
C            3.29106274655063       -0.10663107334072        1.01065401644401
C            2.69512586109652       -0.55737136775322       -1.37466700583466
C            2.41296060364490       -1.93850886084512       -1.40291077099271
C            2.73796025712027       -2.68830142393997       -2.49716467925484
C            3.30233118375029        0.03107490308707       -2.45350100889254
C            3.65333179855256       -0.71772828222363       -3.59509153661289
C            3.36445030995570       -2.10673780625367       -3.61998130828095
C            3.71354757985298       -2.85679176026143       -4.76201947795508
C            4.32101615868623       -2.25858795683565       -5.83071780852244
C            4.60627600473898       -0.88384801862258       -5.80643851275024
C            4.27986494520508       -0.12987054116275       -4.71415100101329
Cl           0.46305928390793       -2.68483281034908        1.64616803990943
H            0.70704849082031        0.67629910343583        1.03124368671837
H            0.84688676665249       -0.93649245854246        0.68865218562654
H            0.30956605062363        0.12087261948059       -0.49586318422190
H            2.48277267571343        1.31718812642004       -0.39116845786030
H            3.08931815966102       -1.12502735648075        1.33348942404704
H            3.13609370078806        0.56057616320929        1.85288275377864
H            4.32944357504245       -0.04185122762593        0.70220269681288
H            1.93854676110490       -2.40697749616496       -0.55412951805773
H            2.51945649683472       -3.74677418087978       -2.51565708471316
H            3.53046926674424        1.08695018312728       -2.44613806224754
H            3.49148485659121       -3.91451835717823       -4.77537980839774
H            4.58644226251921       -2.83937899352227       -6.70182128888846
H            5.08649863400717       -0.42983766809185       -6.66052792997225
H            4.49823697527421        0.92765911102423       -4.69271448545143

 Bond Distances (Angstroems)
 ---------------------------
N1-C2=1.4865         N1-H15=1.0229        N1-H16=1.0519        N1-H17=1.0225        C2-N1=1.4865         C2-C3=1.5241         
C2-C4=1.5090         C2-H18=1.0941        C3-C2=1.5241         C3-H19=1.0872        C3-H20=1.0856        C3-H21=1.0852        
C4-C2=1.5090         C4-C5=1.4099         C4-C7=1.3707         C5-C4=1.4099         C5-C6=1.3657         C5-H22=1.0793        
C6-C5=1.3657         C6-C9=1.4112         C6-H23=1.0809        C7-C4=1.3707         C7-C8=1.4097         C7-H24=1.0803        
C8-C7=1.4097         C8-C9=1.4190         C8-C13=1.4108        C9-C6=1.4112         C9-C8=1.4190         C9-C10=1.4102        
C10-C9=1.4102        C10-C11=1.3671       C10-H25=1.0809       C11-C10=1.3671       C11-C12=1.4042       C11-H26=1.0801       
C12-C11=1.4042       C12-C13=1.3668       C12-H27=1.0799       C13-C8=1.4108        C13-C12=1.3668       C13-H28=1.0801       
H15-N1=1.0229        H16-N1=1.0519        H17-N1=1.0225        H18-C2=1.0941        H19-C3=1.0872        H20-C3=1.0856        
H21-C3=1.0852        H22-C5=1.0793        H23-C6=1.0809        H24-C7=1.0803        H25-C10=1.0809       H26-C11=1.0801       
H27-C12=1.0799       H28-C13=1.0801       
 C  H  Rav=1.0830 sigma=0.0044  Rmin=1.0793  Rmax=1.0941    11
 C  C  Rav=1.4137 sigma=0.0480  Rmin=1.3657  Rmax=1.5241    13
 N  H  Rav=1.0324 sigma=0.0138  Rmin=1.0225  Rmax=1.0519     3
 N  C  Rav=1.4865 sigma=0.0000  Rmin=1.4865  Rmax=1.4865     1

 selected bond angles (degree)
 --------------------
H15-N1-C2=110.57               H16-N1-C2=111.02               H16-N1-H15=105.78              H17-N1-C2=111.72               
H17-N1-H15=109.75              H17-N1-H16=107.80              C3-C2-N1=108.35                C4-C2-N1=110.90                
C4-C2-C3=111.00                H18-C2-N1=108.24               H18-C2-C3=109.73               H18-C2-C4=108.58               
H19-C3-C2=109.67               H20-C3-C2=110.87               H20-C3-H19=108.59              H21-C3-C2=110.43               
H21-C3-H19=108.53              H21-C3-H20=108.69              C5-C4-C2=120.10                C7-C4-C2=120.31                
C7-C4-C5=119.57                C6-C5-C4=120.41                H22-C5-C4=119.83               H22-C5-C6=119.76               
C9-C6-C5=121.12                H23-C6-C5=120.21               H23-C6-C9=118.66               C8-C7-C4=121.31                
H24-C7-C4=120.52               H24-C7-C8=118.17               C9-C8-C7=118.91                C13-C8-C7=122.11               
C13-C8-C9=118.97               C8-C9-C6=118.68                C10-C9-C6=122.35               C10-C9-C8=118.98               
C11-C10-C9=120.69              H25-C10-C9=118.66              H25-C10-C11=120.65             

 selected dihedral angles (degree)
 ---------------------------------
C3-C2-N1-H15= 65.96           C3-C2-N1-H16=308.88           C3-C2-N1-H17=188.50           C4-C2-N1-H15=188.02           
C4-C2-N1-H16= 70.93           C4-C2-N1-H17=310.56           H18-C2-N1-H15=307.03          H18-C2-N1-H16=189.94          
H18-C2-N1-H17= 69.57          H19-C3-C2-N1= 55.05           H19-C3-C2-C4=293.05           H19-C3-C2-H18=173.04          
H20-C3-C2-N1=295.14           H20-C3-C2-C4=173.14           H20-C3-C2-H18= 53.13          H21-C3-C2-N1=174.61           
H21-C3-C2-C4= 52.62           H21-C3-C2-H18=292.60          C5-C4-C2-N1=309.44            C5-C4-C2-C3= 69.94            
C5-C4-C2-H18=190.64           C7-C4-C2-N1=131.34            C7-C4-C2-C3=251.84            C7-C4-C2-H18= 12.54           
C6-C5-C4-C2=181.73            C6-C5-C4-C7=359.85            H22-C5-C4-C2=  1.64           H22-C5-C4-C7=179.75           
C9-C6-C5-C4=  0.20            C9-C6-C5-H22=180.30           H23-C6-C5-C4=180.05           H23-C6-C5-H22=  0.14          
C8-C7-C4-C2=178.06            C8-C7-C4-C5=359.95            H24-C7-C4-C2=358.45           H24-C7-C4-C5=180.34           
C9-C8-C7-C4=  0.20            C9-C8-C7-H24=179.82           C13-C8-C7-C4=180.06           C13-C8-C7-H24=359.69          
C8-C9-C6-C5=359.95            C8-C9-C6-H23=180.10           C10-C9-C6-C5=179.88           C10-C9-C6-H23=  0.03          
C6-C9-C8-C7=359.86            C6-C9-C8-C13=179.99           C10-C9-C8-C7=179.92           C10-C9-C8-C13=  0.05          
C11-C10-C9-C6=180.07          C11-C10-C9-C8=  0.00          H25-C10-C9-C6=  0.05          H25-C10-C9-C8=179.98          

 CMA Distance (Angstroems)
 ---------------------------
R(CMA):  5.2680
           -------------------------------------------------
          |                Final Singlepoint                |
           -------------------------------------------------

          ...................................................
          :                      SETUP                      :
          :.................................................:
          :  # basis functions                  76          :
          :  # atomic orbitals                  75          :
          :  # shells                           43          :
          :  # electrons                        74          :
          :  max. iterations                   250          :
          :  Hamiltonian                  GFN2-xTB          :
          :  restarted?                      false          :
          :  GBSA solvation                   true          :
          :  PC potential                    false          :
          :  electronic temp.          300.0000000     K    :
          :  accuracy                    1.0000000          :
          :  -> integral cutoff          0.2500000E+02      :
          :  -> integral neglect         0.1000000E-07      :
          :  -> SCF convergence          0.1000000E-05 Eh   :
          :  -> wf. convergence          0.1000000E-03 e    :
          :  Broyden damping             0.4000000          :
          ...................................................

 iter      E             dE          RMSdq      gap      omega  full diag
   1    -40.9856890 -0.409857E+02  0.369E-04    3.23       0.0  T
   2    -40.9856890 -0.613809E-09  0.300E-04    3.23      62.9  T
   3    -40.9856890 -0.398984E-09  0.246E-04    3.23      76.7  T

   *** convergence criteria satisfied after 3 iterations ***

         #    Occupation            Energy/Eh            Energy/eV
      -------------------------------------------------------------
         1        2.0000           -1.0071740             -27.4066
       ...           ...                  ...                  ...
        31        2.0000           -0.4148606             -11.2889
        32        2.0000           -0.4102076             -11.1623
        33        2.0000           -0.4032957             -10.9742
        34        2.0000           -0.4006155             -10.9013
        35        2.0000           -0.3985468             -10.8450
        36        2.0000           -0.3952957             -10.7565
        37        2.0000           -0.3755227             -10.2185 (HOMO)
        38                         -0.2566391              -6.9835 (LUMO)
        39                         -0.2263761              -6.1600
        40                         -0.1858432              -5.0570
        41                         -0.1448993              -3.9429
        42                         -0.0560530              -1.5253
       ...                                ...                  ...
        75                          0.6993830              19.0312
      -------------------------------------------------------------
                  HL-Gap            0.1188836 Eh            3.2350 eV
             Fermi-level           -0.3160809 Eh           -8.6010 eV

 SCC (total)                   0 d,  0 h,  0 min,  0.016 sec
 SCC setup                      ...        0 min,  0.000 sec (  1.244%)
 Dispersion                     ...        0 min,  0.000 sec (  2.209%)
 classical contributions        ...        0 min,  0.000 sec (  0.261%)
 integral evaluation            ...        0 min,  0.001 sec (  6.732%)
 iterations                     ...        0 min,  0.011 sec ( 64.919%)
 molecular gradient             ...        0 min,  0.003 sec ( 20.755%)
 printout                       ...        0 min,  0.000 sec (  3.043%)

         :::::::::::::::::::::::::::::::::::::::::::::::::::::
         ::                     SUMMARY                     ::
         :::::::::::::::::::::::::::::::::::::::::::::::::::::
         :: total energy             -40.343623293887 Eh    ::
         :: total w/o Gsasa/hb       -40.335542009804 Eh    ::
         :: gradient norm              0.000447176441 Eh/a0 ::
         :: HOMO-LUMO gap              3.234987531074 eV    ::
         ::.................................................::
         :: SCC energy               -40.985689039458 Eh    ::
         :: -> isotropic ES            0.118536498245 Eh    ::
         :: -> anisotropic ES         -0.030434922332 Eh    ::
         :: -> anisotropic XC          0.012913663057 Eh    ::
         :: -> dispersion             -0.027006922321 Eh    ::
         :: -> Gsolv                  -0.070272767699 Eh    ::
         ::    -> Gelec               -0.062191483616 Eh    ::
         ::    -> Gsasa               -0.002199243872 Eh    ::
         ::    -> Ghb                 -0.006962799908 Eh    ::
         ::    -> Gshift               0.001080759698 Eh    ::
         :: repulsion energy           0.642028583557 Eh    ::
         :: add. restraining           0.000000000000 Eh    ::
         :: total charge               0.000000000000 e     ::
         :::::::::::::::::::::::::::::::::::::::::::::::::::::

           -------------------------------------------------
          |                Property Printout                |
           -------------------------------------------------

    * Orbital Energies and Occupations

         #    Occupation            Energy/Eh            Energy/eV
      -------------------------------------------------------------
         1        2.0000           -1.0071740             -27.4066
       ...           ...                  ...                  ...
        25        2.0000           -0.4629948             -12.5987
        26        2.0000           -0.4551135             -12.3843
        27        2.0000           -0.4480888             -12.1931
        28        2.0000           -0.4442380             -12.0883
        29        2.0000           -0.4326346             -11.7726
        30        2.0000           -0.4223911             -11.4938
        31        2.0000           -0.4148606             -11.2889
        32        2.0000           -0.4102076             -11.1623
        33        2.0000           -0.4032957             -10.9742
        34        2.0000           -0.4006155             -10.9013
        35        2.0000           -0.3985468             -10.8450
        36        2.0000           -0.3952957             -10.7565
        37        2.0000           -0.3755227             -10.2185 (HOMO)
        38                         -0.2566391              -6.9835 (LUMO)
        39                         -0.2263761              -6.1600
        40                         -0.1858432              -5.0570
        41                         -0.1448993              -3.9429
        42                         -0.0560530              -1.5253
        43                         -0.0219873              -0.5983
        44                          0.0745466               2.0285
        45                          0.0804104               2.1881
        46                          0.0970289               2.6403
        47                          0.1103465               3.0027
        48                          0.1142400               3.1086
       ...                                ...                  ...
        75                          0.6993830              19.0312
      -------------------------------------------------------------
                  HL-Gap            0.1188836 Eh            3.2350 eV
             Fermi-level           -0.3160809 Eh           -8.6010 eV

     #   Z          covCN         q      C6AA      α(0)
     1   7 N        3.486    -0.178    24.839     7.402
     2   6 C        3.787     0.033    20.033     6.375
     3   6 C        3.757    -0.136    23.179     6.864
     4   6 C        2.970     0.006    27.873     8.660
     5   6 C        2.918    -0.039    28.971     8.826
     6   6 C        2.917    -0.036    28.904     8.816
     7   6 C        2.923    -0.050    29.240     8.868
     8   6 C        2.986     0.012    27.746     8.641
     9   6 C        2.987     0.010    27.797     8.648
    10   6 C        2.918    -0.039    28.970     8.826
    11   6 C        2.916    -0.035    28.877     8.812
    12   6 C        2.916    -0.036    28.888     8.814
    13   6 C        2.918    -0.041    29.024     8.834
    14  17 Cl       0.036    -0.947   124.863    17.006
    15   1 H        0.859     0.302     0.708     1.319
    16   1 H        0.893     0.297     0.718     1.326
    17   1 H        0.859     0.297     0.723     1.332
    18   1 H        0.924     0.101     1.776     2.084
    19   1 H        0.925     0.064     2.151     2.294
    20   1 H        0.925     0.072     2.065     2.247
    21   1 H        0.925     0.069     2.094     2.263
    22   1 H        0.926     0.056     2.242     2.342
    23   1 H        0.926     0.024     2.670     2.555
    24   1 H        0.926     0.056     2.250     2.346
    25   1 H        0.926     0.028     2.610     2.527
    26   1 H        0.926     0.031     2.573     2.509
    27   1 H        0.926     0.035     2.515     2.480
    28   1 H        0.926     0.044     2.391     2.418

 Mol. C6AA /au·bohr⁶  :       9618.269702
 Mol. C8AA /au·bohr⁸  :     249646.338159
 Mol. α(0) /au        :        155.432295


Wiberg/Mayer (AO) data.
largest (>0.10) Wiberg bond orders for each atom

 ---------------------------------------------------------------------------
     #   Z sym  total        # sym  WBO       # sym  WBO       # sym  WBO
 ---------------------------------------------------------------------------
     1   7 N    3.639 --     2 C    0.946    17 H    0.897    15 H    0.893
                            16 H    0.831
     2   6 C    3.937 --     3 C    1.000     4 C    0.996    18 H    0.957
                             1 N    0.946
     3   6 C    3.983 --     2 C    1.000    19 H    0.980    20 H    0.980
                            21 H    0.980
     4   6 C    3.987 --     7 C    1.530     5 C    1.293     2 C    0.996
     5   6 C    3.990 --     6 C    1.564     4 C    1.293    22 H    0.961
     6   6 C    3.992 --     5 C    1.564     9 C    1.276    23 H    0.969
                             7 C    0.115
     7   6 C    3.989 --     4 C    1.530     8 C    1.280    24 H    0.963
                             6 C    0.115
     8   6 C    3.990 --     7 C    1.280    13 C    1.279     9 C    1.252
     9   6 C    3.990 --    10 C    1.281     6 C    1.276     8 C    1.252
    10   6 C    3.992 --    11 C    1.556     9 C    1.281    25 H    0.969
                            13 C    0.118
    11   6 C    3.990 --    10 C    1.556    12 C    1.321    26 H    0.971
    12   6 C    3.992 --    13 C    1.557    11 C    1.321    27 H    0.971
    13   6 C    3.989 --    12 C    1.557     8 C    1.279    28 H    0.967
                            10 C    0.118
    14  17 Cl   0.103
    15   1 H    0.908 --     1 N    0.893
    16   1 H    0.912 --     1 N    0.831
    17   1 H    0.912 --     1 N    0.897
    18   1 H    0.989 --     2 C    0.957
    19   1 H    0.996 --     3 C    0.980
    20   1 H    0.994 --     3 C    0.980
    21   1 H    0.995 --     3 C    0.980
    22   1 H    0.996 --     5 C    0.961
    23   1 H    0.999 --     6 C    0.969
    24   1 H    0.996 --     7 C    0.963
    25   1 H    0.999 --    10 C    0.969
    26   1 H    0.999 --    11 C    0.971
    27   1 H    0.998 --    12 C    0.971
    28   1 H    0.998 --    13 C    0.967
 ---------------------------------------------------------------------------

Topologies differ in total number of bonds
Writing topology from bond orders to xtbtopo.mol

molecular dipole:
                 x           y           z       tot (Debye)
 q only:        1.194       5.008      -2.256
   full:        0.877       4.235      -1.927      12.033
molecular quadrupole (traceless):
                xx          xy          yy          xz          yz          zz
 q only:       20.660       9.032     -21.987      -2.590      20.679       1.326
  q+dip:       10.050       9.458     -12.587      -6.646      17.484       2.537
   full:       13.440       8.302     -14.911      -4.322      17.089       1.471

           -------------------------------------------------
          |                Geometry Summary                 |
           -------------------------------------------------

      molecular mass/u    :      207.6996421
   center of mass at/Å    :        2.6971471      -1.3156876      -1.8496333
  moments of inertia/u·Å² :        0.3892423E+03   0.1782954E+04   0.2067829E+04
rotational constants/cm⁻¹ :        0.4330883E-01   0.9454889E-02   0.8152332E-02

 * 27 selected distances

     #   Z          #   Z                                           value/Å
     1   7 N        2   6 C                                       1.4864920
     2   6 C        3   6 C                                       1.5240844 (max)
     4   6 C        5   6 C                                       1.4099490
     5   6 C        6   6 C                                       1.3657253
     4   6 C        7   6 C                                       1.3707117
     7   6 C        8   6 C                                       1.4096584
     6   6 C        9   6 C                                       1.4111781
     8   6 C        9   6 C                                       1.4189503
     9   6 C       10   6 C                                       1.4102132
    10   6 C       11   6 C                                       1.3671073
    11   6 C       12   6 C                                       1.4042339
     8   6 C       13   6 C                                       1.4108207
    12   6 C       13   6 C                                       1.3667913
     1   7 N       15   1 H                                       1.0228940
     1   7 N       16   1 H                                       1.0519059
     1   7 N       17   1 H                                       1.0225135 (min)
     2   6 C       18   1 H                                       1.0940892
     3   6 C       19   1 H                                       1.0872234
     3   6 C       20   1 H                                       1.0856014
     3   6 C       21   1 H                                       1.0851606
     5   6 C       22   1 H                                       1.0793337
     6   6 C       23   1 H                                       1.0809490
     7   6 C       24   1 H                                       1.0802657
    10   6 C       25   1 H                                       1.0808682
    11   6 C       26   1 H                                       1.0800883
    12   6 C       27   1 H                                       1.0799112
    13   6 C       28   1 H                                       1.0800533

 * 4 distinct bonds (by element types)

   Z      Z             #   av. dist./Å        max./Å        min./Å
   1 H    6 C          11     1.0830495     1.0940892     1.0793337
   6 C    6 C          12     1.4057853     1.5240844     1.3657253
   1 H    7 N           3     1.0324378     1.0519059     1.0225135
   6 C    7 N           1     1.4864920     1.4864920     1.4864920


optimized geometry written to: xtbopt.xyz


           -------------------------------------------------
          | TOTAL ENERGY              -40.343623293887 Eh   |
          | GRADIENT NORM               0.000447176441 Eh/α |
          | HOMO-LUMO GAP               3.234987531074 eV   |
           -------------------------------------------------

------------------------------------------------------------------------
 * finished run on 2023/01/24 at 14:58:14.776     
------------------------------------------------------------------------
 total:
 * wall-time:     0 d,  0 h,  0 min,  0.959 sec
 *  cpu-time:     0 d,  0 h,  1 min, 34.543 sec
 * ratio c/w:    98.589 speedup
 SCF:
 * wall-time:     0 d,  0 h,  0 min,  0.077 sec
 *  cpu-time:     0 d,  0 h,  0 min, 10.708 sec
 * ratio c/w:   139.818 speedup
 ANC optimizer:
 * wall-time:     0 d,  0 h,  0 min,  0.867 sec
 *  cpu-time:     0 d,  0 h,  1 min, 21.893 sec
 * ratio c/w:    94.481 speedup

