25
 energy: -30.639254978346 gnorm: 0.000455129626 xtb: 6.5.1 (fef0646)
N            1.26025523274322       -0.13569450662023       -0.60156122243257
C            2.67509375495210       -0.30588093514181       -0.26721868052618
C            2.94616912240196       -1.55636956201895        0.57659337894873
C            2.60589743923179       -2.84800838375145       -0.17101884797958
C            3.00061426038255       -4.06170865193858        0.66606179200913
C            2.28267937719503       -4.03393339169918        2.01183106065308
C            2.59962057905542       -2.74124687836504        2.75725488890792
C            2.20974213869475       -1.52938452341305        1.91533371831188
Cl          -0.57130132991557        0.75414376924120        1.50148612537457
H            1.14487035031059        0.63447602506734       -1.25149412403572
H            0.33093022559610        0.29778267447804        0.56571262981921
H            0.89274563295888       -0.97598958159349       -1.03505127953389
H            2.97918885712972        0.58016695249840        0.29607351658957
H            3.29468909677261       -0.36030802204134       -1.17493139191492
H            4.02405857656678       -1.56076512653722        0.77856861151801
H            3.12682030347163       -2.87379507117381       -1.13204311732898
H            1.53121362150626       -2.89570121429585       -0.36174086957844
H            4.08075140038831       -4.05433008099751        0.82995940837453
H            2.75080607479945       -4.97879053265844        0.12814775710595
H            2.58401799378935       -4.89524664359352        2.61124619556175
H            1.20483362993371       -4.10029873248174        1.84809604148370
H            3.66903966591891       -2.70460348800948        2.97958852869047
H            2.06021005008199       -2.71832891026306        3.70561098008209
H            2.45112158339144       -0.61025305020176        2.45076758042688
H            1.13414236264747       -1.54039213448878        1.74318731947533
