 Entering Gaussian System
 *********************************************
 Gaussian 98:
 frequency output generated by the xtb code
 *********************************************
                         Standard orientation:
 --------------------------------------------------------------------
  Center     Atomic     Atomic              Coordinates (Angstroms)
  Number     Number      Type              X           Y           Z
 --------------------------------------------------------------------
    1          7             0       -2.398659    1.716514    0.639335
    2          6             0       -1.371901    2.004777   -0.397159
    3          6             0       -0.146545    1.158280   -0.244132
    4          6             0        1.108929    1.736994   -0.113807
    5          6             0        2.237955    0.954518    0.023661
    6          6             0        2.147978   -0.436061    0.033093
    7          6             0        3.328734   -1.292767    0.180381
    8          6             0        4.578536   -0.904784   -0.037204
    9          6             0        0.884144   -1.010285   -0.090601
   10          6             0       -0.242152   -0.224999   -0.228249
   11         17             0       -3.480328   -1.563922    0.021185
   12          1             0       -2.747324    0.748005    0.550168
   13          1             0       -3.215086    2.349798    0.570667
   14          1             0       -1.999635    1.814683    1.588324
   15          1             0       -1.093905    3.064255   -0.354142
   16          1             0       -1.795495    1.849817   -1.396427
   17          1             0        1.195984    2.811284   -0.119099
   18          1             0        3.200138    1.424644    0.138406
   19          1             0        3.144110   -2.313346    0.477263
   20          1             0        4.810560    0.091734   -0.359237
   21          1             0        5.407703   -1.576788    0.083504
   22          1             0        0.793799   -2.084304   -0.079869
   23          1             0       -1.212635   -0.685924   -0.314045
 --------------------------------------------------------------------
     1 basis functions        1 primitive gaussians
     1 alpha electrons        1 beta electrons

 Harmonic frequencies (cm**-1), IR intensities (km*mol⁻¹),
 Raman scattering activities (A**4/amu), Raman depolarization ratios,
 reduced masses (AMU), force constants (mDyne/A) and normal coordinates:
                      1                      2                      3
                        a                      a                      a 
 Frequencies --  -133.8406               -67.1377                49.0334
 Red. masses --    19.7296                 7.6302                12.8496
 Frc consts  --     0.0000                 0.0000                 0.0000
 IR Inten    --   131.9077                 0.6335                 1.7982
 Raman Activ --     0.0000                 0.0000                 0.0000
 Depolar     --     0.0000                 0.0000                 0.0000
 Atom AN      X      Y      Z        X      Y      Z        X      Y      Z
   1   7     0.21   0.58   0.16     0.01   0.02  -0.10     0.08   0.07   0.05
   2   6     0.08   0.13  -0.09     0.03   0.01  -0.07    -0.08  -0.15  -0.17
   3   6     0.01   0.06  -0.02     0.03   0.01  -0.01    -0.05  -0.09  -0.13
   4   6     0.03   0.02   0.03     0.01   0.01   0.15    -0.10  -0.05   0.25
   5   6     0.00  -0.01   0.04    -0.00   0.00   0.24    -0.09  -0.03   0.31
   6   6    -0.03  -0.00  -0.00    -0.02   0.01   0.19    -0.03  -0.03  -0.03
   7   6    -0.05  -0.03  -0.04     0.02   0.07   0.33    -0.00   0.00  -0.01
   8   6    -0.04  -0.02   0.03    -0.10  -0.06  -0.56    -0.01   0.10   0.14
   9   6    -0.05   0.03  -0.02     0.01  -0.00   0.04     0.03  -0.07  -0.39
  10   6    -0.03   0.06  -0.02     0.02   0.01  -0.08     0.02  -0.09  -0.44
  11  17    -0.12  -0.60  -0.07     0.00  -0.05  -0.03     0.14   0.20   0.26
  12   1     0.05   0.17   0.14     0.00   0.01  -0.03     0.03   0.01   0.10
  13   1     0.06   0.16   0.02     0.00   0.01  -0.03     0.01   0.00  -0.00
  14   1     0.09   0.23   0.02    -0.00   0.01  -0.02     0.06   0.09  -0.01
  15   1     0.05   0.03  -0.12     0.01   0.00  -0.02    -0.03  -0.04  -0.13
  16   1    -0.03  -0.03   0.01     0.02  -0.00  -0.02    -0.06  -0.11  -0.02
  17   1     0.02   0.01   0.02     0.00   0.00   0.06    -0.04  -0.01   0.15
  18   1     0.00  -0.01   0.02    -0.00  -0.01   0.12    -0.04  -0.00   0.18
  19   1    -0.02  -0.02  -0.04     0.04   0.09   0.36     0.01  -0.01  -0.04
  20   1    -0.00   0.00   0.04    -0.10  -0.09  -0.46    -0.01   0.04   0.08
  21   1    -0.01  -0.01  -0.00    -0.00   0.03  -0.12     0.01   0.04   0.04
  22   1    -0.02   0.01  -0.01     0.00  -0.00   0.00     0.02  -0.02  -0.18
  23   1    -0.01   0.02  -0.01     0.01   0.00  -0.06     0.01  -0.03  -0.19
                      4                      5                      6
                        a                      a                      a 
 Frequencies --    77.1168               103.8537               121.7173
 Red. masses --    23.0120                14.1967                14.3965
 Frc consts  --     0.0000                 0.0000                 0.0000
 IR Inten    --    24.3649                15.5441                17.9264
 Raman Activ --     0.0000                 0.0000                 0.0000
 Depolar     --     0.0000                 0.0000                 0.0000
 Atom AN      X      Y      Z        X      Y      Z        X      Y      Z
   1   7    -0.03  -0.05   0.01     0.14  -0.23   0.19     0.20   0.11   0.44
   2   6    -0.03   0.19   0.08     0.04   0.10   0.17    -0.13  -0.18   0.02
   3   6    -0.05   0.14  -0.05     0.07   0.09  -0.15    -0.10  -0.16  -0.10
   4   6    -0.01   0.06  -0.08     0.08   0.07  -0.18    -0.12  -0.09  -0.25
   5   6    -0.06  -0.02  -0.07     0.07   0.06  -0.16    -0.09  -0.03  -0.18
   6   6    -0.16  -0.01  -0.03     0.04   0.06  -0.08    -0.04  -0.03   0.04
   7   6    -0.24  -0.10   0.10    -0.00   0.06   0.31     0.02   0.08   0.20
   8   6    -0.20  -0.24   0.08     0.02  -0.08   0.21    -0.03   0.13   0.01
   9   6    -0.19   0.07  -0.07     0.05   0.07  -0.27    -0.02  -0.10   0.11
  10   6    -0.13   0.15  -0.09     0.07   0.09  -0.31    -0.05  -0.16   0.05
  11  17     0.70  -0.11   0.05    -0.39  -0.15   0.08     0.20   0.25  -0.28
  12   1     0.06  -0.04  -0.02     0.02  -0.05  -0.02    -0.02   0.06   0.13
  13   1    -0.04  -0.06   0.00     0.04  -0.05   0.12     0.09   0.08   0.19
  14   1    -0.02  -0.01   0.01     0.06  -0.14   0.05     0.15   0.00   0.08
  15   1    -0.01   0.05   0.09     0.01   0.03   0.13    -0.02  -0.05  -0.10
  16   1    -0.00   0.11   0.01    -0.01   0.11   0.05    -0.13  -0.13   0.06
  17   1     0.02   0.02  -0.02     0.03   0.02  -0.05    -0.05  -0.03  -0.11
  18   1    -0.01  -0.02  -0.02     0.02   0.01  -0.03    -0.03   0.01  -0.08
  19   1    -0.10  -0.01   0.07    -0.02   0.06   0.23     0.03   0.04   0.14
  20   1    -0.03  -0.09  -0.01     0.02  -0.07  -0.08    -0.04   0.02  -0.09
  21   1    -0.08  -0.09   0.06    -0.00  -0.01   0.17     0.01   0.07   0.04
  22   1    -0.08   0.02  -0.02     0.01   0.02  -0.09     0.01  -0.03   0.06
  23   1    -0.04   0.05  -0.03     0.02   0.03  -0.11    -0.01  -0.05   0.03
                      7                      8                      9
                        a                      a                      a 
 Frequencies --   192.0054               215.5339               297.3265
 Red. masses --     9.2151                 9.3265                 3.7563
 Frc consts  --     0.0000                 0.0000                 0.0000
 IR Inten    --     7.7208                 7.1943                 2.3957
 Raman Activ --     0.0000                 0.0000                 0.0000
 Depolar     --     0.0000                 0.0000                 0.0000
 Atom AN      X      Y      Z        X      Y      Z        X      Y      Z
   1   7    -0.23   0.25  -0.13    -0.33   0.21   0.04     0.08  -0.14   0.08
   2   6     0.15   0.19   0.24    -0.16  -0.15   0.07    -0.03  -0.10  -0.01
   3   6    -0.04  -0.12   0.15    -0.09  -0.05   0.22     0.11   0.12   0.10
   4   6     0.01  -0.18  -0.00    -0.11   0.04   0.08     0.15   0.04   0.00
   5   6    -0.02  -0.21  -0.16     0.03   0.16  -0.17     0.06  -0.10  -0.10
   6   6    -0.03  -0.20  -0.17     0.16   0.15  -0.17    -0.05  -0.09  -0.07
   7   6     0.12   0.03   0.11     0.06   0.03   0.09    -0.03  -0.02   0.04
   8   6     0.02   0.34   0.07     0.18  -0.42   0.04    -0.09   0.16   0.02
   9   6    -0.04  -0.17  -0.20     0.19   0.06  -0.15    -0.09  -0.01  -0.01
  10   6    -0.06  -0.13  -0.01     0.09  -0.07   0.03     0.01   0.12   0.07
  11  17     0.07   0.02   0.05     0.04   0.04  -0.04    -0.08   0.05  -0.06
  12   1    -0.06   0.07  -0.06    -0.04   0.04   0.10     0.37  -0.19   0.30
  13   1    -0.04   0.08  -0.11    -0.10   0.02  -0.11    -0.20  -0.36  -0.26
  14   1    -0.15   0.06   0.01    -0.14   0.19   0.02    -0.09   0.43   0.02
  15   1     0.13   0.03   0.18    -0.05  -0.04  -0.06    -0.09  -0.01  -0.09
  16   1     0.10   0.19   0.02    -0.03  -0.13   0.03    -0.01  -0.15   0.01
  17   1     0.01  -0.05   0.01    -0.06   0.01   0.04     0.07   0.01   0.00
  18   1    -0.00  -0.06  -0.05     0.00   0.07  -0.09     0.03  -0.06  -0.04
  19   1     0.11   0.03   0.15    -0.06   0.05   0.13     0.03   0.00   0.06
  20   1    -0.08   0.07  -0.11     0.14  -0.17  -0.09    -0.07   0.04  -0.05
  21   1     0.07   0.19   0.13    -0.01  -0.18   0.10     0.01   0.10   0.05
  22   1    -0.02  -0.05  -0.08     0.09   0.01  -0.07    -0.06  -0.00  -0.02
  23   1    -0.02  -0.03   0.02     0.04  -0.05   0.01    -0.01   0.06   0.00
                     10                     11                     12
                        a                      a                      a 
 Frequencies --   319.5192               364.1749               374.9720
 Red. masses --     7.4285                 8.8518                 9.0423
 Frc consts  --     0.0000                 0.0000                 0.0000
 IR Inten    --     1.2259                 2.5462                 0.9260
 Raman Activ --     0.0000                 0.0000                 0.0000
 Depolar     --     0.0000                 0.0000                 0.0000
 Atom AN      X      Y      Z        X      Y      Z        X      Y      Z
   1   7    -0.12   0.08   0.08     0.21  -0.04  -0.06     0.31  -0.07  -0.09
   2   6     0.00   0.17   0.20     0.13   0.10  -0.03     0.21   0.10  -0.02
   3   6    -0.10  -0.11  -0.23    -0.06  -0.13  -0.07    -0.07  -0.21  -0.03
   4   6    -0.09  -0.09  -0.27    -0.17  -0.03   0.43    -0.16  -0.04  -0.11
   5   6    -0.04   0.05   0.11    -0.04   0.07  -0.32    -0.10   0.17   0.23
   6   6     0.07   0.04   0.38    -0.03   0.08  -0.14    -0.04   0.17  -0.19
   7   6     0.09  -0.02   0.03    -0.03   0.12  -0.06    -0.10   0.16  -0.05
   8   6     0.08  -0.07  -0.10     0.04  -0.03   0.03    -0.02  -0.08   0.03
   9   6     0.11  -0.00   0.12    -0.05  -0.02   0.38     0.05  -0.02  -0.22
  10   6     0.04  -0.13  -0.26    -0.05  -0.13  -0.25    -0.14  -0.20   0.38
  11  17    -0.02   0.03  -0.01    -0.02   0.01   0.00    -0.02   0.02  -0.01
  12   1     0.15  -0.05   0.12     0.13  -0.04   0.01     0.20  -0.06   0.02
  13   1    -0.14  -0.13  -0.14     0.00  -0.08  -0.03     0.00  -0.13  -0.06
  14   1    -0.14   0.23   0.04     0.05   0.04  -0.02     0.06   0.08  -0.03
  15   1     0.08   0.02   0.19     0.09   0.01   0.07     0.13   0.01   0.09
  16   1    -0.02   0.22   0.04     0.04   0.12  -0.02     0.06   0.15  -0.03
  17   1    -0.04  -0.03  -0.14    -0.10  -0.00   0.29    -0.11  -0.01  -0.07
  18   1    -0.03   0.05   0.03    -0.00   0.03  -0.19    -0.05   0.06   0.17
  19   1     0.01  -0.05  -0.16    -0.03   0.05   0.04    -0.07   0.07   0.05
  20   1     0.05   0.03   0.16     0.06  -0.04  -0.04     0.05  -0.06  -0.06
  21   1     0.00  -0.08  -0.22    -0.02  -0.03   0.08    -0.05  -0.06   0.10
  22   1     0.05  -0.00   0.05     0.00  -0.01   0.26     0.08  -0.01  -0.11
  23   1     0.03  -0.07  -0.12    -0.00  -0.05  -0.15    -0.04  -0.08   0.22
                     13                     14                     15
                        a                      a                      a 
 Frequencies --   399.3681               486.1603               521.8926
 Red. masses --     9.8035                 8.9586                 9.2054
 Frc consts  --     0.0000                 0.0000                 0.0000
 IR Inten    --     2.7165                 8.9645                 5.1318
 Raman Activ --     0.0000                 0.0000                 0.0000
 Depolar     --     0.0000                 0.0000                 0.0000
 Atom AN      X      Y      Z        X      Y      Z        X      Y      Z
   1   7     0.02   0.03  -0.06     0.20  -0.05  -0.10     0.11  -0.02  -0.04
   2   6     0.24  -0.22   0.11     0.04   0.09  -0.10    -0.15   0.22  -0.15
   3   6     0.17  -0.18   0.28    -0.11   0.05   0.45    -0.25   0.04   0.08
   4   6     0.08   0.06  -0.02    -0.10   0.01   0.01    -0.18  -0.14   0.14
   5   6     0.15   0.19  -0.16    -0.16  -0.08  -0.16     0.02   0.02  -0.18
   6   6    -0.07   0.21   0.16    -0.14  -0.06   0.33     0.29  -0.02   0.04
   7   6    -0.34   0.01   0.07     0.16   0.20   0.11     0.04  -0.42   0.17
   8   6    -0.41   0.09  -0.02     0.24  -0.05  -0.06    -0.16   0.03  -0.00
   9   6     0.10  -0.04  -0.08    -0.14  -0.05  -0.18     0.24   0.21  -0.13
  10   6     0.08  -0.17  -0.12    -0.13   0.04  -0.03     0.05   0.02   0.13
  11  17     0.01  -0.00   0.01    -0.01  -0.00   0.01    -0.01   0.00   0.00
  12   1    -0.06   0.03  -0.02     0.09  -0.02  -0.05     0.10  -0.03  -0.03
  13   1     0.05   0.07  -0.07     0.02  -0.04   0.05    -0.03  -0.07   0.09
  14   1    -0.04  -0.01   0.00     0.11  -0.05  -0.05     0.11  -0.02  -0.04
  15   1     0.08  -0.07   0.00    -0.01   0.03  -0.07    -0.03   0.06  -0.03
  16   1     0.11  -0.10   0.02     0.06  -0.05  -0.04    -0.04   0.08  -0.05
  17   1    -0.04   0.02  -0.06     0.00  -0.00  -0.14    -0.04  -0.04   0.05
  18   1     0.05   0.05  -0.13    -0.02  -0.04  -0.23    -0.04   0.12  -0.10
  19   1    -0.13  -0.02  -0.09     0.07   0.02  -0.07    -0.00  -0.13   0.00
  20   1    -0.16   0.07   0.11     0.19  -0.00   0.10    -0.27   0.08   0.06
  21   1    -0.10   0.03  -0.14    -0.01  -0.14  -0.14     0.09   0.16  -0.12
  22   1     0.11  -0.02  -0.07    -0.05  -0.02  -0.22     0.06   0.06  -0.07
  23   1     0.02  -0.03  -0.09    -0.03   0.02  -0.13     0.06  -0.08   0.04
                     16                     17                     18
                        a                      a                      a 
 Frequencies --   604.1603               622.0728               702.0189
 Red. masses --    10.5034                 8.4984                 8.9933
 Frc consts  --     0.0000                 0.0000                 0.0000
 IR Inten    --     1.7987                 5.0173                 0.4398
 Raman Activ --     0.0000                 0.0000                 0.0000
 Depolar     --     0.0000                 0.0000                 0.0000
 Atom AN      X      Y      Z        X      Y      Z        X      Y      Z
   1   7    -0.01  -0.02   0.01     0.07   0.01  -0.04    -0.08   0.01   0.05
   2   6    -0.00  -0.03  -0.01     0.00   0.06  -0.00    -0.09   0.04  -0.07
   3   6    -0.09  -0.10   0.16    -0.07   0.05   0.33     0.04  -0.01  -0.35
   4   6     0.12  -0.39  -0.09    -0.12   0.18  -0.21     0.05  -0.03   0.27
   5   6     0.39   0.04   0.15    -0.25   0.04   0.20     0.12  -0.00  -0.14
   6   6     0.07   0.11   0.05     0.03  -0.03   0.01    -0.08   0.03   0.49
   7   6     0.02  -0.03  -0.18    -0.03  -0.20  -0.35    -0.10   0.03  -0.32
   8   6     0.05   0.04   0.04    -0.03  -0.01   0.10    -0.04   0.05   0.08
   9   6    -0.14   0.42   0.09     0.11  -0.13   0.24     0.07  -0.09  -0.14
  10   6    -0.42  -0.03  -0.16     0.25  -0.01  -0.18     0.07  -0.03   0.25
  11  17     0.00   0.00   0.00    -0.00  -0.00   0.00     0.00   0.00  -0.00
  12   1    -0.00  -0.01  -0.00     0.05  -0.01  -0.03    -0.01  -0.00   0.03
  13   1    -0.00  -0.01   0.01    -0.00  -0.02   0.03    -0.02  -0.00   0.02
  14   1     0.00  -0.01   0.00     0.04  -0.01  -0.02     0.00   0.02   0.00
  15   1    -0.02  -0.00  -0.05     0.01   0.02  -0.01     0.00   0.00   0.05
  16   1     0.01  -0.07   0.00     0.03   0.00  -0.01    -0.08   0.10  -0.01
  17   1    -0.01  -0.10  -0.11    -0.01   0.05  -0.21     0.04  -0.01  -0.07
  18   1     0.09   0.06  -0.02    -0.06   0.02  -0.05     0.07  -0.03  -0.25
  19   1     0.02   0.02   0.06    -0.01   0.01   0.12     0.01   0.05   0.08
  20   1     0.01  -0.04  -0.14    -0.10  -0.07  -0.25     0.05  -0.08  -0.21
  21   1     0.02   0.05   0.16     0.05   0.13   0.31    -0.05   0.00   0.23
  22   1     0.01   0.11  -0.03     0.03  -0.04  -0.04     0.06  -0.03  -0.24
  23   1    -0.10  -0.05  -0.11     0.09  -0.01  -0.19     0.03  -0.01  -0.03
                     19                     20                     21
                        a                      a                      a 
 Frequencies --   723.4869               812.2713               839.5735
 Red. masses --     9.4260                 5.1507                 2.9058
 Frc consts  --     0.0000                 0.0000                 0.0000
 IR Inten    --     5.3479                13.3596                44.9490
 Raman Activ --     0.0000                 0.0000                 0.0000
 Depolar     --     0.0000                 0.0000                 0.0000
 Atom AN      X      Y      Z        X      Y      Z        X      Y      Z
   1   7     0.08  -0.03  -0.03    -0.04  -0.03   0.02     0.05   0.09   0.08
   2   6     0.26  -0.30   0.15    -0.02  -0.09  -0.07     0.15   0.18   0.16
   3   6     0.10  -0.05  -0.17     0.04  -0.01  -0.13     0.03  -0.00  -0.17
   4   6    -0.15   0.28   0.04     0.01   0.03   0.23    -0.06  -0.02   0.12
   5   6    -0.22   0.12  -0.09    -0.01   0.00   0.26    -0.06   0.00   0.11
   6   6     0.00  -0.01   0.17     0.03  -0.01  -0.36     0.01   0.01  -0.06
   7   6     0.20  -0.33  -0.04     0.03   0.02   0.20     0.01  -0.00   0.03
   8   6     0.17  -0.06   0.02    -0.01  -0.03  -0.08    -0.00  -0.01  -0.02
   9   6    -0.16   0.21  -0.09    -0.04   0.02   0.18     0.02  -0.02  -0.02
  10   6    -0.25   0.08   0.04    -0.03   0.02   0.07    -0.02  -0.05  -0.00
  11  17     0.00  -0.00  -0.00     0.00   0.00  -0.00    -0.01  -0.00   0.01
  12   1    -0.10   0.03   0.05    -0.09   0.01   0.13     0.21  -0.01  -0.41
  13   1     0.11   0.09  -0.17     0.04   0.05  -0.01    -0.08  -0.11  -0.09
  14   1    -0.09   0.05   0.03     0.05   0.07  -0.03    -0.33  -0.21   0.19
  15   1     0.09  -0.09   0.07     0.04  -0.04   0.15    -0.03   0.08  -0.37
  16   1     0.07  -0.05   0.04    -0.01   0.15  -0.04    -0.12  -0.34   0.17
  17   1    -0.09   0.08   0.02     0.06   0.00  -0.47    -0.00  -0.01  -0.20
  18   1    -0.07   0.07  -0.03     0.05   0.00  -0.42     0.00   0.02  -0.21
  19   1     0.07  -0.08   0.06    -0.02  -0.02  -0.04    -0.01  -0.00  -0.01
  20   1    -0.13   0.01  -0.05    -0.03   0.05   0.14    -0.01   0.01   0.03
  21   1     0.17   0.14   0.02     0.03   0.03  -0.04     0.01   0.01  -0.00
  22   1    -0.07   0.06  -0.04     0.02  -0.00  -0.25     0.01  -0.01   0.04
  23   1    -0.09   0.06   0.03     0.00   0.03  -0.21     0.01  -0.04   0.03
                     22                     23                     24
                        a                      a                      a 
 Frequencies --   844.5749               878.4775               884.2350
 Red. masses --     9.7298                 3.2972                 3.8253
 Frc consts  --     0.0000                 0.0000                 0.0000
 IR Inten    --     7.3793                 6.0401                12.7447
 Raman Activ --     0.0000                 0.0000                 0.0000
 Depolar     --     0.0000                 0.0000                 0.0000
 Atom AN      X      Y      Z        X      Y      Z        X      Y      Z
   1   7    -0.14   0.04   0.06     0.00   0.02   0.01     0.00  -0.00   0.00
   2   6    -0.13   0.20  -0.14     0.04   0.03   0.03     0.00  -0.02   0.00
   3   6     0.12  -0.09   0.05     0.01  -0.01  -0.08    -0.00   0.00  -0.00
   4   6     0.16   0.34   0.01     0.01  -0.02  -0.17    -0.01  -0.01   0.05
   5   6     0.25   0.28   0.01    -0.00  -0.00  -0.11    -0.02  -0.02   0.03
   6   6    -0.12   0.08  -0.03     0.02   0.00  -0.09     0.01  -0.00  -0.08
   7   6     0.13  -0.19   0.04     0.00   0.01   0.01    -0.01  -0.04  -0.17
   8   6     0.14  -0.06   0.03     0.01  -0.00   0.04     0.04   0.12   0.44
   9   6    -0.15  -0.35  -0.01    -0.04   0.01   0.34    -0.00   0.01  -0.00
  10   6    -0.25  -0.28  -0.02    -0.02   0.00   0.18     0.01   0.01  -0.01
  11  17    -0.00   0.00   0.00     0.00  -0.00   0.01     0.00   0.00  -0.00
  12   1     0.09  -0.03  -0.03     0.03  -0.00  -0.07    -0.00   0.00   0.01
  13   1    -0.13  -0.09   0.18    -0.01  -0.01  -0.03     0.01   0.01  -0.01
  14   1     0.08  -0.04  -0.03    -0.09  -0.06   0.05     0.00   0.01  -0.00
  15   1    -0.05   0.06  -0.04     0.01   0.01  -0.08     0.01  -0.01   0.02
  16   1    -0.04   0.05  -0.04    -0.04  -0.05   0.04     0.00   0.01  -0.00
  17   1    -0.05   0.11  -0.00    -0.04   0.00   0.34     0.02  -0.01  -0.13
  18   1     0.10   0.01   0.04    -0.03   0.00   0.21     0.00  -0.01  -0.02
  19   1     0.04  -0.05   0.02    -0.01   0.01   0.04     0.01   0.07   0.23
  20   1    -0.13   0.02   0.00    -0.02   0.01   0.02    -0.04  -0.10  -0.33
  21   1     0.16   0.11  -0.08     0.00  -0.02  -0.11    -0.06  -0.21  -0.71
  22   1     0.05  -0.11   0.02     0.08  -0.01  -0.66    -0.01   0.01   0.04
  23   1    -0.11  -0.00  -0.02     0.03   0.00  -0.38     0.00   0.00   0.02
                     25                     26                     27
                        a                      a                      a 
 Frequencies --   903.2270               940.2881               978.0521
 Red. masses --     3.3802                 3.5123                 8.3620
 Frc consts  --     0.0000                 0.0000                 0.0000
 IR Inten    --     0.2433                 5.6555                51.8160
 Raman Activ --     0.0000                 0.0000                 0.0000
 Depolar     --     0.0000                 0.0000                 0.0000
 Atom AN      X      Y      Z        X      Y      Z        X      Y      Z
   1   7    -0.00  -0.00  -0.01     0.00   0.01   0.00     0.35  -0.07  -0.23
   2   6    -0.01  -0.00  -0.00    -0.00  -0.02   0.01    -0.30   0.04   0.28
   3   6     0.01  -0.00  -0.01    -0.00  -0.01  -0.01    -0.14   0.12  -0.01
   4   6     0.05  -0.00  -0.29    -0.00  -0.03  -0.09    -0.05  -0.16   0.01
   5   6    -0.03   0.01   0.35     0.01   0.02   0.07     0.23   0.16   0.02
   6   6    -0.01   0.00   0.00    -0.00   0.01  -0.02    -0.10   0.08  -0.00
   7   6     0.00  -0.02   0.00     0.00   0.00   0.00     0.01   0.01  -0.02
   8   6    -0.01   0.02   0.02     0.01  -0.00   0.01     0.07  -0.08   0.01
   9   6     0.00  -0.01  -0.05     0.02  -0.02  -0.26    -0.09  -0.30   0.00
  10   6    -0.01  -0.00  -0.01    -0.02   0.02   0.37     0.09   0.06  -0.00
  11  17    -0.00   0.00  -0.00     0.00   0.00   0.01     0.00  -0.00  -0.00
  12   1    -0.00  -0.00   0.01     0.01   0.00  -0.02    -0.14   0.05   0.03
  13   1    -0.00  -0.00   0.01     0.01   0.01  -0.01     0.25   0.16  -0.32
  14   1     0.02   0.01  -0.01    -0.02  -0.02   0.01    -0.07   0.09   0.00
  15   1    -0.00  -0.00   0.00     0.02  -0.01  -0.00    -0.20   0.05   0.04
  16   1     0.01   0.01  -0.01    -0.02   0.01   0.01    -0.13  -0.04   0.10
  17   1    -0.06   0.01   0.56    -0.02  -0.01   0.08    -0.07  -0.03  -0.02
  18   1     0.08   0.01  -0.65     0.00   0.01  -0.03     0.04   0.09  -0.00
  19   1     0.01  -0.00   0.02    -0.00  -0.00  -0.01    -0.04   0.02   0.03
  20   1     0.00  -0.01  -0.02    -0.01  -0.00  -0.01    -0.11   0.02   0.03
  21   1    -0.00  -0.01  -0.05     0.01   0.00  -0.01     0.11   0.09  -0.04
  22   1     0.00  -0.00  -0.01    -0.06   0.01   0.45    -0.05  -0.08  -0.01
  23   1    -0.02   0.00   0.15     0.06   0.03  -0.74    -0.00   0.06   0.03
                     28                     29                     30
                        a                      a                      a 
 Frequencies --   997.9216              1008.4110              1022.2252
 Red. masses --     2.0184                 7.6428                 5.8992
 Frc consts  --     0.0000                 0.0000                 0.0000
 IR Inten    --    17.4771                 5.3160                13.0869
 Raman Activ --     0.0000                 0.0000                 0.0000
 Depolar     --     0.0000                 0.0000                 0.0000
 Atom AN      X      Y      Z        X      Y      Z        X      Y      Z
   1   7    -0.03  -0.01   0.03     0.20   0.10  -0.21    -0.06  -0.28   0.10
   2   6     0.03   0.01  -0.04    -0.32  -0.07   0.23     0.21   0.41  -0.08
   3   6     0.01   0.00   0.01     0.01  -0.06  -0.00     0.05   0.05  -0.02
   4   6     0.00  -0.02  -0.00     0.09   0.31   0.01    -0.01   0.07  -0.00
   5   6    -0.01  -0.01   0.01     0.00  -0.03   0.01    -0.11  -0.07  -0.01
   6   6    -0.02   0.02   0.02     0.11  -0.13  -0.03     0.09  -0.01  -0.00
   7   6    -0.01  -0.08  -0.25     0.01  -0.19   0.05    -0.01  -0.03   0.01
   8   6    -0.03  -0.03  -0.13    -0.16   0.22  -0.05    -0.06   0.05  -0.00
   9   6     0.01   0.00  -0.02     0.09   0.12   0.02     0.10   0.00   0.00
  10   6     0.01   0.01  -0.00    -0.17  -0.16  -0.00    -0.16  -0.21   0.01
  11  17    -0.00   0.00  -0.00    -0.00   0.00   0.00     0.01   0.00  -0.01
  12   1    -0.01  -0.00   0.01     0.08   0.02  -0.10    -0.33   0.01   0.29
  13   1    -0.01  -0.01   0.01     0.04   0.01  -0.06     0.17   0.16  -0.15
  14   1    -0.00   0.00   0.01     0.03  -0.01  -0.04    -0.04   0.14   0.02
  15   1     0.01   0.00  -0.00    -0.06  -0.02   0.06    -0.32   0.21  -0.13
  16   1     0.01   0.00  -0.01    -0.13   0.04   0.07     0.13  -0.18  -0.01
  17   1     0.01  -0.01  -0.01     0.04   0.09  -0.01     0.03   0.02  -0.00
  18   1    -0.02   0.02   0.00     0.05  -0.11   0.01    -0.03  -0.02  -0.01
  19   1     0.05   0.20   0.71     0.24  -0.09   0.04     0.04  -0.02  -0.01
  20   1     0.07   0.17   0.56     0.33  -0.03   0.01     0.07  -0.02  -0.03
  21   1    -0.01  -0.02  -0.05    -0.28  -0.22   0.08    -0.08  -0.06   0.02
  22   1     0.02  -0.00   0.04     0.11   0.02   0.00     0.18  -0.02   0.04
  23   1    -0.00   0.01   0.00    -0.01  -0.12  -0.04    -0.03  -0.09  -0.04
                     31                     32                     33
                        a                      a                      a 
 Frequencies --  1033.1403              1045.7003              1151.6592
 Red. masses --     6.7748                 5.0176                 2.8160
 Frc consts  --     0.0000                 0.0000                 0.0000
 IR Inten    --     5.7174                11.6840                 0.0694
 Raman Activ --     0.0000                 0.0000                 0.0000
 Depolar     --     0.0000                 0.0000                 0.0000
 Atom AN      X      Y      Z        X      Y      Z        X      Y      Z
   1   7    -0.03  -0.09   0.24    -0.14   0.06  -0.19    -0.01  -0.04   0.01
   2   6     0.17  -0.00  -0.31     0.12   0.03   0.32     0.03   0.08  -0.00
   3   6    -0.13   0.03   0.09     0.06  -0.00  -0.18    -0.08  -0.13  -0.01
   4   6    -0.11  -0.06  -0.02    -0.15  -0.16   0.01    -0.04   0.14  -0.01
   5   6     0.20   0.25   0.01     0.06   0.16   0.02     0.14  -0.00   0.02
   6   6    -0.01  -0.06  -0.04     0.01  -0.01  -0.03    -0.13  -0.08  -0.01
   7   6     0.04  -0.22   0.07     0.03  -0.12   0.03    -0.01   0.02  -0.00
   8   6    -0.09   0.17  -0.04    -0.04   0.09  -0.02     0.03  -0.02  -0.00
   9   6    -0.10  -0.17  -0.00    -0.08  -0.11   0.01    -0.00   0.19  -0.01
  10   6     0.11   0.15  -0.01     0.10   0.12   0.03     0.17  -0.01   0.02
  11  17     0.00  -0.00   0.00    -0.00   0.00  -0.00    -0.00   0.00  -0.00
  12   1    -0.08   0.01  -0.02     0.07  -0.04   0.11    -0.03  -0.00   0.03
  13   1     0.05   0.02  -0.14    -0.12  -0.05   0.29     0.03   0.03  -0.01
  14   1    -0.23  -0.03   0.15     0.33   0.04  -0.20     0.00   0.02  -0.00
  15   1     0.16  -0.03   0.00    -0.15   0.06  -0.08    -0.05   0.04  -0.03
  16   1    -0.09   0.13  -0.04     0.32  -0.27   0.01     0.03  -0.03  -0.00
  17   1    -0.19   0.00  -0.01    -0.21  -0.03  -0.06    -0.43   0.08  -0.04
  18   1     0.01   0.16   0.02    -0.05   0.18  -0.02     0.26  -0.45   0.02
  19   1     0.25  -0.11  -0.01     0.13  -0.05   0.01    -0.04   0.02   0.02
  20   1     0.26  -0.04  -0.04     0.13  -0.02  -0.01    -0.00   0.01   0.03
  21   1    -0.20  -0.17   0.06    -0.11  -0.09   0.03     0.07   0.06  -0.03
  22   1    -0.17  -0.04  -0.02    -0.14  -0.02  -0.04    -0.39   0.09  -0.04
  23   1    -0.01   0.12   0.03    -0.01   0.11  -0.02     0.23  -0.37   0.01
                     34                     35                     36
                        a                      a                      a 
 Frequencies --  1190.3432              1207.9044              1220.0327
 Red. masses --     3.9759                 3.7313                 2.8849
 Frc consts  --     0.0000                 0.0000                 0.0000
 IR Inten    --     0.6185                 4.7951                 9.3357
 Raman Activ --     0.0000                 0.0000                 0.0000
 Depolar     --     0.0000                 0.0000                 0.0000
 Atom AN      X      Y      Z        X      Y      Z        X      Y      Z
   1   7    -0.01   0.00   0.00    -0.10  -0.12  -0.11     0.08   0.12   0.16
   2   6     0.05  -0.04   0.02     0.18   0.03   0.12    -0.05  -0.15  -0.07
   3   6    -0.11   0.08  -0.02    -0.28   0.09  -0.03    -0.09   0.16  -0.07
   4   6    -0.08  -0.12  -0.01     0.04   0.04   0.00     0.02  -0.02   0.00
   5   6    -0.01  -0.01  -0.00     0.04   0.13   0.00     0.02   0.06   0.00
   6   6    -0.36   0.18  -0.06    -0.17   0.07  -0.03    -0.16   0.07  -0.03
   7   6     0.03  -0.13   0.04     0.01  -0.06   0.02     0.00  -0.04   0.01
   8   6     0.03  -0.03   0.01     0.02  -0.01   0.00     0.02  -0.02   0.00
   9   6     0.05   0.05   0.01    -0.05  -0.03  -0.00    -0.08  -0.02  -0.00
  10   6     0.08   0.16   0.01     0.03  -0.01   0.00     0.01  -0.04   0.01
  11  17     0.00  -0.00  -0.00     0.00   0.00  -0.00    -0.00   0.00   0.00
  12   1     0.00  -0.00   0.01    -0.06  -0.04   0.15     0.09   0.03  -0.16
  13   1    -0.01  -0.01   0.02     0.02   0.05   0.07    -0.00  -0.02  -0.08
  14   1     0.01  -0.00  -0.01     0.13   0.07  -0.10    -0.10  -0.06   0.10
  15   1     0.06  -0.02  -0.02     0.36  -0.07  -0.21    -0.26   0.02   0.23
  16   1     0.04  -0.03  -0.01    -0.23  -0.08   0.17     0.51  -0.04  -0.24
  17   1    -0.13  -0.02  -0.02     0.50  -0.03   0.05     0.26  -0.03   0.03
  18   1     0.18  -0.39   0.02     0.01   0.04   0.00    -0.05   0.13  -0.00
  19   1     0.26  -0.09  -0.02     0.14  -0.04   0.00     0.16  -0.05  -0.01
  20   1     0.05  -0.01  -0.00     0.02  -0.01  -0.00     0.00  -0.01  -0.00
  21   1     0.07   0.06  -0.02     0.02   0.01  -0.01     0.02   0.01  -0.00
  22   1     0.63  -0.04   0.07    -0.08  -0.00  -0.00     0.02  -0.01  -0.01
  23   1    -0.02   0.14   0.00     0.17  -0.34   0.01     0.20  -0.42  -0.01
                     37                     38                     39
                        a                      a                      a 
 Frequencies --  1252.3638              1274.9242              1297.4276
 Red. masses --     6.9389                 6.0186                 4.6054
 Frc consts  --     0.0000                 0.0000                 0.0000
 IR Inten    --     1.6372                 1.5814                11.1690
 Raman Activ --     0.0000                 0.0000                 0.0000
 Depolar     --     0.0000                 0.0000                 0.0000
 Atom AN      X      Y      Z        X      Y      Z        X      Y      Z
   1   7    -0.00   0.00   0.04    -0.04   0.00  -0.02     0.03  -0.04   0.05
   2   6     0.10  -0.11   0.05     0.13  -0.10   0.02    -0.12   0.08   0.03
   3   6    -0.40   0.24  -0.09    -0.13   0.25  -0.01    -0.14  -0.17  -0.04
   4   6    -0.16   0.14  -0.02     0.06   0.14   0.00     0.01   0.09   0.00
   5   6     0.18  -0.01   0.03     0.17  -0.10   0.02     0.02   0.08   0.00
   6   6     0.33  -0.03   0.05     0.11  -0.37   0.02     0.11  -0.13   0.00
   7   6     0.02  -0.01  -0.01    -0.06   0.25  -0.06    -0.11   0.28  -0.08
   8   6    -0.02   0.09  -0.03    -0.04  -0.12   0.04    -0.12  -0.23   0.07
   9   6     0.06  -0.22   0.01    -0.02  -0.08  -0.00     0.19   0.02   0.02
  10   6    -0.18   0.00  -0.02    -0.15   0.12  -0.02    -0.05  -0.00  -0.01
  11  17     0.00  -0.00   0.00    -0.00   0.00  -0.00     0.00  -0.00   0.00
  12   1     0.03  -0.01  -0.02     0.02  -0.01   0.02    -0.04   0.01  -0.02
  13   1     0.00  -0.00  -0.01    -0.01   0.01   0.03     0.02  -0.00  -0.04
  14   1    -0.00  -0.02   0.01     0.04   0.00  -0.03    -0.02   0.02   0.02
  15   1     0.14  -0.06  -0.00     0.08  -0.03  -0.00     0.14  -0.02  -0.08
  16   1     0.27  -0.10  -0.08    -0.08   0.01   0.05     0.23  -0.07  -0.09
  17   1     0.11   0.03   0.01    -0.40   0.08  -0.04     0.12   0.02   0.01
  18   1     0.20  -0.31   0.01    -0.09   0.27  -0.02     0.07  -0.10   0.00
  19   1    -0.38   0.08   0.02     0.13   0.04  -0.01     0.59  -0.04  -0.02
  20   1     0.06   0.01   0.00    -0.20   0.01   0.02    -0.24  -0.00   0.04
  21   1    -0.04  -0.02   0.01    -0.02  -0.02   0.00     0.03   0.03  -0.02
  22   1     0.01  -0.07   0.00     0.34  -0.06   0.04    -0.20   0.03  -0.03
  23   1    -0.12   0.13  -0.02     0.11  -0.29   0.01    -0.14   0.26  -0.02
                     40                     41                     42
                        a                      a                      a 
 Frequencies --  1321.6343              1344.3141              1375.6339
 Red. masses --     4.9946                10.6390                 2.9748
 Frc consts  --     0.0000                 0.0000                 0.0000
 IR Inten    --    20.0439                 3.6382               134.4112
 Raman Activ --     0.0000                 0.0000                 0.0000
 Depolar     --     0.0000                 0.0000                 0.0000
 Atom AN      X      Y      Z        X      Y      Z        X      Y      Z
   1   7    -0.00  -0.15   0.11     0.03   0.06  -0.04     0.26   0.13  -0.14
   2   6    -0.37   0.19   0.07     0.12  -0.04  -0.02    -0.07   0.06   0.01
   3   6     0.06  -0.17  -0.02    -0.24  -0.26  -0.02    -0.02  -0.03  -0.02
   4   6     0.17   0.02   0.02     0.36  -0.07   0.04    -0.04   0.07  -0.00
   5   6    -0.04   0.03  -0.00    -0.18   0.35  -0.02     0.08  -0.06   0.01
   6   6    -0.17  -0.14  -0.01    -0.19  -0.30  -0.01    -0.04  -0.05  -0.00
   7   6     0.04  -0.07   0.02     0.00  -0.02   0.01    -0.02  -0.00   0.01
   8   6     0.07   0.08  -0.03     0.03   0.03  -0.01     0.02   0.01  -0.00
   9   6     0.02   0.06   0.00     0.39  -0.07   0.04    -0.08   0.07  -0.01
  10   6     0.02   0.11  -0.00    -0.19   0.32  -0.03     0.08  -0.05   0.01
  11  17     0.00  -0.00   0.00     0.00   0.00  -0.00     0.01   0.00  -0.00
  12   1    -0.05  -0.01  -0.11    -0.02   0.02   0.07    -0.45   0.16   0.37
  13   1     0.10   0.08  -0.10    -0.05  -0.06   0.03    -0.32  -0.43   0.09
  14   1     0.03   0.15  -0.01    -0.04  -0.08   0.02    -0.22  -0.28   0.12
  15   1     0.48  -0.09  -0.24    -0.24   0.05   0.09     0.13  -0.03  -0.00
  16   1     0.35  -0.07  -0.15    -0.05  -0.02   0.03     0.09  -0.08  -0.02
  17   1    -0.11   0.02  -0.02     0.04  -0.02   0.00     0.01   0.02  -0.01
  18   1    -0.08   0.16  -0.01     0.00  -0.02   0.00    -0.02   0.08  -0.01
  19   1    -0.25   0.03   0.00    -0.17   0.03   0.01    -0.04   0.01   0.00
  20   1     0.07   0.01  -0.02     0.05   0.00  -0.01     0.04  -0.01  -0.01
  21   1    -0.01  -0.02   0.00     0.02   0.01  -0.01     0.02   0.02  -0.01
  22   1     0.12   0.01   0.01    -0.01  -0.01   0.00     0.04   0.01   0.01
  23   1     0.04  -0.04  -0.00    -0.02   0.00  -0.00     0.02   0.00   0.00
                     43                     44                     45
                        a                      a                      a 
 Frequencies --  1405.4430              1408.3094              1414.5343
 Red. masses --     2.8720                 1.7568                 8.5664
 Frc consts  --     0.0000                 0.0000                 0.0000
 IR Inten    --     8.0388                61.6045                 8.8719
 Raman Activ --     0.0000                 0.0000                 0.0000
 Depolar     --     0.0000                 0.0000                 0.0000
 Atom AN      X      Y      Z        X      Y      Z        X      Y      Z
   1   7     0.01  -0.03   0.05     0.10  -0.06   0.13     0.02   0.02  -0.02
   2   6     0.06  -0.02   0.01     0.07  -0.04   0.02    -0.11  -0.02   0.01
   3   6    -0.07  -0.02  -0.01     0.02   0.03   0.00     0.22   0.29   0.02
   4   6    -0.05   0.09  -0.01     0.01  -0.05  -0.00     0.20  -0.24   0.03
   5   6     0.10  -0.05   0.01    -0.05   0.04  -0.01    -0.30   0.05  -0.04
   6   6     0.03  -0.15   0.00     0.03   0.06   0.00     0.23   0.30   0.01
   7   6    -0.30   0.02   0.02     0.09  -0.01  -0.01    -0.07  -0.03  -0.00
   8   6    -0.06  -0.05   0.02     0.01   0.01  -0.00    -0.10  -0.04   0.02
   9   6     0.01   0.06  -0.00     0.00  -0.05   0.00     0.15  -0.26   0.02
  10   6     0.04  -0.06   0.01    -0.05   0.05  -0.00    -0.30   0.10  -0.03
  11  17     0.00  -0.00   0.00     0.01  -0.00   0.01     0.00   0.00  -0.00
  12   1    -0.09   0.05  -0.19    -0.44   0.20  -0.49    -0.05   0.01   0.09
  13   1    -0.04  -0.05  -0.01    -0.22  -0.30  -0.01    -0.04  -0.05  -0.02
  14   1     0.08   0.16  -0.05     0.19   0.44  -0.11    -0.02  -0.08   0.01
  15   1    -0.07   0.02   0.01    -0.05   0.01   0.02     0.20  -0.06  -0.05
  16   1    -0.02   0.01   0.01    -0.07   0.03   0.04     0.02   0.02  -0.02
  17   1     0.02   0.02   0.00     0.00  -0.01   0.01    -0.22  -0.05  -0.03
  18   1    -0.04   0.13   0.01     0.03  -0.07   0.01    -0.01  -0.15   0.00
  19   1     0.02  -0.02   0.01    -0.00   0.00  -0.01     0.14  -0.03   0.00
  20   1     0.56  -0.13  -0.02    -0.16   0.04   0.01     0.17  -0.05  -0.01
  21   1     0.40   0.44  -0.17    -0.12  -0.13   0.05     0.11   0.14  -0.04
  22   1     0.02   0.01  -0.00    -0.01  -0.01  -0.01    -0.16  -0.06  -0.02
  23   1    -0.03   0.08  -0.01     0.02  -0.05  -0.02     0.03  -0.23   0.00
                     46                     47                     48
                        a                      a                      a 
 Frequencies --  1452.1247              1475.0022              1490.1180
 Red. masses --     1.9570                 1.9253                 9.5337
 Frc consts  --     0.0000                 0.0000                 0.0000
 IR Inten    --    74.0630                17.8624                 3.0157
 Raman Activ --     0.0000                 0.0000                 0.0000
 Depolar     --     0.0000                 0.0000                 0.0000
 Atom AN      X      Y      Z        X      Y      Z        X      Y      Z
   1   7    -0.12   0.12   0.19    -0.03   0.02   0.03    -0.01   0.01   0.01
   2   6     0.03  -0.00   0.05    -0.05   0.20  -0.19    -0.08   0.07  -0.02
   3   6    -0.02   0.00   0.00     0.02  -0.02  -0.00     0.31  -0.27   0.04
   4   6     0.01   0.01   0.00     0.00   0.00  -0.00    -0.28  -0.08  -0.03
   5   6     0.01  -0.01   0.00    -0.01  -0.00  -0.00    -0.04   0.32  -0.01
   6   6    -0.04  -0.00  -0.00     0.01  -0.00   0.00     0.34  -0.24   0.04
   7   6     0.00  -0.00   0.00    -0.00   0.00   0.00    -0.05   0.09  -0.02
   8   6     0.01   0.00  -0.00    -0.00  -0.00   0.00    -0.06  -0.03   0.01
   9   6     0.01   0.02   0.00    -0.00   0.00  -0.00    -0.34  -0.06  -0.04
  10   6     0.02  -0.03   0.00     0.00   0.00   0.00     0.00   0.31  -0.01
  11  17    -0.00   0.00   0.00    -0.00  -0.00   0.00    -0.00   0.00  -0.00
  12   1    -0.02   0.02   0.04     0.03   0.00  -0.05    -0.00  -0.00   0.03
  13   1    -0.08  -0.16  -0.64     0.00  -0.00  -0.13     0.00  -0.00  -0.04
  14   1     0.50  -0.41  -0.16     0.12  -0.04  -0.05     0.02  -0.04  -0.00
  15   1    -0.03   0.02  -0.14     0.21  -0.07   0.63    -0.03   0.02  -0.02
  16   1    -0.02   0.11  -0.00    -0.12  -0.63   0.14    -0.02   0.03  -0.00
  17   1    -0.00   0.00  -0.00    -0.02   0.00   0.00     0.22  -0.05   0.02
  18   1    -0.01   0.02  -0.00    -0.00   0.00   0.00     0.13  -0.19   0.01
  19   1    -0.00  -0.00  -0.00     0.00  -0.00  -0.00    -0.01   0.03   0.00
  20   1    -0.01   0.00  -0.00     0.00  -0.00   0.00     0.02  -0.01   0.01
  21   1    -0.00  -0.01   0.00     0.00   0.00  -0.00     0.03   0.04  -0.02
  22   1    -0.01   0.01  -0.00     0.00   0.00  -0.00     0.23  -0.05   0.03
  23   1    -0.01   0.02  -0.00    -0.01   0.01  -0.00     0.13  -0.17   0.02
                     49                     50                     51
                        a                      a                      a 
 Frequencies --  1577.7945              1600.2253              1674.1395
 Red. masses --    11.5763                11.5166                11.1984
 Frc consts  --     0.0000                 0.0000                 0.0000
 IR Inten    --     0.4058                 9.3625                 0.4518
 Raman Activ --     0.0000                 0.0000                 0.0000
 Depolar     --     0.0000                 0.0000                 0.0000
 Atom AN      X      Y      Z        X      Y      Z        X      Y      Z
   1   7     0.00  -0.00   0.00    -0.01   0.00   0.01    -0.00  -0.00   0.00
   2   6     0.04   0.03   0.00    -0.02   0.02  -0.01    -0.00   0.00  -0.00
   3   6    -0.31  -0.45  -0.03     0.24  -0.14   0.03     0.02  -0.05   0.00
   4   6     0.27   0.18   0.03    -0.45   0.12  -0.05    -0.04   0.03  -0.00
   5   6    -0.02  -0.34   0.00     0.29  -0.31   0.03     0.02  -0.07   0.01
   6   6     0.24   0.42   0.01    -0.23   0.11  -0.02     0.09   0.04  -0.00
   7   6     0.05  -0.02  -0.01     0.10  -0.00  -0.00    -0.68  -0.13   0.09
   8   6    -0.08  -0.01   0.01    -0.06  -0.02   0.01     0.60   0.18  -0.11
   9   6    -0.26  -0.15  -0.02     0.42  -0.14   0.05     0.06  -0.05   0.01
  10   6     0.05   0.33  -0.00    -0.28   0.35  -0.04    -0.05   0.08  -0.01
  11  17    -0.00   0.00  -0.00    -0.00   0.00   0.00     0.00   0.00  -0.00
  12   1     0.00  -0.00   0.00    -0.00   0.00   0.01    -0.00   0.00   0.00
  13   1     0.01   0.00  -0.01    -0.00  -0.00  -0.01    -0.00  -0.00  -0.00
  14   1     0.00  -0.00   0.00     0.00  -0.01  -0.00     0.00  -0.00  -0.00
  15   1    -0.08   0.03  -0.00    -0.00   0.00  -0.00    -0.00   0.00  -0.00
  16   1     0.01  -0.02  -0.00    -0.02   0.01   0.01    -0.00   0.00   0.00
  17   1    -0.05   0.05  -0.01     0.11   0.01   0.01     0.00   0.00  -0.00
  18   1    -0.07   0.06  -0.01    -0.01   0.09   0.00     0.00  -0.01  -0.01
  19   1     0.05  -0.01  -0.00    -0.02   0.01  -0.01     0.08  -0.09   0.03
  20   1     0.03  -0.02  -0.01     0.02  -0.01  -0.00    -0.12   0.13  -0.02
  21   1     0.00   0.02   0.00     0.00   0.02  -0.00     0.00  -0.15   0.05
  22   1     0.05  -0.05   0.01    -0.09  -0.02  -0.01    -0.01  -0.01  -0.00
  23   1     0.07  -0.03   0.01     0.02  -0.11   0.00     0.01  -0.02   0.00
                     52                     53                     54
                        a                      a                      a 
 Frequencies --  2930.8812              2952.3887              2978.4644
 Red. masses --     1.9722                 1.9734                 1.5178
 Frc consts  --     0.0000                 0.0000                 0.0000
 IR Inten    --  1229.5985                92.6340                17.0061
 Raman Activ --     0.0000                 0.0000                 0.0000
 Depolar     --     0.0000                 0.0000                 0.0000
 Atom AN      X      Y      Z        X      Y      Z        X      Y      Z
   1   7     0.07   0.24   0.04    -0.03  -0.09  -0.01    -0.02  -0.04  -0.01
   2   6    -0.03  -0.09  -0.04    -0.11  -0.18  -0.18     0.02  -0.15   0.14
   3   6    -0.00  -0.00  -0.00    -0.01  -0.01  -0.00     0.01  -0.01   0.00
   4   6     0.00   0.00   0.00     0.00   0.00  -0.00    -0.00   0.00   0.00
   5   6    -0.00   0.00  -0.00     0.00  -0.00   0.00    -0.00  -0.00  -0.00
   6   6    -0.00  -0.00  -0.00     0.00   0.00   0.00    -0.00   0.00   0.00
   7   6     0.00   0.00  -0.00     0.00   0.00  -0.00     0.00   0.00  -0.00
   8   6    -0.00   0.00  -0.00     0.00  -0.00  -0.00    -0.00  -0.00   0.00
   9   6     0.00   0.00   0.00    -0.00  -0.00   0.00    -0.00   0.00   0.00
  10   6    -0.01  -0.01  -0.00     0.01   0.00   0.00     0.00   0.00  -0.00
  11  17    -0.00  -0.01  -0.00     0.00   0.00   0.00     0.00   0.00   0.00
  12   1    -0.29  -0.84  -0.08     0.10   0.29   0.03     0.05   0.14   0.01
  13   1     0.04  -0.01   0.01    -0.01   0.00  -0.00    -0.01   0.00   0.00
  14   1    -0.01   0.01  -0.04    -0.00  -0.00  -0.00     0.01   0.00   0.03
  15   1     0.08   0.30   0.02     0.14   0.55   0.01     0.20   0.68   0.06
  16   1     0.05   0.01   0.12     0.27   0.10   0.64    -0.25  -0.13  -0.58
  17   1     0.00  -0.00  -0.00     0.00  -0.01  -0.00     0.00  -0.01   0.00
  18   1     0.00   0.00  -0.00    -0.00  -0.00  -0.00     0.00   0.00   0.00
  19   1    -0.00  -0.00   0.00     0.00   0.00   0.00    -0.00  -0.00   0.00
  20   1    -0.00  -0.00  -0.00    -0.00  -0.00  -0.00     0.00   0.00   0.00
  21   1     0.00  -0.00   0.00    -0.00   0.00  -0.00     0.00  -0.00   0.00
  22   1    -0.00  -0.01   0.00     0.00   0.00   0.00     0.00  -0.00  -0.00
  23   1     0.04   0.01   0.00    -0.02  -0.01  -0.00    -0.01  -0.00  -0.00
                     55                     56                     57
                        a                      a                      a 
 Frequencies --  3086.7563              3094.8582              3096.9361
 Red. masses --     1.8738                 1.8116                 1.7937
 Frc consts  --     0.0000                 0.0000                 0.0000
 IR Inten    --   274.5963                34.0494                23.9092
 Raman Activ --     0.0000                 0.0000                 0.0000
 Depolar     --     0.0000                 0.0000                 0.0000
 Atom AN      X      Y      Z        X      Y      Z        X      Y      Z
   1   7     0.01   0.01   0.00    -0.00  -0.00  -0.00     0.00   0.00   0.00
   2   6     0.00   0.00   0.00     0.00   0.00  -0.00     0.00   0.00  -0.00
   3   6     0.01  -0.01   0.00    -0.00   0.00  -0.00    -0.01   0.01  -0.00
   4   6    -0.00  -0.03  -0.00     0.00   0.04  -0.00     0.02   0.25  -0.00
   5   6    -0.00  -0.00  -0.00    -0.01  -0.01  -0.00    -0.07  -0.03  -0.01
   6   6    -0.00  -0.00  -0.00     0.00   0.01  -0.00    -0.00  -0.00  -0.00
   7   6     0.01   0.03  -0.01     0.05   0.25  -0.07    -0.01  -0.04   0.01
   8   6    -0.00  -0.00   0.00     0.01  -0.03   0.01     0.00   0.01  -0.00
   9   6    -0.01  -0.03  -0.00    -0.00  -0.02   0.00    -0.00  -0.00   0.00
  10   6     0.25   0.12   0.02    -0.03  -0.01  -0.00     0.03   0.01   0.00
  11  17    -0.00   0.00   0.00     0.00  -0.00  -0.00     0.00   0.00   0.00
  12   1    -0.02  -0.04  -0.00     0.00   0.01   0.00    -0.00  -0.00  -0.00
  13   1     0.00  -0.00   0.00    -0.00   0.00  -0.00     0.00  -0.00   0.00
  14   1    -0.01  -0.00  -0.01     0.00   0.00   0.00    -0.00   0.00  -0.00
  15   1    -0.00  -0.01  -0.00     0.00  -0.00  -0.00     0.00  -0.01  -0.00
  16   1    -0.00  -0.00  -0.01     0.00   0.00   0.00     0.00   0.00   0.00
  17   1     0.01   0.09  -0.00    -0.01  -0.14   0.00    -0.08  -0.90   0.00
  18   1     0.01   0.00   0.00     0.04   0.02   0.01     0.26   0.12   0.03
  19   1    -0.02  -0.09   0.03    -0.16  -0.88   0.26     0.02   0.13  -0.04
  20   1     0.00   0.01  -0.00     0.02   0.06  -0.02    -0.01  -0.03   0.01
  21   1    -0.00   0.00  -0.00    -0.08   0.06  -0.01     0.01  -0.01   0.00
  22   1     0.01   0.13  -0.00     0.00   0.07  -0.00     0.00   0.01  -0.00
  23   1    -0.84  -0.41  -0.08     0.09   0.04   0.01    -0.08  -0.04  -0.01
                     58                     59                     60
                        a                      a                      a 
 Frequencies --  3113.9058              3117.6562              3139.0640
 Red. masses --     1.8475                 1.8542                 1.5507
 Frc consts  --     0.0000                 0.0000                 0.0000
 IR Inten    --    10.9227                23.9124                15.5347
 Raman Activ --     0.0000                 0.0000                 0.0000
 Depolar     --     0.0000                 0.0000                 0.0000
 Atom AN      X      Y      Z        X      Y      Z        X      Y      Z
   1   7    -0.00   0.00   0.00     0.00   0.00   0.00    -0.00   0.00   0.00
   2   6    -0.00  -0.00   0.00     0.00   0.00   0.00     0.00   0.00   0.00
   3   6     0.00   0.00   0.00    -0.00   0.00  -0.00    -0.00  -0.00  -0.00
   4   6    -0.00  -0.01   0.00     0.01   0.09  -0.00     0.00   0.00  -0.00
   5   6    -0.01  -0.00  -0.00     0.23   0.11   0.03     0.01   0.01   0.00
   6   6     0.01  -0.01   0.00     0.01  -0.00   0.00    -0.00   0.00  -0.00
   7   6    -0.00  -0.02   0.01     0.00   0.00  -0.00    -0.01  -0.02   0.01
   8   6     0.00   0.01  -0.00    -0.01  -0.02   0.01     0.22  -0.01  -0.02
   9   6    -0.02  -0.27   0.00    -0.00  -0.01  -0.00     0.00   0.00  -0.00
  10   6    -0.04  -0.02  -0.00     0.01   0.00   0.00     0.00   0.00   0.00
  11  17     0.00   0.00  -0.00     0.00   0.00  -0.00     0.00   0.00   0.00
  12   1     0.00  -0.00  -0.00    -0.00  -0.00   0.00    -0.00  -0.00   0.00
  13   1     0.00  -0.00   0.00     0.00  -0.00   0.00     0.00  -0.00   0.00
  14   1    -0.00  -0.00  -0.00    -0.00  -0.00  -0.00    -0.00   0.00  -0.00
  15   1     0.00   0.00   0.00     0.00  -0.00  -0.00     0.00   0.00  -0.00
  16   1    -0.00  -0.00  -0.00    -0.00  -0.00  -0.00    -0.00  -0.00  -0.00
  17   1     0.00   0.02  -0.00    -0.03  -0.28   0.00    -0.00  -0.01   0.00
  18   1     0.03   0.01   0.00    -0.82  -0.40  -0.10    -0.05  -0.02  -0.01
  19   1     0.01   0.08  -0.02    -0.00  -0.00   0.00     0.01   0.04  -0.01
  20   1    -0.01  -0.02   0.01     0.01   0.07  -0.02    -0.08  -0.48   0.15
  21   1     0.01  -0.00   0.00     0.02  -0.02   0.00    -0.63   0.53  -0.10
  22   1     0.08   0.94  -0.01     0.01   0.05  -0.00    -0.00  -0.01   0.00
  23   1     0.11   0.05   0.01    -0.03  -0.01  -0.00    -0.01  -0.00  -0.00
                     61                     62                     63
                        a                      a                      a 
 Frequencies --  3160.1967              3169.3606              3179.9948
 Red. masses --     1.8506                 2.0687                 1.6609
 Frc consts  --     0.0000                 0.0000                 0.0000
 IR Inten    --    32.4519                39.9202                26.3930
 Raman Activ --     0.0000                 0.0000                 0.0000
 Depolar     --     0.0000                 0.0000                 0.0000
 Atom AN      X      Y      Z        X      Y      Z        X      Y      Z
   1   7    -0.21   0.13  -0.06    -0.00  -0.00  -0.00    -0.06  -0.03  -0.21
   2   6    -0.00   0.00  -0.00     0.00   0.00  -0.00     0.00   0.00  -0.01
   3   6     0.00  -0.00   0.00    -0.00  -0.00  -0.00     0.00  -0.00   0.00
   4   6     0.00  -0.00   0.00     0.00   0.00   0.00    -0.00   0.00  -0.00
   5   6    -0.00  -0.00  -0.00     0.01   0.01   0.00     0.00   0.00   0.00
   6   6    -0.00  -0.00   0.00     0.00   0.00   0.00    -0.00  -0.00  -0.00
   7   6     0.00   0.00  -0.00     0.00   0.04  -0.01    -0.00  -0.00   0.00
   8   6    -0.00   0.00   0.00    -0.05   0.29  -0.08     0.00  -0.00   0.00
   9   6     0.00   0.00  -0.00     0.00   0.00   0.00    -0.00  -0.00  -0.00
  10   6     0.00   0.00   0.00    -0.00   0.00  -0.00     0.00   0.00   0.00
  11  17     0.00   0.00   0.00     0.00  -0.00   0.00     0.00  -0.00   0.00
  12   1    -0.00   0.06  -0.00    -0.00   0.00  -0.00    -0.03  -0.06  -0.03
  13   1     0.74  -0.59   0.08    -0.00   0.00  -0.00    -0.14   0.10  -0.04
  14   1     0.05   0.03   0.14     0.00   0.00   0.00     0.39   0.09   0.87
  15   1     0.00  -0.00  -0.00    -0.00  -0.00  -0.00    -0.00  -0.01   0.00
  16   1     0.00   0.00   0.00    -0.00   0.00  -0.00     0.01   0.01   0.02
  17   1    -0.00   0.00   0.00    -0.00  -0.00  -0.00    -0.00  -0.00   0.00
  18   1     0.00   0.00   0.00    -0.05  -0.03  -0.01    -0.00  -0.00  -0.00
  19   1    -0.00  -0.00   0.00    -0.02  -0.11   0.03     0.00   0.00  -0.00
  20   1     0.00   0.00  -0.00    -0.18  -0.75   0.24     0.00   0.00  -0.00
  21   1     0.00  -0.00   0.00     0.38  -0.28   0.05    -0.00   0.00  -0.00
  22   1    -0.00  -0.00   0.00    -0.00  -0.01   0.00     0.00   0.00   0.00
  23   1    -0.00  -0.00  -0.00    -0.00   0.00  -0.00    -0.01  -0.01  -0.00
