 Entering Gaussian System
 *********************************************
 Gaussian 98:
 frequency output generated by the xtb code
 *********************************************
                         Standard orientation:
 --------------------------------------------------------------------
  Center     Atomic     Atomic              Coordinates (Angstroms)
  Number     Number      Type              X           Y           Z
 --------------------------------------------------------------------
    1          7             0        3.183461   -1.837647    0.015092
    2          6             0        3.185430   -0.868405    1.140221
    3          6             0        2.102404    0.182021    0.941972
    4          8             0        0.809521   -0.410973    0.892908
    5          6             0       -0.234955    0.472562    0.635010
    6          6             0       -0.082809    1.830851    0.414347
    7          6             0       -1.176456    2.652837    0.151379
    8          6             0       -2.441659    2.142343    0.104485
    9          6             0       -2.665645    0.767345    0.326578
   10          6             0       -3.960698    0.203261    0.291773
   11          6             0       -4.144914   -1.128938    0.516576
   12          6             0       -3.051078   -1.958383    0.786724
   13          6             0       -1.788205   -1.442179    0.825679
   14          6             0       -1.560638   -0.073821    0.595976
   15         17             0        3.634651    0.066516   -2.892623
   16          1             0        3.361640   -1.348419   -0.878759
   17          1             0        2.258378   -2.279272   -0.063004
   18          1             0        3.891347   -2.577120    0.127811
   19          1             0        4.171623   -0.398150    1.231396
   20          1             0        3.009850   -1.398202    2.083012
   21          1             0        2.268734    0.710868   -0.002499
   22          1             0        2.110561    0.920282    1.752171
   23          1             0        0.897844    2.269566    0.445983
   24          1             0       -1.019271    3.705876   -0.017743
   25          1             0       -3.282036    2.783417   -0.100103
   26          1             0       -4.802496    0.842245    0.085585
   27          1             0       -5.137637   -1.548142    0.488121
   28          1             0       -3.209403   -3.009482    0.965267
   29          1             0       -0.943607   -2.074493    1.038287
 --------------------------------------------------------------------
     1 basis functions        1 primitive gaussians
     1 alpha electrons        1 beta electrons

 Harmonic frequencies (cm**-1), IR intensities (km*mol⁻¹),
 Raman scattering activities (A**4/amu), Raman depolarization ratios,
 reduced masses (AMU), force constants (mDyne/A) and normal coordinates:
                      1                      2                      3
                        a                      a                      a 
 Frequencies --  -146.2259                26.4680                34.4730
 Red. masses --    20.1482                21.7857                15.2866
 Frc consts  --     0.0000                 0.0000                 0.0000
 IR Inten    --   136.5659                 9.8911                 1.5146
 Raman Activ --     0.0000                 0.0000                 0.0000
 Depolar     --     0.0000                 0.0000                 0.0000
 Atom AN      X      Y      Z        X      Y      Z        X      Y      Z
   1   7     0.13   0.35  -0.51     0.04   0.10  -0.18    -0.05   0.06  -0.10
   2   6     0.02  -0.00  -0.21    -0.10  -0.13   0.02     0.02  -0.12   0.05
   3   6    -0.01   0.01   0.03    -0.08  -0.09   0.11     0.01  -0.08   0.29
   4   8    -0.00   0.01  -0.04    -0.09  -0.09  -0.08     0.01  -0.06   0.28
   5   6    -0.00   0.01  -0.01    -0.06  -0.06  -0.06     0.04  -0.04   0.14
   6   6    -0.01   0.01   0.01    -0.04  -0.07  -0.10     0.08  -0.05   0.12
   7   6    -0.01   0.01  -0.01    -0.02  -0.06  -0.12     0.13  -0.06  -0.11
   8   6    -0.01  -0.00  -0.03    -0.03  -0.03  -0.08     0.14  -0.06  -0.31
   9   6    -0.00   0.00  -0.02    -0.07  -0.01   0.01     0.09  -0.03  -0.19
  10   6    -0.00  -0.00  -0.01    -0.09   0.03   0.11     0.08  -0.01  -0.29
  11   6    -0.00   0.00   0.01    -0.12   0.06   0.24     0.02   0.03  -0.11
  12   6    -0.00   0.01   0.03    -0.14   0.05   0.27    -0.03   0.05   0.18
  13   6    -0.00   0.01   0.01    -0.12   0.00   0.15    -0.03   0.02   0.24
  14   6    -0.00   0.00  -0.01    -0.08  -0.02   0.02     0.03  -0.02   0.06
  15  17    -0.09  -0.31   0.54     0.63   0.20  -0.18    -0.33   0.23  -0.17
  16   1     0.01   0.18  -0.12     0.11   0.07  -0.01    -0.08   0.06  -0.02
  17   1     0.06   0.06  -0.16    -0.00   0.08  -0.15    -0.00  -0.01  -0.00
  18   1     0.07   0.12  -0.20    -0.03  -0.01  -0.03     0.02   0.04  -0.09
  19   1    -0.00   0.01  -0.01    -0.03  -0.04   0.07     0.01  -0.03   0.02
  20   1     0.01  -0.07  -0.10    -0.07  -0.09  -0.03     0.03  -0.08  -0.01
  21   1    -0.01   0.05   0.03    -0.00   0.02   0.06    -0.01   0.02   0.11
  22   1    -0.00  -0.03   0.04    -0.04  -0.06   0.07     0.02  -0.06   0.12
  23   1    -0.00   0.01   0.01    -0.01  -0.03  -0.04     0.02  -0.01   0.08
  24   1    -0.00   0.00  -0.00     0.00  -0.02  -0.05     0.05  -0.02  -0.04
  25   1    -0.00  -0.00  -0.01    -0.01  -0.01  -0.03     0.05  -0.02  -0.15
  26   1    -0.00  -0.00  -0.01    -0.02   0.01   0.02     0.04  -0.01  -0.15
  27   1    -0.00   0.00   0.01    -0.04   0.03   0.10     0.00   0.01  -0.05
  28   1    -0.00   0.00   0.02    -0.05   0.02   0.11    -0.02   0.02   0.10
  29   1     0.00   0.00   0.01    -0.04  -0.00   0.05    -0.02   0.01   0.14
                      4                      5                      6
                        a                      a                      a 
 Frequencies --    55.0091                91.3337                99.0454
 Red. masses --    20.5586                 9.3737                13.8412
 Frc consts  --     0.0000                 0.0000                 0.0000
 IR Inten    --    11.0453                15.5015                20.7556
 Raman Activ --     0.0000                 0.0000                 0.0000
 Depolar     --     0.0000                 0.0000                 0.0000
 Atom AN      X      Y      Z        X      Y      Z        X      Y      Z
   1   7     0.07  -0.09   0.11     0.54  -0.03   0.07    -0.22  -0.31  -0.09
   2   6    -0.00  -0.09   0.11     0.14   0.15  -0.08    -0.04  -0.08  -0.26
   3   6     0.03  -0.09  -0.02    -0.03  -0.07  -0.27     0.06  -0.02  -0.42
   4   8     0.04  -0.11  -0.22    -0.05  -0.11   0.12    -0.00   0.08   0.03
   5   6     0.06  -0.09  -0.22    -0.05  -0.10   0.09    -0.01   0.06   0.06
   6   6     0.10  -0.11  -0.33    -0.01  -0.11   0.04    -0.02   0.05  -0.01
   7   6     0.11  -0.07  -0.26     0.04  -0.05   0.03    -0.04   0.02  -0.03
   8   6     0.08  -0.01  -0.08     0.02   0.01   0.02    -0.03  -0.02  -0.07
   9   6     0.04   0.01  -0.00    -0.04   0.02   0.03    -0.00  -0.01  -0.02
  10   6     0.01   0.07   0.18    -0.07   0.09  -0.07     0.02  -0.07  -0.14
  11   6    -0.02   0.08   0.22    -0.16   0.10  -0.09     0.06  -0.07  -0.06
  12   6    -0.03   0.03   0.07    -0.22   0.05   0.01     0.05   0.01   0.20
  13   6     0.00  -0.03  -0.09    -0.20  -0.01   0.11     0.02   0.07   0.29
  14   6     0.04  -0.04  -0.11    -0.09  -0.03   0.10    -0.00   0.04   0.13
  15  17    -0.34   0.36   0.38     0.02   0.05  -0.03     0.12   0.21   0.33
  16   1    -0.02  -0.00   0.04    -0.01  -0.00  -0.01     0.02  -0.12  -0.03
  17   1     0.03  -0.05   0.04     0.23  -0.20   0.09    -0.09  -0.01  -0.03
  18   1     0.05  -0.00   0.01     0.29   0.13   0.00    -0.12  -0.14   0.03
  19   1    -0.00  -0.03   0.05     0.01   0.11  -0.03     0.01  -0.05  -0.12
  20   1    -0.02  -0.03   0.03     0.07   0.07  -0.00    -0.02   0.04  -0.04
  21   1     0.05  -0.03  -0.00    -0.06  -0.10  -0.13    -0.02  -0.10  -0.18
  22   1    -0.03  -0.02  -0.01     0.02   0.05  -0.15     0.08   0.07  -0.19
  23   1     0.04  -0.04  -0.13     0.00  -0.04  -0.00    -0.01   0.01  -0.02
  24   1     0.04  -0.03  -0.10     0.03  -0.02   0.00    -0.02   0.01  -0.01
  25   1     0.02   0.01   0.00     0.01   0.01  -0.00    -0.01  -0.01  -0.04
  26   1     0.00   0.03   0.08    -0.00   0.04  -0.04     0.01  -0.04  -0.09
  27   1    -0.01   0.04   0.11    -0.05   0.04  -0.06     0.02  -0.03  -0.05
  28   1    -0.01   0.01   0.02    -0.08   0.02  -0.00     0.02   0.01   0.09
  29   1     0.00  -0.02  -0.06    -0.07  -0.02   0.05     0.01   0.04   0.14
                      7                      8                      9
                        a                      a                      a 
 Frequencies --   143.8714               149.3134               162.9629
 Red. masses --    11.6413                 9.5651                 9.9746
 Frc consts  --     0.0000                 0.0000                 0.0000
 IR Inten    --     8.8371                 8.2888                 6.0824
 Raman Activ --     0.0000                 0.0000                 0.0000
 Depolar     --     0.0000                 0.0000                 0.0000
 Atom AN      X      Y      Z        X      Y      Z        X      Y      Z
   1   7     0.17  -0.02   0.10     0.26  -0.05  -0.06     0.18  -0.18  -0.03
   2   6    -0.06  -0.06   0.13    -0.22  -0.31   0.18    -0.09  -0.17  -0.01
   3   6    -0.01  -0.03  -0.02    -0.02  -0.13   0.02    -0.01  -0.09  -0.10
   4   8     0.02  -0.05  -0.52    -0.12   0.09   0.07    -0.10   0.11   0.21
   5   6     0.01   0.02  -0.20    -0.03   0.15   0.03    -0.03   0.12   0.08
   6   6    -0.03   0.07   0.11    -0.01   0.10  -0.23    -0.08   0.16   0.32
   7   6    -0.07   0.10   0.36    -0.07   0.07  -0.14    -0.08   0.07   0.01
   8   6    -0.04   0.04   0.09    -0.09   0.08   0.13    -0.04  -0.01  -0.30
   9   6     0.00  -0.01  -0.18    -0.06   0.08   0.18    -0.02  -0.00  -0.20
  10   6     0.03  -0.07  -0.28     0.00  -0.06   0.03    -0.02  -0.03   0.09
  11   6     0.04  -0.02  -0.00     0.14  -0.12  -0.21     0.03   0.00   0.35
  12   6     0.02   0.06   0.31     0.18  -0.03  -0.11     0.11  -0.00   0.01
  13   6     0.03   0.06   0.13     0.11   0.12   0.15     0.11   0.02  -0.30
  14   6     0.02   0.01  -0.16    -0.02   0.14   0.18     0.01   0.05  -0.20
  15  17    -0.09  -0.06  -0.01    -0.08  -0.01  -0.09     0.00   0.02   0.01
  16   1     0.04   0.01   0.03     0.07   0.06   0.02     0.01  -0.02  -0.00
  17   1     0.06  -0.04  -0.00     0.12  -0.10  -0.10     0.09  -0.14  -0.02
  18   1     0.07   0.02   0.03     0.13   0.04  -0.03     0.12   0.02  -0.01
  19   1    -0.02  -0.02   0.10    -0.06  -0.12   0.21    -0.03  -0.06   0.05
  20   1    -0.07  -0.03   0.02    -0.20  -0.15  -0.01    -0.08  -0.06  -0.02
  21   1     0.07   0.03   0.03     0.03  -0.07  -0.01    -0.02  -0.07  -0.06
  22   1    -0.07  -0.05   0.03     0.02  -0.01  -0.02     0.06   0.01  -0.06
  23   1    -0.01   0.03   0.06     0.01   0.02  -0.15    -0.03   0.07   0.20
  24   1    -0.04   0.05   0.20    -0.03   0.01  -0.09    -0.04   0.03   0.02
  25   1    -0.02   0.01   0.05    -0.03   0.02   0.06    -0.01  -0.02  -0.15
  26   1     0.01  -0.04  -0.13    -0.02  -0.04   0.00    -0.02  -0.02   0.06
  27   1     0.01  -0.01   0.01     0.06  -0.07  -0.13     0.00   0.00   0.21
  28   1     0.00   0.03   0.19     0.08  -0.02  -0.07     0.05  -0.00   0.01
  29   1     0.01   0.03   0.08     0.05   0.06   0.06     0.05   0.01  -0.15
                     10                     11                     12
                        a                      a                      a 
 Frequencies --   217.5442               252.6362               283.1277
 Red. masses --     5.2224                11.3394                10.8399
 Frc consts  --     0.0000                 0.0000                 0.0000
 IR Inten    --     3.1096                 3.0006                 1.6336
 Raman Activ --     0.0000                 0.0000                 0.0000
 Depolar     --     0.0000                 0.0000                 0.0000
 Atom AN      X      Y      Z        X      Y      Z        X      Y      Z
   1   7     0.15   0.20   0.02    -0.04   0.01  -0.05    -0.17   0.22   0.04
   2   6    -0.12   0.01   0.16    -0.01  -0.02  -0.02    -0.30   0.18   0.04
   3   6     0.06   0.08  -0.22     0.00   0.00   0.03    -0.38  -0.05  -0.20
   4   8     0.08   0.02   0.10    -0.05   0.09   0.53    -0.29  -0.26  -0.00
   5   6     0.02  -0.06   0.06     0.02  -0.03  -0.15    -0.06  -0.08   0.01
   6   6     0.04  -0.06   0.08     0.04  -0.06  -0.34     0.16  -0.10   0.06
   7   6     0.08  -0.04   0.05    -0.01   0.02   0.12     0.24  -0.02   0.05
   8   6     0.08  -0.04  -0.03    -0.04   0.06   0.36     0.20   0.06  -0.01
   9   6     0.06  -0.04  -0.03     0.02  -0.03  -0.15     0.05   0.08  -0.01
  10   6     0.03   0.04  -0.03     0.03  -0.05  -0.24     0.09  -0.01   0.02
  11   6    -0.06   0.06  -0.00    -0.01   0.01   0.08     0.20  -0.03   0.05
  12   6    -0.09  -0.00  -0.04    -0.02   0.04   0.21     0.19  -0.06   0.03
  13   6    -0.06  -0.08  -0.04     0.02  -0.03  -0.18     0.14   0.01   0.01
  14   6     0.02  -0.08  -0.00     0.03  -0.05  -0.27    -0.03   0.02  -0.00
  15  17    -0.18  -0.02  -0.04     0.03   0.01  -0.02     0.05  -0.00  -0.03
  16   1     0.44   0.03   0.07    -0.03   0.02  -0.01    -0.13   0.08   0.00
  17   1    -0.08   0.36  -0.30     0.00  -0.02   0.00    -0.01  -0.03   0.05
  18   1    -0.23  -0.17   0.20     0.01   0.02  -0.04     0.03   0.13  -0.03
  19   1    -0.02  -0.06   0.20    -0.00  -0.01  -0.01    -0.10   0.08   0.03
  20   1    -0.20  -0.02   0.00     0.00  -0.01  -0.01    -0.10   0.06   0.01
  21   1     0.01  -0.09  -0.13    -0.05  -0.07  -0.04    -0.14  -0.08  -0.10
  22   1     0.03   0.11  -0.15     0.07   0.06  -0.04    -0.14   0.06  -0.12
  23   1     0.01  -0.02   0.03     0.02  -0.02  -0.14     0.05  -0.04   0.02
  24   1     0.03  -0.01   0.02    -0.01   0.02   0.10     0.09  -0.01   0.02
  25   1     0.03  -0.01  -0.02    -0.03   0.04   0.26     0.08   0.04  -0.01
  26   1     0.02   0.03  -0.01     0.01  -0.02  -0.11     0.00  -0.03   0.01
  27   1    -0.02   0.03   0.01    -0.01   0.01   0.06     0.06  -0.02   0.02
  28   1    -0.04   0.00  -0.01    -0.02   0.03   0.15     0.06  -0.02   0.01
  29   1    -0.03  -0.04  -0.01     0.01  -0.01  -0.07     0.06   0.03  -0.00
                     13                     14                     15
                        a                      a                      a 
 Frequencies --   294.5186               385.3019               414.4508
 Red. masses --     7.6824                 9.4103                 9.8778
 Frc consts  --     0.0000                 0.0000                 0.0000
 IR Inten    --     2.1598                 0.1805                10.6728
 Raman Activ --     0.0000                 0.0000                 0.0000
 Depolar     --     0.0000                 0.0000                 0.0000
 Atom AN      X      Y      Z        X      Y      Z        X      Y      Z
   1   7     0.23  -0.13   0.02     0.00  -0.00   0.01    -0.13   0.21   0.03
   2   6     0.23   0.10  -0.17     0.01   0.00  -0.00     0.26  -0.08   0.21
   3   6    -0.18  -0.22   0.18    -0.00  -0.01  -0.01     0.23  -0.16  -0.12
   4   8    -0.23  -0.23   0.06     0.01  -0.03  -0.19     0.16  -0.19   0.02
   5   6    -0.05   0.01  -0.03    -0.03   0.06   0.30     0.07  -0.09   0.06
   6   6     0.01   0.00  -0.04    -0.01   0.02   0.06     0.05  -0.12  -0.03
   7   6    -0.00   0.02  -0.03     0.02  -0.03  -0.20    -0.02  -0.13   0.13
   8   6    -0.05   0.12  -0.00    -0.01   0.03   0.14    -0.12   0.09  -0.09
   9   6    -0.11   0.11  -0.04    -0.03   0.05   0.26    -0.26   0.10  -0.11
  10   6    -0.05  -0.03  -0.01     0.04  -0.07  -0.41    -0.22  -0.09  -0.04
  11   6     0.10  -0.05  -0.00    -0.02   0.03   0.17    -0.06  -0.10   0.10
  12   6     0.15   0.02   0.02    -0.02   0.03   0.17     0.09   0.05  -0.08
  13   6     0.08   0.14  -0.01     0.04  -0.07  -0.38    -0.01   0.26  -0.03
  14   6    -0.08   0.15  -0.05    -0.03   0.06   0.31    -0.12   0.25   0.05
  15  17    -0.08   0.01   0.04    -0.00   0.00   0.00     0.02  -0.01  -0.02
  16   1     0.33  -0.14   0.01     0.00  -0.00   0.00    -0.12   0.13   0.02
  17   1    -0.03   0.18  -0.14    -0.00   0.01   0.00    -0.06   0.10   0.08
  18   1    -0.13  -0.19   0.19    -0.00  -0.01   0.00    -0.05   0.02  -0.15
  19   1     0.02   0.15  -0.18     0.00   0.00  -0.00     0.08  -0.04   0.06
  20   1     0.24   0.05  -0.00     0.01   0.00   0.00     0.07  -0.03   0.05
  21   1    -0.09   0.02   0.09     0.02   0.02   0.01     0.08  -0.17  -0.10
  22   1    -0.07  -0.12   0.11    -0.03  -0.02   0.01     0.04   0.06  -0.13
  23   1    -0.00   0.01  -0.00     0.01  -0.01  -0.06     0.01  -0.02  -0.06
  24   1     0.01   0.00  -0.00     0.02  -0.03  -0.19     0.02  -0.04   0.07
  25   1    -0.00   0.05   0.01     0.00  -0.00  -0.01     0.01   0.08  -0.04
  26   1    -0.04  -0.04   0.00     0.03  -0.06  -0.32    -0.09  -0.06  -0.01
  27   1     0.04  -0.04   0.00    -0.00   0.01   0.05    -0.00  -0.07   0.07
  28   1     0.07   0.00   0.01    -0.00   0.01   0.04     0.09  -0.00  -0.05
  29   1     0.05   0.08   0.00     0.03  -0.06  -0.30     0.02   0.11  -0.03
                     16                     17                     18
                        a                      a                      a 
 Frequencies --   429.9955               457.3014               498.1591
 Red. masses --     9.5977                10.3076                11.1570
 Frc consts  --     0.0000                 0.0000                 0.0000
 IR Inten    --     0.0729                 8.4023                 0.5284
 Raman Activ --     0.0000                 0.0000                 0.0000
 Depolar     --     0.0000                 0.0000                 0.0000
 Atom AN      X      Y      Z        X      Y      Z        X      Y      Z
   1   7     0.02  -0.03  -0.01    -0.07   0.15   0.03    -0.01   0.02   0.00
   2   6    -0.02   0.01  -0.03     0.16  -0.04   0.14     0.13  -0.06   0.06
   3   6    -0.07  -0.01   0.05    -0.04  -0.29  -0.08     0.12  -0.02  -0.01
   4   8    -0.06   0.01  -0.03    -0.09  -0.24   0.02     0.03   0.06  -0.01
   5   6    -0.03   0.06   0.11     0.06   0.00  -0.01    -0.20  -0.14  -0.00
   6   6    -0.01   0.00  -0.32    -0.27   0.08   0.02    -0.28  -0.12  -0.00
   7   6    -0.08   0.12   0.31    -0.33   0.05  -0.07     0.03   0.30  -0.04
   8   6     0.02  -0.06  -0.14    -0.23  -0.08  -0.00    -0.01   0.40  -0.08
   9   6     0.13  -0.09  -0.25     0.21  -0.08   0.08     0.08   0.30  -0.04
  10   6     0.10   0.01  -0.15     0.18   0.20   0.02     0.24  -0.01   0.03
  11   6    -0.01   0.12   0.31     0.12   0.24  -0.08     0.22  -0.05   0.03
  12   6     0.01  -0.06  -0.31     0.05   0.18   0.02    -0.06  -0.38   0.07
  13   6     0.00  -0.06   0.13     0.15  -0.10   0.01    -0.14  -0.18   0.01
  14   6     0.01  -0.01   0.39     0.18  -0.11  -0.02    -0.20  -0.11  -0.01
  15  17    -0.00   0.00   0.00     0.01  -0.00  -0.01     0.00  -0.00  -0.00
  16   1     0.02  -0.02  -0.01    -0.05   0.09   0.02    -0.02   0.03   0.01
  17   1     0.01  -0.01  -0.01    -0.05   0.09   0.04    -0.02   0.03   0.02
  18   1     0.00  -0.01   0.02    -0.05  -0.00  -0.09    -0.02  -0.02  -0.05
  19   1    -0.01   0.02  -0.03     0.03   0.04  -0.00     0.04  -0.02   0.01
  20   1     0.02   0.00  -0.01     0.11  -0.02   0.05     0.04  -0.02   0.02
  21   1    -0.01   0.02   0.03    -0.02  -0.16  -0.07     0.05  -0.03  -0.01
  22   1    -0.03  -0.02   0.03    -0.03   0.01  -0.11     0.04   0.01  -0.02
  23   1     0.01  -0.03  -0.24    -0.09   0.06   0.01    -0.05  -0.10   0.01
  24   1    -0.05   0.06   0.20    -0.10   0.01  -0.04     0.11   0.07  -0.00
  25   1    -0.01  -0.04  -0.04    -0.13  -0.10  -0.00    -0.02   0.10  -0.03
  26   1     0.04   0.02  -0.05     0.09   0.10   0.00     0.02  -0.06   0.01
  27   1    -0.02   0.07   0.21     0.03   0.08  -0.05     0.03   0.06  -0.01
  28   1    -0.00  -0.04  -0.23    -0.04   0.06   0.02    -0.05  -0.10   0.02
  29   1    -0.00  -0.04  -0.01     0.01  -0.06   0.01     0.00   0.00  -0.00
                     19                     20                     21
                        a                      a                      a 
 Frequencies --   503.6535               534.9747               590.3410
 Red. masses --    10.7802                 9.8145                11.4423
 Frc consts  --     0.0000                 0.0000                 0.0000
 IR Inten    --     1.3464                 5.2754                 1.0993
 Raman Activ --     0.0000                 0.0000                 0.0000
 Depolar     --     0.0000                 0.0000                 0.0000
 Atom AN      X      Y      Z        X      Y      Z        X      Y      Z
   1   7    -0.03   0.12   0.03    -0.01   0.01   0.01     0.01   0.02   0.01
   2   6     0.19  -0.05   0.12     0.01  -0.00   0.01     0.15  -0.07   0.07
   3   6    -0.03  -0.27  -0.04     0.01  -0.02  -0.03     0.08  -0.04   0.00
   4   8    -0.23   0.09  -0.05     0.01  -0.03  -0.15    -0.16   0.30  -0.08
   5   6     0.00   0.31  -0.06    -0.04   0.07   0.36    -0.31   0.05   0.01
   6   6     0.22   0.35  -0.02    -0.02   0.03   0.15     0.01  -0.04  -0.00
   7   6     0.13   0.24  -0.02     0.03  -0.05  -0.35     0.13  -0.00   0.03
   8   6     0.22  -0.08   0.03    -0.04   0.07   0.40     0.18  -0.16   0.04
   9   6     0.05  -0.10   0.04     0.04  -0.07  -0.38    -0.20  -0.09  -0.02
  10   6     0.03  -0.20   0.06     0.02  -0.02  -0.11    -0.35   0.23  -0.06
  11   6    -0.21  -0.20  -0.01    -0.02   0.03   0.15     0.17   0.18  -0.04
  12   6    -0.19  -0.16   0.03     0.02  -0.05  -0.23     0.16   0.09   0.02
  13   6    -0.19  -0.05  -0.03    -0.02   0.03   0.19     0.27  -0.27   0.05
  14   6     0.06  -0.02  -0.01     0.02  -0.04  -0.19    -0.22  -0.19   0.00
  15  17     0.01  -0.00  -0.01     0.00  -0.00   0.00     0.00  -0.00  -0.00
  16   1    -0.03   0.07   0.02    -0.01   0.01   0.01    -0.02   0.04   0.01
  17   1    -0.04   0.09   0.03    -0.00   0.01   0.01    -0.02   0.05   0.02
  18   1    -0.04  -0.02  -0.08    -0.00   0.00  -0.01    -0.02  -0.03  -0.06
  19   1     0.02   0.06  -0.04     0.00   0.00   0.00     0.03   0.01  -0.03
  20   1     0.16  -0.02   0.05     0.00   0.00   0.00     0.11  -0.02   0.03
  21   1     0.02  -0.15  -0.05     0.01   0.01  -0.00     0.08  -0.05  -0.01
  22   1    -0.00  -0.00  -0.08    -0.02  -0.02  -0.00     0.05   0.01  -0.02
  23   1     0.08   0.07  -0.01    -0.00   0.01   0.04     0.04  -0.10  -0.01
  24   1    -0.04   0.08  -0.02     0.02  -0.03  -0.17     0.01   0.00   0.00
  25   1     0.05  -0.04  -0.00    -0.03   0.04   0.25     0.07  -0.02   0.01
  26   1     0.02  -0.04   0.02    -0.01   0.02   0.12    -0.12   0.04  -0.00
  27   1    -0.07  -0.02  -0.02    -0.02   0.04   0.21     0.08  -0.04   0.01
  28   1    -0.02  -0.05   0.02     0.00  -0.01  -0.02    -0.06   0.04   0.01
  29   1    -0.07  -0.05  -0.00    -0.02   0.04   0.22     0.09  -0.05   0.02
                     22                     23                     24
                        a                      a                      a 
 Frequencies --   601.2360               714.8812               735.8849
 Red. masses --    10.3313                 9.8345                11.5274
 Frc consts  --     0.0000                 0.0000                 0.0000
 IR Inten    --     3.9867                 0.3241                41.6387
 Raman Activ --     0.0000                 0.0000                 0.0000
 Depolar     --     0.0000                 0.0000                 0.0000
 Atom AN      X      Y      Z        X      Y      Z        X      Y      Z
   1   7    -0.00   0.01   0.00     0.00   0.01   0.00    -0.00   0.00  -0.00
   2   6     0.02  -0.01   0.02     0.01   0.00   0.00    -0.02   0.08  -0.07
   3   6     0.01  -0.01  -0.00     0.00  -0.01  -0.01     0.03   0.04  -0.02
   4   8    -0.03   0.04   0.11    -0.00  -0.01   0.01     0.25  -0.44   0.10
   5   6     0.04  -0.10  -0.60     0.02  -0.04  -0.22     0.10  -0.01   0.06
   6   6    -0.02   0.04   0.23    -0.01   0.03   0.12    -0.09   0.18  -0.09
   7   6     0.03  -0.02  -0.17     0.02  -0.03  -0.22     0.03   0.50  -0.08
   8   6     0.01   0.01   0.11    -0.01   0.02   0.10     0.13   0.08  -0.02
   9   6    -0.04   0.03   0.22     0.05  -0.09  -0.51    -0.12  -0.03   0.02
  10   6    -0.00  -0.03  -0.26    -0.03   0.04   0.23    -0.34   0.01  -0.03
  11   6    -0.02   0.07   0.30     0.02  -0.03  -0.15    -0.12  -0.06   0.02
  12   6     0.04  -0.04  -0.25    -0.02   0.04   0.23     0.04   0.05  -0.01
  13   6    -0.01   0.02   0.27     0.01  -0.03  -0.11     0.15  -0.20   0.07
  14   6    -0.02  -0.01   0.06    -0.05   0.09   0.50     0.03  -0.11  -0.02
  15  17     0.00  -0.00  -0.00     0.00  -0.00  -0.00    -0.00   0.00   0.01
  16   1    -0.00   0.01   0.00    -0.01  -0.01  -0.01    -0.02  -0.06  -0.04
  17   1    -0.00   0.01   0.01    -0.00   0.01   0.01    -0.00  -0.00   0.05
  18   1    -0.01  -0.00  -0.01    -0.00  -0.00  -0.00     0.00   0.01   0.04
  19   1     0.01  -0.00   0.00     0.00  -0.01   0.02     0.03  -0.07   0.11
  20   1     0.01  -0.00   0.00    -0.01  -0.00  -0.00    -0.17   0.01  -0.06
  21   1    -0.01  -0.02  -0.01    -0.01   0.00  -0.00    -0.07   0.07   0.02
  22   1     0.03   0.01  -0.01     0.01  -0.01   0.00    -0.03  -0.03   0.03
  23   1    -0.02   0.03   0.23    -0.01   0.03   0.14    -0.02   0.06   0.04
  24   1     0.00  -0.00  -0.03    -0.02   0.03   0.15    -0.01   0.15   0.00
  25   1     0.00   0.00   0.03    -0.03   0.04   0.25     0.00  -0.00   0.03
  26   1     0.01  -0.03  -0.21    -0.00  -0.00  -0.01    -0.11  -0.03  -0.04
  27   1    -0.00   0.01   0.06     0.01  -0.02  -0.12     0.00  -0.11  -0.01
  28   1     0.02  -0.04  -0.22     0.01  -0.02  -0.13    -0.02   0.01  -0.03
  29   1     0.01  -0.01  -0.01     0.02  -0.05  -0.23     0.02  -0.09   0.00
                     25                     26                     27
                        a                      a                      a 
 Frequencies --   750.8281               776.6987               794.6291
 Red. masses --     5.1134                10.6772                 3.9779
 Frc consts  --     0.0000                 0.0000                 0.0000
 IR Inten    --     0.3206                 3.2251                53.4290
 Raman Activ --     0.0000                 0.0000                 0.0000
 Depolar     --     0.0000                 0.0000                 0.0000
 Atom AN      X      Y      Z        X      Y      Z        X      Y      Z
   1   7    -0.01  -0.02  -0.00    -0.00  -0.01  -0.00     0.02   0.02   0.03
   2   6    -0.02   0.01  -0.01    -0.00  -0.04   0.04     0.06  -0.00  -0.01
   3   6    -0.00   0.02   0.02    -0.01   0.01   0.01     0.02  -0.02  -0.06
   4   8     0.04  -0.04   0.07    -0.06   0.13  -0.04    -0.06   0.02  -0.02
   5   6     0.05  -0.06  -0.30    -0.17  -0.17   0.02    -0.05   0.01   0.06
   6   6    -0.04   0.04   0.18    -0.36  -0.26   0.02     0.01  -0.06  -0.24
   7   6     0.00   0.08   0.04     0.10   0.25  -0.03     0.02  -0.04  -0.13
   8   6    -0.00   0.05   0.15     0.21  -0.03   0.03     0.03  -0.06  -0.16
   9   6    -0.01  -0.01  -0.06     0.14  -0.09   0.02    -0.00   0.03   0.22
  10   6    -0.03  -0.03  -0.13     0.11  -0.22   0.06     0.05  -0.04  -0.12
  11   6    -0.01  -0.04  -0.16    -0.33  -0.17   0.00     0.00  -0.02  -0.08
  12   6     0.01   0.01  -0.06     0.09   0.40  -0.06     0.02  -0.00  -0.11
  13   6     0.05  -0.06  -0.20     0.12   0.20  -0.01     0.00   0.01  -0.15
  14   6    -0.02   0.04   0.31     0.06  -0.00  -0.00    -0.03   0.04   0.16
  15  17     0.00   0.00   0.00    -0.00  -0.00  -0.00     0.00   0.00   0.00
  16   1     0.01   0.02   0.01     0.01   0.03   0.02    -0.03  -0.01  -0.01
  17   1     0.01  -0.02  -0.02     0.01  -0.01  -0.04    -0.02   0.04   0.07
  18   1     0.01   0.01   0.01     0.00  -0.00  -0.02    -0.02  -0.02  -0.02
  19   1    -0.00   0.00  -0.02    -0.01   0.03  -0.06     0.02  -0.03   0.07
  20   1     0.01   0.01   0.00     0.08   0.00   0.03    -0.06  -0.00  -0.02
  21   1    -0.00  -0.01  -0.00     0.04  -0.03  -0.01    -0.03   0.06   0.01
  22   1    -0.01   0.02  -0.01     0.02   0.02  -0.02     0.03  -0.06   0.03
  23   1     0.02  -0.04  -0.24    -0.05  -0.19   0.01    -0.06   0.07   0.51
  24   1     0.03  -0.02  -0.21     0.10   0.06  -0.00    -0.04   0.06   0.34
  25   1     0.03  -0.05  -0.29     0.02  -0.06   0.02    -0.03   0.04   0.29
  26   1    -0.05   0.06   0.34     0.09   0.01  -0.01     0.00   0.03   0.16
  27   1    -0.04   0.05   0.36    -0.07  -0.10  -0.01    -0.03   0.05   0.25
  28   1    -0.04   0.07   0.33     0.15   0.09  -0.03    -0.02   0.06   0.29
  29   1    -0.03   0.04   0.26     0.01   0.02  -0.02    -0.02   0.05   0.20
                     28                     29                     30
                        a                      a                      a 
 Frequencies --   816.4371               854.9625               859.9571
 Red. masses --     4.4586                 4.1536                 9.9685
 Frc consts  --     0.0000                 0.0000                 0.0000
 IR Inten    --    18.7136                 0.6046                 5.4764
 Raman Activ --     0.0000                 0.0000                 0.0000
 Depolar     --     0.0000                 0.0000                 0.0000
 Atom AN      X      Y      Z        X      Y      Z        X      Y      Z
   1   7    -0.11  -0.02   0.02     0.01  -0.03  -0.05     0.05   0.02  -0.01
   2   6    -0.27  -0.08   0.10     0.03   0.03   0.01     0.05   0.02  -0.03
   3   6    -0.05  -0.05   0.08    -0.00   0.05   0.05    -0.05  -0.05  -0.02
   4   8     0.23   0.05  -0.04    -0.00  -0.04   0.01    -0.13   0.15  -0.02
   5   6     0.15  -0.02   0.04    -0.02  -0.01  -0.06     0.07   0.05  -0.01
   6   6     0.03   0.01  -0.01    -0.06   0.06   0.32     0.16  -0.01   0.06
   7   6     0.00   0.02  -0.06     0.01   0.01  -0.11     0.02  -0.20   0.03
   8   6    -0.07   0.13  -0.11     0.08  -0.12  -0.26    -0.27   0.41  -0.13
   9   6    -0.05   0.05   0.04    -0.01  -0.01   0.09     0.03   0.13  -0.02
  10   6    -0.12   0.01  -0.02    -0.00   0.03   0.10     0.02  -0.12   0.05
  11   6    -0.05  -0.02  -0.01     0.04   0.03   0.08    -0.29  -0.11   0.01
  12   6    -0.01  -0.02  -0.03     0.02  -0.05  -0.12    -0.00   0.20  -0.06
  13   6     0.07  -0.13   0.01    -0.03   0.03  -0.13     0.28  -0.33   0.06
  14   6     0.07  -0.05   0.03    -0.02   0.02  -0.00     0.12  -0.14   0.04
  15  17    -0.00  -0.00  -0.01     0.00   0.00   0.00     0.00   0.00   0.00
  16   1     0.14   0.21   0.15    -0.01  -0.06  -0.04    -0.05  -0.09  -0.06
  17   1     0.09  -0.18  -0.37    -0.00  -0.00   0.03    -0.03   0.07   0.14
  18   1     0.10   0.12   0.04    -0.00  -0.01   0.02    -0.04  -0.04  -0.00
  19   1    -0.11   0.14  -0.38     0.01  -0.02   0.04    -0.00   0.01   0.10
  20   1     0.33   0.09   0.16    -0.02  -0.03  -0.02    -0.06  -0.05  -0.05
  21   1     0.07  -0.14  -0.04     0.02  -0.04  -0.01    -0.01   0.01   0.01
  22   1     0.02   0.10  -0.08    -0.04   0.06  -0.03    -0.00  -0.04   0.02
  23   1    -0.01   0.04   0.07     0.05  -0.09  -0.50     0.04   0.02  -0.07
  24   1     0.02   0.02   0.12    -0.04   0.04   0.17     0.13  -0.06   0.04
  25   1    -0.02   0.09   0.13    -0.05   0.05   0.47    -0.02   0.20   0.00
  26   1    -0.05  -0.02  -0.02     0.03  -0.04  -0.24     0.03  -0.02  -0.05
  27   1    -0.00  -0.03   0.03     0.02   0.00  -0.07    -0.06  -0.08  -0.02
  28   1    -0.04   0.01   0.04    -0.01   0.03   0.20    -0.05   0.06   0.01
  29   1    -0.00  -0.05   0.04    -0.03   0.08   0.25    -0.01  -0.18   0.10
                     31                     32                     33
                        a                      a                      a 
 Frequencies --   866.5889               904.6827               910.2714
 Red. masses --     4.0480                 3.8461                 4.0186
 Frc consts  --     0.0000                 0.0000                 0.0000
 IR Inten    --     1.0576                 2.0031                 1.8807
 Raman Activ --     0.0000                 0.0000                 0.0000
 Depolar     --     0.0000                 0.0000                 0.0000
 Atom AN      X      Y      Z        X      Y      Z        X      Y      Z
   1   7     0.00  -0.00  -0.04     0.00  -0.00  -0.10    -0.01   0.07   0.17
   2   6     0.01   0.01   0.01    -0.01   0.03   0.05    -0.03  -0.05  -0.11
   3   6    -0.01   0.01   0.04    -0.02   0.03   0.11     0.05  -0.10  -0.16
   4   8    -0.01   0.00  -0.01     0.02  -0.00  -0.03    -0.00   0.03   0.05
   5   6     0.00   0.00   0.01     0.01  -0.00   0.02     0.00  -0.00  -0.06
   6   6    -0.01   0.02   0.14    -0.01   0.00   0.02    -0.00  -0.01  -0.01
   7   6     0.01  -0.01  -0.04     0.02  -0.02  -0.17    -0.03   0.04   0.24
   8   6     0.01  -0.01  -0.18    -0.00   0.01   0.08     0.02  -0.04  -0.19
   9   6    -0.01   0.03   0.14    -0.01   0.01   0.06    -0.00   0.00   0.01
  10   6     0.03  -0.05  -0.27     0.02  -0.04  -0.22     0.02  -0.02  -0.11
  11   6     0.01  -0.04  -0.16    -0.01   0.04   0.19    -0.01   0.01   0.05
  12   6    -0.01   0.03   0.13    -0.02   0.03   0.21    -0.02   0.03   0.18
  13   6    -0.01   0.03   0.25     0.02  -0.04  -0.23     0.02  -0.03  -0.16
  14   6     0.01  -0.02  -0.09     0.00   0.00  -0.00    -0.01   0.01   0.04
  15  17     0.00   0.00   0.00    -0.00   0.00   0.00    -0.00  -0.00  -0.00
  16   1    -0.00  -0.05  -0.04    -0.00  -0.13  -0.10     0.00   0.15   0.12
  17   1    -0.00  -0.00   0.03     0.00  -0.02   0.05    -0.00   0.03  -0.05
  18   1    -0.00   0.00   0.03    -0.01   0.01   0.08     0.01   0.02  -0.06
  19   1     0.00   0.00   0.02    -0.01   0.03   0.02    -0.00  -0.02  -0.04
  20   1     0.00  -0.03  -0.02     0.04  -0.08  -0.03    -0.05   0.10   0.03
  21   1     0.02  -0.04  -0.01     0.04  -0.12  -0.04    -0.04   0.16   0.06
  22   1    -0.02   0.04  -0.02    -0.04   0.12  -0.07     0.08  -0.20   0.12
  23   1     0.03  -0.04  -0.22     0.00  -0.01  -0.03    -0.00  -0.00   0.04
  24   1    -0.00   0.01   0.08    -0.04   0.06   0.32     0.05  -0.08  -0.46
  25   1    -0.03   0.06   0.27     0.02  -0.03  -0.17    -0.04   0.07   0.36
  26   1    -0.05   0.09   0.50    -0.04   0.06   0.34    -0.01   0.03   0.16
  27   1    -0.03   0.04   0.23     0.04  -0.06  -0.32     0.01  -0.01  -0.08
  28   1     0.01  -0.02  -0.15     0.04  -0.07  -0.38     0.04  -0.06  -0.32
  29   1     0.05  -0.10  -0.48    -0.04   0.08   0.38    -0.03   0.05   0.28
                     34                     35                     36
                        a                      a                      a 
 Frequencies --   916.1884               917.5660               921.0292
 Red. masses --     7.8522                 3.3647                 3.4508
 Frc consts  --     0.0000                 0.0000                 0.0000
 IR Inten    --    19.8035                11.2251                 0.3259
 Raman Activ --     0.0000                 0.0000                 0.0000
 Depolar     --     0.0000                 0.0000                 0.0000
 Atom AN      X      Y      Z        X      Y      Z        X      Y      Z
   1   7    -0.06   0.38   0.18     0.00  -0.02   0.21    -0.00   0.03   0.08
   2   6    -0.22  -0.06  -0.26     0.04  -0.06  -0.09    -0.01  -0.02  -0.05
   3   6     0.12  -0.43  -0.07     0.04  -0.02  -0.23     0.02  -0.04  -0.07
   4   8     0.13   0.17   0.01    -0.05  -0.02   0.07    -0.00   0.01   0.02
   5   6     0.05  -0.01   0.01    -0.03   0.01   0.01    -0.01   0.01   0.02
   6   6    -0.07  -0.05   0.03     0.01   0.02   0.09    -0.01   0.01   0.05
   7   6     0.00   0.02  -0.05     0.02  -0.05  -0.18     0.01  -0.03  -0.13
   8   6     0.02  -0.02   0.03    -0.01   0.02   0.08    -0.01   0.01   0.06
   9   6    -0.01  -0.02  -0.00     0.00   0.01   0.01    -0.01   0.02   0.10
  10   6    -0.05   0.03  -0.01     0.03  -0.02  -0.07    -0.01   0.02   0.13
  11   6     0.04   0.01   0.03    -0.03   0.02   0.12     0.03  -0.05  -0.29
  12   6     0.00  -0.04  -0.04     0.01   0.00  -0.08    -0.02   0.04   0.22
  13   6    -0.04   0.05   0.02     0.01  -0.00   0.04     0.01  -0.01  -0.05
  14   6     0.02   0.01  -0.00    -0.01  -0.01  -0.02     0.01  -0.02  -0.11
  15  17    -0.00   0.01   0.00    -0.00  -0.01  -0.01    -0.00  -0.00  -0.00
  16   1     0.01  -0.19  -0.11     0.00   0.31   0.23     0.00   0.07   0.06
  17   1     0.01   0.01   0.17    -0.01   0.05  -0.14    -0.00   0.01  -0.02
  18   1     0.00   0.16   0.35     0.02  -0.03  -0.22     0.01   0.01  -0.03
  19   1    -0.14   0.13  -0.02     0.05  -0.08  -0.05     0.00  -0.01  -0.02
  20   1     0.00  -0.10  -0.10    -0.10   0.19   0.07    -0.03   0.05   0.01
  21   1     0.10  -0.02   0.05    -0.08   0.27   0.09    -0.01   0.08   0.03
  22   1     0.19  -0.22   0.08     0.05  -0.25   0.17     0.03  -0.09   0.06
  23   1     0.01  -0.08  -0.06     0.02  -0.03  -0.21     0.01  -0.02  -0.12
  24   1     0.00   0.02   0.08    -0.04   0.06   0.36    -0.03   0.05   0.26
  25   1     0.01  -0.02  -0.05     0.02  -0.02  -0.17     0.01  -0.02  -0.13
  26   1    -0.02  -0.00   0.00    -0.01   0.03   0.16     0.03  -0.05  -0.30
  27   1     0.02  -0.01  -0.04     0.02  -0.04  -0.25    -0.06   0.10   0.55
  28   1    -0.00   0.01   0.10    -0.01   0.03   0.14     0.05  -0.08  -0.43
  29   1     0.00   0.01  -0.06     0.01  -0.02  -0.10    -0.02   0.03   0.17
                     37                     38                     39
                        a                      a                      a 
 Frequencies --   968.4876              1028.4266              1071.7181
 Red. masses --     7.4024                10.1735                 9.2780
 Frc consts  --     0.0000                 0.0000                 0.0000
 IR Inten    --    32.4876               143.9257                12.3982
 Raman Activ --     0.0000                 0.0000                 0.0000
 Depolar     --     0.0000                 0.0000                 0.0000
 Atom AN      X      Y      Z        X      Y      Z        X      Y      Z
   1   7     0.21  -0.16  -0.07     0.10  -0.05  -0.04     0.16   0.19   0.34
   2   6    -0.13   0.02   0.11    -0.20   0.02   0.04    -0.01  -0.47  -0.40
   3   6    -0.33  -0.10  -0.08    -0.01  -0.04  -0.01    -0.18   0.29   0.16
   4   8     0.23   0.24   0.01     0.38  -0.15   0.07     0.03  -0.06  -0.05
   5   6     0.22  -0.07   0.03    -0.34   0.05  -0.04    -0.00  -0.03   0.01
   6   6    -0.13  -0.09   0.01     0.22   0.16  -0.00     0.02   0.02  -0.00
   7   6     0.02   0.05  -0.01    -0.04  -0.02  -0.00     0.00   0.01  -0.00
   8   6     0.04   0.01   0.00    -0.03  -0.07   0.01     0.01  -0.00   0.00
   9   6    -0.00  -0.03   0.01    -0.08   0.06  -0.02    -0.00   0.01  -0.00
  10   6    -0.18   0.07  -0.04     0.31  -0.13   0.06     0.00  -0.00  -0.00
  11   6     0.07   0.01   0.01    -0.07   0.01  -0.01     0.00  -0.00   0.00
  12   6    -0.01  -0.12   0.02     0.01   0.18  -0.03     0.00   0.01  -0.00
  13   6    -0.08   0.06  -0.02     0.10  -0.06   0.02    -0.00  -0.00   0.00
  14   6     0.17   0.03   0.01    -0.38  -0.05  -0.03     0.00   0.00   0.00
  15  17     0.00  -0.00   0.00     0.00  -0.00   0.00     0.00  -0.00  -0.00
  16   1    -0.13   0.03  -0.02    -0.06  -0.00  -0.02    -0.05   0.11   0.10
  17   1    -0.10   0.24   0.21    -0.04   0.11   0.10    -0.04   0.18   0.18
  18   1    -0.12  -0.25  -0.34    -0.05  -0.10  -0.11    -0.03  -0.04  -0.06
  19   1    -0.18   0.29   0.07    -0.15   0.21  -0.03    -0.00  -0.12  -0.13
  20   1     0.06  -0.02   0.03     0.06  -0.00   0.02     0.10  -0.17  -0.11
  21   1    -0.01   0.05   0.03     0.07  -0.01   0.01    -0.11  -0.11  -0.08
  22   1    -0.01  -0.06   0.03     0.08  -0.03   0.02    -0.00   0.23  -0.11
  23   1    -0.04  -0.00  -0.02     0.09  -0.03   0.02    -0.02   0.06   0.00
  24   1     0.07   0.01   0.01    -0.20   0.02  -0.03    -0.01   0.00   0.00
  25   1     0.01  -0.00   0.00    -0.01  -0.02   0.00     0.00   0.00   0.00
  26   1    -0.07  -0.01  -0.00     0.11   0.00   0.01    -0.00  -0.00   0.00
  27   1     0.03  -0.03   0.01    -0.05   0.10  -0.02     0.00  -0.00  -0.00
  28   1     0.01  -0.03   0.01    -0.04   0.06  -0.01     0.00   0.00  -0.00
  29   1    -0.03  -0.00  -0.00     0.10   0.08  -0.01    -0.01  -0.01  -0.00
                     40                     41                     42
                        a                      a                      a 
 Frequencies --  1082.5065              1111.4677              1125.0921
 Red. masses --     6.5359                10.1087                 6.8260
 Frc consts  --     0.0000                 0.0000                 0.0000
 IR Inten    --     0.3623                47.5054                 5.0680
 Raman Activ --     0.0000                 0.0000                 0.0000
 Depolar     --     0.0000                 0.0000                 0.0000
 Atom AN      X      Y      Z        X      Y      Z        X      Y      Z
   1   7    -0.00   0.01   0.01     0.15  -0.04  -0.01     0.04   0.14  -0.11
   2   6     0.01  -0.01  -0.00    -0.34   0.06  -0.03    -0.02  -0.34   0.29
   3   6    -0.02  -0.01  -0.00     0.55   0.16   0.10    -0.00   0.29  -0.39
   4   8     0.02   0.00   0.00    -0.40  -0.22  -0.03    -0.10  -0.08   0.13
   5   6    -0.01   0.01  -0.00     0.02  -0.02   0.01     0.02  -0.05   0.01
   6   6    -0.05  -0.00  -0.00     0.07  -0.01   0.01     0.01   0.03  -0.00
   7   6    -0.01  -0.04   0.01     0.00   0.06  -0.01     0.00   0.01   0.00
   8   6     0.02  -0.01   0.00    -0.09   0.04  -0.02     0.02  -0.01   0.00
   9   6     0.08   0.01   0.01     0.07  -0.04   0.01     0.00   0.02  -0.00
  10   6    -0.09   0.19  -0.05    -0.09   0.06  -0.02    -0.00  -0.00   0.00
  11   6    -0.43   0.01  -0.05    -0.01  -0.00  -0.00    -0.00   0.00  -0.00
  12   6     0.11  -0.41   0.09     0.03  -0.06   0.01     0.00  -0.00   0.00
  13   6     0.23  -0.05   0.03    -0.03   0.02  -0.01     0.00  -0.01   0.00
  14   6    -0.02   0.09  -0.02     0.09   0.02   0.01     0.01   0.02  -0.00
  15  17    -0.00   0.00   0.00     0.00  -0.00  -0.00    -0.00   0.00   0.00
  16   1     0.00  -0.00  -0.00    -0.08   0.02  -0.01    -0.00  -0.18  -0.15
  17   1     0.00  -0.00  -0.00    -0.04   0.13   0.11     0.02  -0.01   0.12
  18   1    -0.00   0.00   0.01    -0.05  -0.11  -0.13    -0.03   0.02   0.16
  19   1     0.00  -0.01   0.00    -0.16   0.19  -0.10    -0.03   0.01  -0.17
  20   1     0.00  -0.01  -0.00     0.04   0.09   0.05     0.31  -0.12   0.11
  21   1    -0.01   0.00   0.00     0.13  -0.05  -0.01     0.16   0.31   0.07
  22   1    -0.01   0.00  -0.00     0.19   0.03   0.01    -0.26  -0.15   0.11
  23   1    -0.03   0.03  -0.01     0.05  -0.07   0.02    -0.03   0.09  -0.03
  24   1     0.01  -0.02   0.00     0.05   0.01   0.00    -0.02   0.00  -0.01
  25   1     0.02   0.02  -0.00    -0.10  -0.08   0.00     0.01   0.00  -0.00
  26   1     0.21   0.37  -0.04     0.00   0.05  -0.01    -0.01  -0.01  -0.00
  27   1    -0.19   0.16  -0.05     0.01  -0.05   0.01    -0.00  -0.00   0.00
  28   1     0.18  -0.14   0.05     0.07  -0.03   0.01    -0.00   0.00   0.00
  29   1     0.32   0.30  -0.03    -0.04  -0.04   0.00    -0.01  -0.01   0.00
                     43                     44                     45
                        a                      a                      a 
 Frequencies --  1136.4558              1163.9872              1175.5910
 Red. masses --     6.1106                 3.5085                 1.7963
 Frc consts  --     0.0000                 0.0000                 0.0000
 IR Inten    --     4.7642                15.6668                 3.1497
 Raman Activ --     0.0000                 0.0000                 0.0000
 Depolar     --     0.0000                 0.0000                 0.0000
 Atom AN      X      Y      Z        X      Y      Z        X      Y      Z
   1   7    -0.03   0.01   0.01    -0.00  -0.00  -0.01    -0.01  -0.00  -0.00
   2   6     0.10  -0.03   0.01     0.00  -0.00   0.01     0.02   0.00   0.00
   3   6    -0.17   0.02  -0.05    -0.03  -0.01  -0.01    -0.04   0.00  -0.01
   4   8     0.07   0.08   0.01     0.11  -0.06   0.02     0.03  -0.01   0.01
   5   6    -0.08  -0.08   0.00    -0.21   0.05  -0.03    -0.10  -0.03  -0.00
   6   6     0.39  -0.07   0.05    -0.02   0.10  -0.02     0.01   0.03  -0.00
   7   6     0.02   0.21  -0.04    -0.04  -0.10   0.01     0.03  -0.01   0.01
   8   6    -0.30   0.11  -0.05     0.00   0.07  -0.01    -0.03  -0.05   0.01
   9   6     0.13  -0.11   0.03     0.08  -0.03   0.01    -0.04   0.12  -0.02
  10   6    -0.09   0.09  -0.03    -0.05   0.16  -0.03    -0.03   0.04  -0.01
  11   6     0.01  -0.00   0.00     0.05  -0.08   0.02    -0.07   0.07  -0.02
  12   6     0.04  -0.01   0.01     0.08   0.02   0.01     0.09  -0.04   0.02
  13   6    -0.10   0.09  -0.03    -0.21   0.05  -0.03     0.03  -0.02   0.01
  14   6    -0.04  -0.11   0.02     0.02  -0.16   0.03     0.11  -0.02   0.02
  15  17    -0.00   0.00   0.00    -0.00  -0.00   0.00    -0.00  -0.00   0.00
  16   1     0.02  -0.00   0.00     0.00  -0.00  -0.00     0.00   0.00   0.00
  17   1     0.01  -0.03  -0.02     0.00  -0.00  -0.00     0.00  -0.00  -0.01
  18   1     0.01   0.02   0.03     0.01   0.01   0.01     0.01   0.01   0.00
  19   1     0.05  -0.06   0.02     0.00  -0.00  -0.01     0.01  -0.01   0.00
  20   1     0.00  -0.03  -0.01     0.00  -0.00   0.00    -0.00  -0.00  -0.00
  21   1     0.03   0.00  -0.00     0.01  -0.00   0.00     0.03  -0.01  -0.00
  22   1    -0.04  -0.03   0.02     0.01  -0.00   0.00     0.01  -0.01   0.01
  23   1     0.21  -0.26   0.07     0.00   0.00   0.00     0.05  -0.09   0.02
  24   1     0.11   0.05   0.00    -0.15  -0.01  -0.02    -0.11   0.01  -0.01
  25   1    -0.42  -0.39   0.02     0.21   0.29  -0.03    -0.03  -0.04   0.00
  26   1     0.02   0.09  -0.01     0.22   0.34  -0.04    -0.23  -0.27   0.03
  27   1     0.06  -0.15   0.03     0.16  -0.38   0.09    -0.22   0.50  -0.11
  28   1     0.14  -0.02   0.02     0.43  -0.04   0.05     0.57  -0.08   0.08
  29   1     0.01   0.08  -0.01    -0.24  -0.21   0.02    -0.21  -0.29   0.03
                     46                     47                     48
                        a                      a                      a 
 Frequencies --  1197.7337              1220.2025              1221.8041
 Red. masses --     3.8541                 2.9968                 5.3229
 Frc consts  --     0.0000                 0.0000                 0.0000
 IR Inten    --    45.6791                23.3332                56.0567
 Raman Activ --     0.0000                 0.0000                 0.0000
 Depolar     --     0.0000                 0.0000                 0.0000
 Atom AN      X      Y      Z        X      Y      Z        X      Y      Z
   1   7     0.01   0.00  -0.02     0.12   0.13  -0.17     0.02  -0.01   0.03
   2   6    -0.03  -0.01   0.03    -0.07  -0.12   0.21    -0.01   0.02  -0.05
   3   6     0.03  -0.03   0.01    -0.12   0.00   0.06    -0.06   0.05  -0.03
   4   8     0.15  -0.11   0.02     0.06   0.00  -0.10     0.09  -0.13   0.08
   5   6    -0.21   0.24  -0.06    -0.03   0.03  -0.01    -0.20   0.25  -0.06
   6   6    -0.14   0.14  -0.04     0.00  -0.01   0.01    -0.08   0.03  -0.02
   7   6     0.09  -0.16   0.04    -0.00   0.02  -0.00     0.01   0.03  -0.00
   8   6     0.02  -0.02   0.01    -0.04   0.00  -0.01    -0.17  -0.01  -0.02
   9   6     0.07  -0.05   0.02    -0.02  -0.04   0.01    -0.11  -0.25   0.03
  10   6    -0.01   0.00  -0.00    -0.01  -0.02   0.00    -0.03  -0.08   0.01
  11   6     0.01   0.02  -0.00     0.02   0.00   0.00     0.10   0.03   0.01
  12   6     0.02   0.03  -0.00    -0.00  -0.02   0.00    -0.01  -0.08   0.01
  13   6    -0.07  -0.00  -0.01     0.01   0.02  -0.00     0.04   0.08  -0.01
  14   6    -0.09  -0.04  -0.00     0.06   0.02   0.00     0.27   0.12   0.01
  15  17    -0.00  -0.00   0.00     0.00   0.00   0.00    -0.00  -0.00  -0.00
  16   1    -0.01  -0.01  -0.01    -0.04  -0.14  -0.16    -0.01   0.02   0.02
  17   1    -0.00   0.01   0.02     0.01   0.03   0.16    -0.00   0.02  -0.02
  18   1    -0.00   0.00   0.02    -0.06  -0.04   0.09     0.01  -0.00  -0.02
  19   1    -0.01   0.01  -0.03     0.13  -0.29  -0.26     0.03  -0.05  -0.03
  20   1     0.01   0.02   0.02    -0.07   0.37   0.27    -0.01  -0.02  -0.03
  21   1    -0.07   0.02   0.00    -0.40  -0.02  -0.06     0.25  -0.04   0.01
  22   1     0.04   0.01  -0.01     0.41  -0.02   0.04    -0.14  -0.02   0.02
  23   1    -0.16   0.31  -0.07     0.06  -0.13  -0.01     0.17  -0.45   0.11
  24   1     0.72  -0.14   0.10    -0.01   0.01  -0.00     0.26  -0.02   0.03
  25   1    -0.13  -0.18   0.02     0.03   0.05  -0.01     0.15   0.26  -0.03
  26   1    -0.04  -0.04   0.00     0.01   0.02  -0.00     0.09   0.09  -0.01
  27   1     0.01  -0.00   0.00    -0.01   0.04  -0.01    -0.05   0.20  -0.04
  28   1     0.13  -0.01   0.02    -0.06   0.00  -0.00    -0.23   0.01  -0.03
  29   1    -0.03  -0.01  -0.00    -0.00  -0.00   0.00    -0.04  -0.05   0.00
                     49                     50                     51
                        a                      a                      a 
 Frequencies --  1224.1567              1243.1675              1246.0948
 Red. masses --     8.8617                 3.8643                 3.7839
 Frc consts  --     0.0000                 0.0000                 0.0000
 IR Inten    --    36.8097                 7.4918                 5.7058
 Raman Activ --     0.0000                 0.0000                 0.0000
 Depolar     --     0.0000                 0.0000                 0.0000
 Atom AN      X      Y      Z        X      Y      Z        X      Y      Z
   1   7    -0.01  -0.00  -0.00    -0.10  -0.04   0.01    -0.12  -0.04   0.01
   2   6     0.02   0.01   0.00     0.11  -0.03   0.07     0.11  -0.05   0.09
   3   6    -0.06   0.03  -0.01    -0.05   0.11  -0.05    -0.01   0.17  -0.06
   4   8     0.09  -0.08   0.02    -0.01  -0.03  -0.05    -0.03  -0.10  -0.05
   5   6    -0.32   0.03  -0.04     0.01  -0.06   0.01    -0.07   0.04  -0.02
   6   6    -0.12   0.13  -0.04    -0.01  -0.02   0.01     0.03   0.03   0.00
   7   6     0.10  -0.21   0.05     0.06   0.04  -0.00    -0.04   0.01  -0.01
   8   6     0.01  -0.10   0.02    -0.00  -0.09   0.02    -0.07   0.08  -0.02
   9   6     0.36   0.37  -0.03    -0.18   0.10  -0.04     0.11  -0.18   0.04
  10   6    -0.14   0.01  -0.02     0.02  -0.07   0.02    -0.04   0.02  -0.01
  11   6    -0.17   0.05  -0.03     0.02  -0.03   0.01     0.02   0.04  -0.00
  12   6     0.06  -0.09   0.02     0.09  -0.09   0.03    -0.07   0.05  -0.02
  13   6    -0.03  -0.11   0.02     0.09  -0.06   0.02    -0.07   0.08  -0.02
  14   6     0.28   0.23  -0.01    -0.01   0.32  -0.06     0.11  -0.23   0.05
  15  17    -0.00  -0.00   0.00    -0.00  -0.00   0.00    -0.00  -0.00   0.00
  16   1     0.01   0.00   0.01     0.05   0.01   0.04     0.06   0.02   0.04
  17   1     0.00  -0.01  -0.01     0.01  -0.06  -0.07     0.01  -0.07  -0.07
  18   1     0.01   0.01   0.00     0.03   0.05   0.03     0.04   0.06   0.03
  19   1     0.01  -0.00   0.01    -0.09   0.20   0.17    -0.12   0.27   0.20
  20   1     0.00  -0.01  -0.01     0.12  -0.21  -0.08     0.16  -0.26  -0.09
  21   1     0.06  -0.02  -0.00    -0.22   0.06  -0.03    -0.30   0.08  -0.05
  22   1     0.07  -0.02   0.02     0.34  -0.03   0.04     0.38  -0.04   0.05
  23   1     0.04  -0.15   0.03     0.00  -0.01  -0.02     0.04  -0.07  -0.01
  24   1    -0.17  -0.04  -0.01     0.05   0.01   0.01     0.01   0.00   0.00
  25   1    -0.07  -0.13   0.02    -0.11  -0.16   0.02     0.14   0.22  -0.02
  26   1    -0.20  -0.19   0.01     0.24   0.28  -0.02    -0.16  -0.19   0.02
  27   1     0.08  -0.28   0.06    -0.02   0.05  -0.01    -0.01   0.04  -0.01
  28   1    -0.19  -0.00  -0.02    -0.17  -0.00  -0.02     0.06   0.00   0.00
  29   1     0.03   0.02  -0.00    -0.25  -0.38   0.04     0.19   0.29  -0.04
                     52                     53                     54
                        a                      a                      a 
 Frequencies --  1316.3839              1335.2647              1348.6317
 Red. masses --     3.7336                 8.8331                 3.7210
 Frc consts  --     0.0000                 0.0000                 0.0000
 IR Inten    --    15.0713                 2.5827                 9.8444
 Raman Activ --     0.0000                 0.0000                 0.0000
 Depolar     --     0.0000                 0.0000                 0.0000
 Atom AN      X      Y      Z        X      Y      Z        X      Y      Z
   1   7     0.08   0.02   0.15    -0.02  -0.00  -0.02    -0.06   0.00  -0.09
   2   6    -0.17   0.33   0.10     0.03  -0.06   0.00     0.19  -0.14  -0.08
   3   6    -0.16   0.01  -0.08    -0.02   0.09  -0.01    -0.32   0.13   0.01
   4   8    -0.05  -0.06  -0.00     0.01  -0.10   0.01    -0.10  -0.10   0.01
   5   6     0.09   0.02   0.01     0.29   0.45  -0.05     0.08  -0.07   0.02
   6   6    -0.01  -0.01   0.00    -0.13  -0.15   0.01     0.01   0.03  -0.01
   7   6    -0.04  -0.01  -0.00    -0.20  -0.11  -0.00    -0.02   0.02  -0.01
   8   6     0.05   0.00   0.00     0.22   0.01   0.02     0.01  -0.02   0.01
   9   6    -0.02   0.01  -0.00    -0.13   0.09  -0.03    -0.03  -0.00  -0.00
  10   6     0.03   0.03  -0.00     0.21   0.23  -0.02     0.03  -0.00   0.00
  11   6    -0.00  -0.01   0.00    -0.07  -0.09   0.01     0.00   0.02  -0.00
  12   6    -0.03   0.01  -0.01    -0.23  -0.03  -0.02    -0.02   0.02  -0.01
  13   6     0.01  -0.01   0.00     0.16  -0.05   0.03    -0.01  -0.03   0.00
  14   6    -0.05  -0.02  -0.00    -0.18   0.01  -0.02    -0.03  -0.01   0.00
  15  17     0.00  -0.00   0.00    -0.00  -0.00  -0.00    -0.00  -0.00  -0.00
  16   1    -0.07  -0.12  -0.05     0.03   0.01   0.01     0.09   0.06   0.03
  17   1     0.02   0.03  -0.14    -0.00  -0.01   0.03     0.00  -0.05   0.09
  18   1    -0.02  -0.07  -0.20     0.01   0.02   0.01     0.01   0.04   0.08
  19   1     0.22  -0.42  -0.16    -0.03   0.07   0.03    -0.04   0.13   0.10
  20   1     0.21  -0.37  -0.18     0.00   0.02   0.02    -0.16   0.28   0.12
  21   1     0.25  -0.00   0.03    -0.04  -0.02  -0.03     0.61  -0.06   0.07
  22   1     0.36  -0.07   0.05    -0.01  -0.02   0.04     0.42   0.02   0.00
  23   1    -0.02   0.04  -0.02     0.10  -0.37   0.08    -0.05   0.12  -0.01
  24   1     0.02  -0.01  -0.00     0.04  -0.05   0.01     0.05   0.00   0.01
  25   1    -0.00  -0.02   0.00    -0.05  -0.14   0.02     0.02   0.02   0.00
  26   1    -0.01  -0.01   0.00    -0.08  -0.10   0.01     0.00  -0.01   0.00
  27   1     0.01  -0.03   0.01     0.06  -0.21   0.04     0.01  -0.02   0.00
  28   1     0.04  -0.00   0.01     0.15  -0.04   0.02     0.04  -0.00   0.00
  29   1     0.02   0.02  -0.00     0.01  -0.06   0.01     0.03   0.04  -0.00
                     55                     56                     57
                        a                      a                      a 
 Frequencies --  1364.7369              1370.6750              1394.2022
 Red. masses --     7.0541                 4.0839                 1.6507
 Frc consts  --     0.0000                 0.0000                 0.0000
 IR Inten    --   118.1078                83.9096                84.1325
 Raman Activ --     0.0000                 0.0000                 0.0000
 Depolar     --     0.0000                 0.0000                 0.0000
 Atom AN      X      Y      Z        X      Y      Z        X      Y      Z
   1   7    -0.04   0.08   0.14     0.07  -0.12  -0.22     0.16   0.04   0.09
   2   6     0.03  -0.06  -0.01    -0.08   0.12   0.01     0.10  -0.06  -0.02
   3   6     0.02   0.02   0.01     0.01  -0.03  -0.02    -0.03   0.01   0.01
   4   8    -0.05   0.07  -0.02    -0.04   0.04  -0.01    -0.01  -0.01   0.00
   5   6     0.17  -0.23   0.06     0.10  -0.13   0.03     0.01   0.00  -0.00
   6   6    -0.02   0.22  -0.04    -0.00   0.10  -0.02     0.00  -0.00   0.00
   7   6     0.02   0.11  -0.02     0.01   0.07  -0.01    -0.01   0.00  -0.00
   8   6    -0.18  -0.31   0.04    -0.10  -0.18   0.02     0.00  -0.01   0.00
   9   6    -0.12   0.14  -0.04    -0.08   0.08  -0.02    -0.00   0.01  -0.00
  10   6     0.13  -0.10   0.03     0.08  -0.06   0.02     0.01   0.01  -0.00
  11   6    -0.04   0.22  -0.05    -0.03   0.14  -0.03    -0.00  -0.01   0.00
  12   6    -0.00   0.05  -0.01    -0.01   0.03  -0.01    -0.01  -0.00  -0.00
  13   6    -0.11  -0.26   0.04    -0.06  -0.16   0.02     0.01  -0.00   0.00
  14   6    -0.04   0.14  -0.03    -0.02   0.09  -0.02    -0.00   0.00  -0.00
  15  17    -0.00   0.00   0.00     0.00  -0.00  -0.01     0.01   0.00  -0.00
  16   1     0.06  -0.28  -0.13    -0.11   0.49   0.22    -0.69   0.01  -0.14
  17   1     0.02  -0.02  -0.16    -0.02  -0.01   0.29     0.07  -0.01  -0.51
  18   1     0.04   0.01  -0.27    -0.12  -0.07   0.43    -0.22  -0.18   0.28
  19   1    -0.03   0.07  -0.00     0.07  -0.14   0.01    -0.04   0.12   0.05
  20   1    -0.06   0.06   0.03     0.13  -0.13  -0.06    -0.06   0.05   0.02
  21   1    -0.07  -0.05  -0.04    -0.03   0.02   0.00     0.03   0.03   0.02
  22   1    -0.07  -0.03   0.03     0.01  -0.01   0.00     0.03   0.04  -0.03
  23   1     0.10  -0.16   0.04     0.06  -0.09   0.02     0.00  -0.01   0.00
  24   1     0.24  -0.00   0.02     0.13   0.01   0.02     0.00  -0.00  -0.00
  25   1     0.12   0.13  -0.01     0.07   0.07  -0.00    -0.00  -0.00   0.00
  26   1     0.03  -0.04   0.01     0.01  -0.03   0.01    -0.01  -0.01   0.00
  27   1     0.09  -0.16   0.04     0.05  -0.10   0.02     0.00  -0.01   0.01
  28   1     0.22  -0.01   0.03     0.13  -0.01   0.01     0.01  -0.00   0.00
  29   1     0.10   0.09  -0.01     0.06   0.06  -0.01     0.00  -0.00   0.00
                     58                     59                     60
                        a                      a                      a 
 Frequencies --  1404.9049              1420.2798              1426.2357
 Red. masses --    10.3663                 9.0594                 2.1955
 Frc consts  --     0.0000                 0.0000                 0.0000
 IR Inten    --     2.7533                 7.2276                81.1242
 Raman Activ --     0.0000                 0.0000                 0.0000
 Depolar     --     0.0000                 0.0000                 0.0000
 Atom AN      X      Y      Z        X      Y      Z        X      Y      Z
   1   7     0.00   0.00  -0.00    -0.00  -0.05  -0.00     0.01  -0.25  -0.03
   2   6    -0.00   0.00  -0.00    -0.01   0.01   0.01    -0.02  -0.02   0.01
   3   6     0.01   0.01   0.00     0.02  -0.06   0.01    -0.03  -0.00  -0.01
   4   8    -0.02  -0.01  -0.00     0.01   0.04  -0.00    -0.01  -0.00   0.00
   5   6    -0.08  -0.07   0.00    -0.23  -0.19   0.01     0.05   0.04  -0.00
   6   6    -0.13   0.19  -0.05     0.19  -0.06   0.03    -0.04  -0.00  -0.00
   7   6     0.24  -0.10   0.04    -0.07   0.18  -0.04     0.03  -0.02   0.01
   8   6    -0.01  -0.05   0.01    -0.12  -0.17   0.02     0.01   0.02  -0.00
   9   6    -0.43   0.30  -0.10    -0.18  -0.05  -0.01     0.01   0.01  -0.00
  10   6     0.06   0.06  -0.00     0.29   0.34  -0.03    -0.05  -0.08   0.01
  11   6     0.15  -0.22   0.06    -0.18  -0.04  -0.01     0.04   0.03  -0.00
  12   6    -0.26   0.09  -0.04    -0.15  -0.21   0.02     0.00   0.05  -0.01
  13   6     0.04   0.07  -0.01     0.30   0.25  -0.01    -0.07  -0.08   0.01
  14   6     0.40  -0.31   0.10     0.15   0.01   0.01    -0.00   0.02  -0.00
  15  17     0.00  -0.00  -0.00     0.00   0.00   0.00     0.00  -0.00  -0.00
  16   1     0.00   0.01   0.00    -0.02  -0.02  -0.01    -0.16  -0.04  -0.04
  17   1     0.01  -0.01   0.01    -0.06   0.12  -0.02    -0.28   0.59  -0.12
  18   1    -0.01  -0.01   0.00     0.09   0.09   0.02     0.44   0.43   0.14
  19   1    -0.00   0.00   0.00     0.01  -0.01  -0.01     0.02  -0.05   0.04
  20   1     0.00  -0.00  -0.00    -0.00   0.00   0.00     0.07   0.04   0.05
  21   1    -0.01  -0.02  -0.01    -0.01   0.06   0.04     0.00   0.03   0.01
  22   1    -0.01  -0.02   0.02     0.00   0.05  -0.05     0.03   0.01  -0.02
  23   1    -0.01  -0.02   0.00    -0.03   0.18  -0.04     0.00  -0.03   0.00
  24   1    -0.05  -0.01  -0.00     0.13   0.03   0.01    -0.03  -0.00  -0.00
  25   1    -0.14  -0.18   0.02     0.09   0.11  -0.01    -0.02  -0.02   0.00
  26   1     0.13   0.16  -0.02    -0.15  -0.19   0.02     0.04   0.04  -0.00
  27   1    -0.00   0.05  -0.01     0.04  -0.23   0.05     0.00   0.03  -0.00
  28   1     0.06   0.01   0.00    -0.09  -0.06   0.00     0.05   0.01   0.00
  29   1     0.13   0.17  -0.02    -0.07  -0.14   0.02     0.04   0.05  -0.01
                     61                     62                     63
                        a                      a                      a 
 Frequencies --  1445.1075              1465.9575              1472.6654
 Red. masses --     9.2296                 2.0618                 2.0960
 Frc consts  --     0.0000                 0.0000                 0.0000
 IR Inten    --    41.0129                11.6457                 1.2291
 Raman Activ --     0.0000                 0.0000                 0.0000
 Depolar     --     0.0000                 0.0000                 0.0000
 Atom AN      X      Y      Z        X      Y      Z        X      Y      Z
   1   7    -0.00   0.02   0.01    -0.01   0.03   0.00    -0.01   0.03   0.01
   2   6     0.01  -0.00   0.02    -0.16   0.01  -0.22    -0.07  -0.02  -0.07
   3   6     0.01  -0.06   0.01     0.01   0.06  -0.00     0.01  -0.23   0.01
   4   8     0.04  -0.04   0.01     0.03   0.01   0.00    -0.03  -0.03   0.00
   5   6    -0.17   0.17  -0.05    -0.04   0.00  -0.01     0.04   0.03   0.00
   6   6    -0.02  -0.28   0.05    -0.00  -0.03   0.01    -0.00   0.04  -0.01
   7   6     0.21   0.04   0.02     0.03   0.00   0.00    -0.04  -0.01  -0.00
   8   6    -0.03   0.18  -0.04     0.00   0.04  -0.01    -0.01  -0.06   0.01
   9   6    -0.20  -0.29   0.03    -0.03  -0.07   0.01     0.04   0.10  -0.01
  10   6     0.09  -0.14   0.03     0.02  -0.00   0.00    -0.03   0.00  -0.00
  11   6     0.06   0.27  -0.04    -0.00   0.04  -0.01     0.01  -0.06   0.01
  12   6    -0.24  -0.00  -0.02    -0.03  -0.02  -0.00     0.03   0.02  -0.00
  13   6    -0.00  -0.25   0.05     0.02  -0.01   0.00    -0.02   0.01  -0.00
  14   6     0.21   0.34  -0.04     0.03   0.05  -0.01    -0.03  -0.06   0.01
  15  17    -0.00  -0.00   0.00     0.00   0.00   0.00    -0.00   0.00   0.00
  16   1     0.02  -0.01  -0.00    -0.01  -0.04  -0.04     0.05  -0.05  -0.02
  17   1     0.02  -0.04   0.01     0.03  -0.05  -0.05     0.02  -0.05   0.01
  18   1    -0.03  -0.03  -0.03    -0.04  -0.04  -0.04    -0.02  -0.02  -0.06
  19   1    -0.01   0.02  -0.05     0.04  -0.21   0.59     0.01  -0.08   0.19
  20   1    -0.05  -0.02  -0.02     0.53   0.26   0.23     0.19   0.08   0.08
  21   1     0.01   0.13   0.08    -0.00  -0.19  -0.11     0.01   0.55   0.32
  22   1     0.02   0.10  -0.10    -0.05  -0.14   0.13     0.09   0.44  -0.41
  23   1    -0.11   0.15  -0.04    -0.03   0.07  -0.01     0.06  -0.14   0.03
  24   1    -0.20   0.05  -0.03    -0.03   0.01  -0.01     0.03  -0.01   0.00
  25   1    -0.09  -0.05  -0.00    -0.01  -0.01  -0.00     0.02   0.01  -0.00
  26   1     0.03  -0.04   0.01    -0.00  -0.02   0.00     0.01   0.02  -0.00
  27   1     0.10  -0.12   0.03     0.01  -0.02   0.01    -0.02   0.03  -0.01
  28   1     0.24  -0.04   0.03     0.02  -0.01   0.00    -0.02   0.01  -0.00
  29   1     0.12   0.07  -0.00     0.00  -0.01   0.00    -0.00   0.01  -0.00
                     64                     65                     66
                        a                      a                      a 
 Frequencies --  1516.8145              1571.1742              1592.0820
 Red. masses --    10.8703                11.6053                11.4727
 Frc consts  --     0.0000                 0.0000                 0.0000
 IR Inten    --    16.3358                43.6433                 3.3904
 Raman Activ --     0.0000                 0.0000                 0.0000
 Depolar     --     0.0000                 0.0000                 0.0000
 Atom AN      X      Y      Z        X      Y      Z        X      Y      Z
   1   7     0.00  -0.00  -0.00     0.00  -0.00  -0.00     0.00   0.00  -0.00
   2   6     0.00  -0.00   0.00     0.00   0.00   0.00     0.00  -0.00  -0.00
   3   6    -0.01  -0.00  -0.00    -0.00  -0.02   0.00    -0.01   0.02  -0.00
   4   8    -0.02  -0.01   0.00    -0.01   0.04  -0.01     0.01  -0.03   0.01
   5   6     0.17  -0.00   0.02     0.00  -0.37   0.06     0.14   0.24  -0.03
   6   6    -0.24   0.24  -0.07    -0.13   0.43  -0.09    -0.12  -0.16   0.01
   7   6     0.39  -0.14   0.07     0.08  -0.17   0.04     0.52   0.12   0.04
   8   6    -0.08   0.18  -0.04     0.06   0.20  -0.03    -0.47  -0.31   0.00
   9   6    -0.20  -0.24   0.02     0.19  -0.31   0.08     0.25   0.08   0.01
  10   6     0.20  -0.01   0.02    -0.04   0.12  -0.03    -0.06   0.09  -0.02
  11   6    -0.24   0.30  -0.08     0.15  -0.19   0.05     0.08  -0.17   0.04
  12   6     0.32  -0.16   0.06    -0.37   0.03  -0.05    -0.18   0.03  -0.02
  13   6    -0.04   0.20  -0.04     0.24   0.01   0.02     0.13   0.05   0.00
  14   6    -0.12  -0.22   0.03    -0.18   0.28  -0.07    -0.24  -0.02  -0.02
  15  17     0.00   0.00  -0.00     0.00   0.00  -0.00     0.00  -0.00   0.00
  16   1    -0.01   0.00  -0.00    -0.00   0.01   0.00    -0.00  -0.00  -0.00
  17   1    -0.00   0.01  -0.00    -0.00   0.01   0.00     0.00  -0.00  -0.00
  18   1     0.00   0.00   0.00     0.00   0.00   0.00    -0.00  -0.00   0.00
  19   1    -0.00   0.00  -0.00     0.00  -0.00  -0.00    -0.00   0.00   0.00
  20   1    -0.00  -0.00  -0.00    -0.00  -0.00  -0.00     0.00   0.00   0.00
  21   1     0.00   0.03   0.01    -0.01   0.02   0.01     0.01  -0.02  -0.01
  22   1     0.01   0.02  -0.02    -0.00   0.01  -0.01     0.00  -0.01   0.01
  23   1     0.00  -0.10   0.02     0.07  -0.12   0.03    -0.08   0.07  -0.02
  24   1    -0.14  -0.01  -0.02    -0.01  -0.04   0.00    -0.11   0.07  -0.02
  25   1    -0.11  -0.06  -0.00    -0.04  -0.02   0.00     0.03   0.13  -0.02
  26   1    -0.03  -0.11   0.02    -0.04  -0.01  -0.00    -0.02   0.02  -0.01
  27   1     0.02  -0.13   0.03     0.00   0.03  -0.01    -0.01   0.03  -0.01
  28   1    -0.12  -0.02  -0.01     0.08  -0.02   0.01     0.02  -0.00   0.00
  29   1    -0.09  -0.06   0.00     0.02  -0.05   0.01    -0.01  -0.04   0.01
                     67                     68                     69
                        a                      a                      a 
 Frequencies --  1617.6288              2894.5498              2920.2504
 Red. masses --    11.4598                 1.9880                 1.9207
 Frc consts  --     0.0000                 0.0000                 0.0000
 IR Inten    --     0.7710              1544.9260                10.6252
 Raman Activ --     0.0000                 0.0000                 0.0000
 Depolar     --     0.0000                 0.0000                 0.0000
 Atom AN      X      Y      Z        X      Y      Z        X      Y      Z
   1   7     0.00  -0.00  -0.00    -0.05  -0.14   0.23    -0.00  -0.01   0.01
   2   6     0.00   0.00  -0.00     0.01   0.02  -0.02     0.00   0.01  -0.01
   3   6     0.00  -0.00   0.00     0.00  -0.00  -0.02    -0.02   0.10   0.27
   4   8     0.00   0.00  -0.00     0.00  -0.00   0.00     0.01   0.00   0.01
   5   6    -0.00   0.00  -0.00    -0.00   0.00  -0.00    -0.00   0.00  -0.00
   6   6    -0.03  -0.01  -0.00     0.00  -0.00   0.00    -0.00  -0.00  -0.00
   7   6     0.09   0.01   0.01    -0.00  -0.00   0.00    -0.00  -0.00   0.00
   8   6    -0.05   0.01  -0.01     0.00  -0.00   0.00    -0.00  -0.00   0.00
   9   6    -0.12  -0.17   0.02    -0.00   0.00  -0.00    -0.00   0.00   0.00
  10   6     0.21   0.47  -0.06     0.00  -0.00   0.00     0.00  -0.00   0.00
  11   6    -0.05  -0.43   0.07     0.00   0.00   0.00     0.00   0.00   0.00
  12   6     0.34   0.17   0.00     0.00   0.00   0.00     0.00   0.00  -0.00
  13   6    -0.36  -0.32   0.02     0.00  -0.00   0.00     0.00  -0.00  -0.00
  14   6     0.06   0.21  -0.03     0.00  -0.00  -0.00     0.00   0.00   0.00
  15  17    -0.00   0.00  -0.00     0.00   0.01  -0.01     0.00   0.00  -0.00
  16   1     0.00   0.00   0.00     0.18   0.46  -0.82     0.01   0.02  -0.05
  17   1    -0.00   0.00   0.00     0.03   0.01   0.02     0.00  -0.00   0.00
  18   1     0.00   0.00   0.00    -0.02   0.00   0.01    -0.00   0.00  -0.00
  19   1     0.00  -0.00  -0.00    -0.02  -0.00  -0.01     0.01   0.01  -0.00
  20   1    -0.00   0.00   0.00    -0.02  -0.06   0.09    -0.02  -0.05   0.08
  21   1    -0.00  -0.00  -0.00    -0.01  -0.02   0.03     0.06   0.22  -0.33
  22   1    -0.00  -0.00   0.00     0.00   0.04   0.04    -0.01  -0.58  -0.63
  23   1    -0.01   0.01  -0.00     0.00   0.00  -0.00     0.00  -0.00  -0.00
  24   1    -0.02   0.01  -0.00     0.00   0.00  -0.00     0.00   0.00   0.00
  25   1    -0.02   0.00  -0.00    -0.00   0.00  -0.00     0.00  -0.00  -0.00
  26   1    -0.10  -0.06   0.00    -0.00   0.00  -0.00    -0.00   0.00   0.00
  27   1    -0.09   0.07  -0.02    -0.00  -0.00   0.00    -0.00  -0.00   0.00
  28   1    -0.08   0.07  -0.02    -0.00  -0.00   0.00    -0.00  -0.00   0.00
  29   1     0.03   0.09  -0.01    -0.00   0.00  -0.00    -0.00   0.00   0.00
                     70                     71                     72
                        a                      a                      a 
 Frequencies --  2945.1498              2963.7445              2983.7135
 Red. masses --     1.5623                 1.9564                 1.5290
 Frc consts  --     0.0000                 0.0000                 0.0000
 IR Inten    --     6.4589                 3.8967                 2.1297
 Raman Activ --     0.0000                 0.0000                 0.0000
 Depolar     --     0.0000                 0.0000                 0.0000
 Atom AN      X      Y      Z        X      Y      Z        X      Y      Z
   1   7    -0.00  -0.01   0.01     0.00   0.01  -0.02    -0.01  -0.01   0.02
   2   6    -0.06  -0.05   0.06     0.20   0.16  -0.12     0.11  -0.02   0.18
   3   6     0.02   0.17  -0.11     0.01   0.06  -0.06    -0.00  -0.01   0.03
   4   8     0.01   0.01  -0.00     0.00   0.00  -0.00    -0.00  -0.00   0.00
   5   6     0.00   0.00   0.00     0.00   0.00   0.00    -0.00   0.00   0.00
   6   6    -0.00  -0.00  -0.00    -0.00  -0.00  -0.00     0.00   0.00  -0.00
   7   6    -0.00   0.00  -0.00    -0.00   0.00  -0.00     0.00  -0.00   0.00
   8   6    -0.00   0.00  -0.00    -0.00   0.00  -0.00     0.00  -0.00   0.00
   9   6    -0.00   0.00  -0.00    -0.00   0.00  -0.00    -0.00   0.00   0.00
  10   6    -0.00   0.00  -0.00     0.00  -0.00   0.00     0.00  -0.00   0.00
  11   6     0.00   0.00  -0.00     0.00   0.00   0.00     0.00   0.00   0.00
  12   6     0.00   0.00  -0.00     0.00  -0.00   0.00    -0.00  -0.00   0.00
  13   6     0.00  -0.00   0.00     0.00  -0.00   0.00     0.00  -0.00   0.00
  14   6    -0.00   0.00  -0.00     0.00  -0.00   0.00    -0.00   0.00  -0.00
  15  17    -0.00   0.00  -0.00    -0.00  -0.00   0.00     0.00   0.00  -0.00
  16   1     0.00   0.01  -0.02    -0.02  -0.04   0.07     0.01   0.04  -0.07
  17   1    -0.00  -0.00  -0.00     0.01   0.00  -0.00     0.02   0.01   0.00
  18   1    -0.00   0.00  -0.00     0.00  -0.00  -0.00    -0.00   0.00   0.00
  19   1     0.16   0.07   0.02    -0.64  -0.30  -0.06    -0.56  -0.29  -0.02
  20   1     0.04   0.13  -0.23    -0.08  -0.26   0.48     0.15   0.36  -0.62
  21   1    -0.12  -0.38   0.71    -0.05  -0.14   0.26     0.02   0.06  -0.10
  22   1    -0.00  -0.26  -0.34    -0.00  -0.06  -0.08     0.00  -0.02  -0.01
  23   1     0.02   0.00   0.00     0.01   0.00   0.00    -0.00  -0.00  -0.00
  24   1    -0.00  -0.00   0.00    -0.00  -0.00  -0.00    -0.00   0.00  -0.00
  25   1     0.00  -0.00   0.00     0.00  -0.00   0.00    -0.00   0.00   0.00
  26   1     0.00  -0.00   0.00    -0.00   0.00  -0.00    -0.00   0.00   0.00
  27   1    -0.00  -0.00  -0.00    -0.00  -0.00   0.00    -0.00  -0.00   0.00
  28   1    -0.00  -0.00  -0.00     0.00   0.00   0.00     0.00   0.00  -0.00
  29   1    -0.00   0.00  -0.00    -0.00   0.00  -0.00    -0.00   0.00  -0.00
                     73                     74                     75
                        a                      a                      a 
 Frequencies --  3098.8829              3103.6321              3107.3751
 Red. masses --     1.7594                 1.7901                 1.8183
 Frc consts  --     0.0000                 0.0000                 0.0000
 IR Inten    --    10.5503                19.0697                34.3772
 Raman Activ --     0.0000                 0.0000                 0.0000
 Depolar     --     0.0000                 0.0000                 0.0000
 Atom AN      X      Y      Z        X      Y      Z        X      Y      Z
   1   7    -0.00  -0.00  -0.00    -0.00  -0.00   0.00    -0.00   0.00  -0.00
   2   6    -0.00  -0.00  -0.00     0.00   0.00  -0.00     0.00   0.00  -0.00
   3   6    -0.00  -0.00  -0.00    -0.00  -0.00   0.00    -0.00  -0.00  -0.00
   4   8     0.00  -0.00   0.00    -0.00   0.00  -0.00    -0.00   0.00  -0.00
   5   6    -0.00  -0.00  -0.00    -0.00  -0.00   0.00     0.00   0.00  -0.00
   6   6    -0.00  -0.00  -0.00    -0.02  -0.01  -0.00     0.01   0.00   0.00
   7   6     0.00   0.01  -0.00     0.04   0.24  -0.04    -0.01  -0.03   0.01
   8   6     0.01  -0.00   0.00     0.07  -0.05   0.02     0.00  -0.00   0.00
   9   6    -0.00   0.00  -0.00     0.00  -0.00   0.00    -0.00   0.00  -0.00
  10   6    -0.04   0.03  -0.01    -0.02   0.01  -0.00    -0.08   0.06  -0.02
  11   6     0.17   0.07   0.00     0.01   0.00   0.00     0.14   0.06   0.00
  12   6    -0.03  -0.17   0.03     0.00   0.03  -0.00     0.03   0.17  -0.03
  13   6    -0.03   0.02  -0.01     0.01  -0.01   0.00     0.06  -0.04   0.01
  14   6    -0.00   0.00  -0.00    -0.00  -0.00   0.00     0.00  -0.00   0.00
  15  17    -0.00   0.00   0.00     0.00  -0.00   0.00     0.00  -0.00  -0.00
  16   1     0.00  -0.00  -0.00     0.00   0.00  -0.00    -0.00  -0.00   0.00
  17   1     0.00   0.00   0.00     0.00   0.00   0.00     0.00   0.00  -0.00
  18   1    -0.00  -0.00   0.00    -0.00   0.00  -0.00     0.00  -0.00   0.00
  19   1     0.00   0.00   0.00    -0.00  -0.00   0.00    -0.00  -0.00  -0.00
  20   1    -0.00  -0.00  -0.00    -0.00  -0.00   0.00    -0.00  -0.00   0.00
  21   1    -0.00  -0.00   0.00     0.00   0.00  -0.00     0.00   0.00  -0.00
  22   1    -0.00  -0.00  -0.00     0.00   0.00   0.00     0.00   0.00   0.00
  23   1     0.00   0.00   0.00     0.10   0.04   0.00    -0.02  -0.01  -0.00
  24   1    -0.00  -0.02   0.00    -0.13  -0.87   0.14     0.02   0.12  -0.02
  25   1    -0.02   0.01  -0.00    -0.26   0.20  -0.06    -0.00   0.00  -0.00
  26   1     0.16  -0.12   0.04     0.05  -0.04   0.01     0.31  -0.23   0.08
  27   1    -0.62  -0.26  -0.02    -0.03  -0.01  -0.00    -0.50  -0.21  -0.01
  28   1     0.10   0.63  -0.11    -0.01  -0.09   0.02    -0.09  -0.60   0.10
  29   1     0.12  -0.09   0.03    -0.03   0.02  -0.01    -0.22   0.17  -0.06
                     76                     77                     78
                        a                      a                      a 
 Frequencies --  3119.2298              3123.1947              3125.5890
 Red. masses --     1.8752                 1.8548                 1.8726
 Frc consts  --     0.0000                 0.0000                 0.0000
 IR Inten    --    26.1247                89.3625                18.5750
 Raman Activ --     0.0000                 0.0000                 0.0000
 Depolar     --     0.0000                 0.0000                 0.0000
 Atom AN      X      Y      Z        X      Y      Z        X      Y      Z
   1   7    -0.00   0.00  -0.00     0.00  -0.00   0.00     0.00   0.00   0.00
   2   6    -0.00  -0.00   0.00     0.00   0.00   0.00     0.00   0.00   0.00
   3   6    -0.00  -0.00   0.00    -0.00  -0.00   0.00    -0.00  -0.00  -0.00
   4   8     0.00   0.00  -0.00     0.00  -0.00   0.00     0.00  -0.00   0.00
   5   6    -0.00  -0.00   0.00    -0.00   0.00  -0.00    -0.00   0.00  -0.00
   6   6    -0.01  -0.01  -0.00    -0.02  -0.01  -0.00     0.01   0.01   0.00
   7   6     0.01   0.06  -0.01     0.01   0.08  -0.01    -0.00  -0.02   0.00
   8   6    -0.11   0.08  -0.03    -0.17   0.12  -0.04     0.05  -0.04   0.01
   9   6    -0.00  -0.01   0.00    -0.01   0.00  -0.00     0.00  -0.00   0.00
  10   6     0.16  -0.12   0.04    -0.09   0.07  -0.02     0.05  -0.04   0.01
  11   6     0.10   0.04   0.00    -0.04  -0.02  -0.00     0.06   0.02   0.00
  12   6     0.00   0.03  -0.00     0.01   0.02  -0.00     0.02   0.10  -0.02
  13   6     0.04  -0.03   0.01    -0.08   0.06  -0.02    -0.18   0.13  -0.05
  14   6     0.00   0.00   0.00    -0.00  -0.00   0.00    -0.01  -0.00  -0.00
  15  17    -0.00  -0.00  -0.00    -0.00  -0.00   0.00     0.00  -0.00  -0.00
  16   1    -0.00  -0.00   0.00     0.00   0.00  -0.00     0.00   0.00  -0.00
  17   1     0.00   0.00   0.00    -0.00  -0.00  -0.00    -0.00  -0.00   0.00
  18   1     0.00  -0.00   0.00    -0.00   0.00  -0.00     0.00  -0.00   0.00
  19   1     0.00   0.00   0.00    -0.00  -0.00   0.00    -0.00  -0.00  -0.00
  20   1    -0.00   0.00  -0.00     0.00  -0.00   0.00     0.00  -0.00   0.00
  21   1     0.00   0.00  -0.00     0.00   0.00  -0.00    -0.00  -0.00   0.00
  22   1     0.00   0.00   0.00     0.00   0.00   0.00    -0.00  -0.00  -0.00
  23   1     0.04   0.02   0.00     0.08   0.03   0.00    -0.04  -0.02  -0.00
  24   1    -0.03  -0.19   0.03    -0.04  -0.24   0.04     0.01   0.07  -0.01
  25   1     0.36  -0.27   0.09     0.58  -0.44   0.14    -0.17   0.13  -0.04
  26   1    -0.55   0.42  -0.14     0.32  -0.24   0.08    -0.18   0.14  -0.05
  27   1    -0.33  -0.14  -0.01     0.11   0.05   0.00    -0.19  -0.08  -0.01
  28   1    -0.01  -0.09   0.02    -0.01  -0.06   0.01    -0.05  -0.32   0.05
  29   1    -0.15   0.11  -0.04     0.27  -0.20   0.07     0.64  -0.48   0.16
                     79                     80                     81
                        a                      a                      a 
 Frequencies --  3146.1911              3229.9002              3255.3837
 Red. masses --     1.8341                 1.8197                 1.7217
 Frc consts  --     0.0000                 0.0000                 0.0000
 IR Inten    --    25.9198                35.0272                47.3009
 Raman Activ --     0.0000                 0.0000                 0.0000
 Depolar     --     0.0000                 0.0000                 0.0000
 Atom AN      X      Y      Z        X      Y      Z        X      Y      Z
   1   7     0.00  -0.00   0.00     0.19  -0.16   0.03    -0.21  -0.11  -0.02
   2   6    -0.00  -0.00  -0.00     0.00  -0.00   0.00    -0.01  -0.01  -0.00
   3   6     0.00   0.00  -0.00    -0.00  -0.00  -0.00     0.00   0.00  -0.00
   4   8     0.00   0.00  -0.00    -0.00   0.00   0.00     0.00  -0.00  -0.00
   5   6     0.01  -0.00   0.00     0.00  -0.00   0.00     0.00  -0.00  -0.00
   6   6     0.24   0.11   0.01    -0.00  -0.00  -0.00     0.00   0.00   0.00
   7   6     0.01   0.05  -0.01    -0.00  -0.00   0.00     0.00  -0.00   0.00
   8   6    -0.02   0.01  -0.00     0.00  -0.00   0.00    -0.00   0.00  -0.00
   9   6    -0.00  -0.00  -0.00    -0.00   0.00  -0.00    -0.00   0.00   0.00
  10   6    -0.00   0.00  -0.00     0.00  -0.00   0.00    -0.00   0.00  -0.00
  11   6    -0.00  -0.00  -0.00     0.00   0.00   0.00    -0.00  -0.00  -0.00
  12   6    -0.00  -0.00   0.00    -0.00   0.00  -0.00     0.00   0.00  -0.00
  13   6     0.00  -0.00   0.00    -0.00   0.00   0.00    -0.00   0.00  -0.00
  14   6    -0.00   0.00  -0.00    -0.00   0.00  -0.00     0.00   0.00   0.00
  15  17     0.00  -0.00  -0.00     0.00   0.00  -0.00     0.00   0.00  -0.00
  16   1     0.00   0.00  -0.00     0.01  -0.03   0.03    -0.03  -0.03   0.04
  17   1    -0.00  -0.00  -0.00    -0.05  -0.05   0.00     0.87   0.41   0.07
  18   1    -0.00   0.00  -0.00    -0.67   0.68  -0.12    -0.07   0.04  -0.01
  19   1    -0.00  -0.00  -0.00    -0.00  -0.00   0.00     0.02   0.01   0.00
  20   1     0.00  -0.00   0.00    -0.00   0.00   0.00    -0.00  -0.00   0.01
  21   1    -0.00  -0.01   0.01     0.00   0.00  -0.00    -0.00  -0.00   0.00
  22   1    -0.00  -0.01  -0.01     0.00   0.00   0.00    -0.00   0.00   0.00
  23   1    -0.87  -0.38  -0.03     0.00   0.00   0.00    -0.00  -0.00  -0.00
  24   1    -0.02  -0.13   0.02     0.00   0.00  -0.00    -0.00   0.00   0.00
  25   1     0.05  -0.03   0.01    -0.00   0.00  -0.00     0.00  -0.00   0.00
  26   1     0.01  -0.01   0.00    -0.00   0.00  -0.00     0.00  -0.00   0.00
  27   1     0.01   0.00   0.00    -0.00  -0.00  -0.00     0.00   0.00   0.00
  28   1     0.00   0.01  -0.00    -0.00  -0.00   0.00    -0.00  -0.00   0.00
  29   1    -0.01   0.01  -0.00     0.00  -0.00   0.00     0.00  -0.00   0.00
