27
 energy: -28.931919984754 gnorm: 0.000232817974 xtb: 6.5.1 (fef0646)
N            0.94689711721716        2.11940180585741        0.16140627015990
C            2.42815488470802        2.11810760033149        0.25254526932367
C            3.01092280478076        1.07407450371770       -0.69337602034301
C            4.54460545023147        1.07947618065108       -0.71899400856198
C            5.03994262705507        0.16882184674768       -1.84707267589595
C            6.56398748262819        0.14259626654541       -1.91126146127248
C            7.14570745542172       -0.32446853215999       -0.58074576082188
C            6.66838778670662        0.58607442928685        0.54575040015427
C            5.14325971755424        0.61315277666921        0.61076283612907
H            0.54248532583007        2.81207388373222        0.80147704726609
H            0.57922580404820        1.19179399371807        0.40410685201024
H            0.65184437707571        2.34097211357457       -0.79675950798215
H            2.71604716619513        1.89946439050572        1.27934093509581
H            2.80483286187798        3.10585232860707       -0.01218119597269
H            2.66202735334145        1.26795109889738       -1.70907827949657
H            2.67996503649284        0.07580378745846       -0.40407000807064
H            4.89906831629463        2.09571534328529       -0.92132857819247
H            4.64601121435606        0.51250813467810       -2.80581768635345
H            4.67623347043402       -0.84757439719657       -1.67940642591624
H            6.94019087002386        1.14344239822144       -2.13702756347952
H            6.89043399303038       -0.52203224077468       -2.71420890279843
H            8.23698022380436       -0.32318139679171       -0.62756341890773
H            6.82462602563155       -1.35017101207343       -0.38297725907422
H            7.04608487129434        1.59679294193968        0.37268326010802
H            7.07412597541964        0.23981372340873        1.49882506894683
H            4.84581429927931        1.27842797152268        1.42149342086451
H            4.78224748926724       -0.39195994035975        0.83902739308108
