 Entering Gaussian System
 *********************************************
 Gaussian 98:
 frequency output generated by the xtb code
 *********************************************
                         Standard orientation:
 --------------------------------------------------------------------
  Center     Atomic     Atomic              Coordinates (Angstroms)
  Number     Number      Type              X           Y           Z
 --------------------------------------------------------------------
    1          7             0       -3.772153   -0.572640    0.121554
    2          6             0       -2.648637    0.389584    0.339119
    3          6             0       -1.480051    0.209527   -0.643875
    4          6             0       -0.714198   -1.125087   -0.444266
    5          6             0        0.129587   -1.136559    0.842512
    6          6             0        1.112434    0.057606    0.892076
    7          6             0        2.204449   -0.101822   -0.140968
    8          8             0        3.464310   -0.185538    0.325208
    9          8             0        1.919135   -0.147862   -1.313567
   10          6             0        0.363090    1.396179    0.699296
   11          6             0       -0.479905    1.396982   -0.588211
   12          1             0       -3.473717   -1.541141    0.281045
   13          1             0       -4.128366   -0.505750   -0.838115
   14          1             0       -4.551740   -0.381475    0.760717
   15          1             0       -2.286094    0.300444    1.366998
   16          1             0       -3.040412    1.409156    0.251898
   17          1             0       -1.920675    0.192377   -1.654674
   18          1             0       -0.046691   -1.285422   -1.300668
   19          1             0       -1.411632   -1.969644   -0.453202
   20          1             0        0.696922   -2.073262    0.912181
   21          1             0       -0.523690   -1.121274    1.721564
   22          1             0        1.613347    0.066985    1.873784
   23          1             0        4.079987   -0.286042   -0.406374
   24          1             0        1.090744    2.216946    0.673482
   25          1             0       -0.277126    1.595234    1.565878
   26          1             0        0.195542    1.340537   -1.451093
   27          1             0       -1.019020    2.346324   -0.692221
 --------------------------------------------------------------------
     1 basis functions        1 primitive gaussians
     1 alpha electrons        1 beta electrons

 Harmonic frequencies (cm**-1), IR intensities (km*mol⁻¹),
 Raman scattering activities (A**4/amu), Raman depolarization ratios,
 reduced masses (AMU), force constants (mDyne/A) and normal coordinates:
                      1                      2                      3
                        a                      a                      a 
 Frequencies --    80.8138                97.8946               102.3541
 Red. masses --    10.2145                12.0052                 8.4405
 Frc consts  --     0.0000                 0.0000                 0.0000
 IR Inten    --    22.1837                17.7863                 3.5248
 Raman Activ --     0.0000                 0.0000                 0.0000
 Depolar     --     0.0000                 0.0000                 0.0000
 Atom AN      X      Y      Z        X      Y      Z        X      Y      Z
   1   7    -0.21   0.17  -0.48     0.08  -0.21  -0.12     0.16  -0.14  -0.04
   2   6    -0.05  -0.12   0.03    -0.07  -0.01  -0.14    -0.07   0.16  -0.20
   3   6     0.05  -0.07   0.14     0.06  -0.02   0.02     0.08   0.10  -0.02
   4   6     0.06  -0.06   0.24     0.09   0.02   0.17    -0.05   0.04   0.03
   5   6     0.13   0.05   0.20     0.05   0.14   0.20    -0.08  -0.04   0.05
   6   6     0.13   0.06   0.06     0.06   0.14   0.05     0.02  -0.13   0.07
   7   6    -0.01   0.01  -0.07    -0.04   0.02  -0.04    -0.06  -0.06  -0.03
   8   8     0.08   0.14  -0.28    -0.05  -0.58  -0.15     0.01   0.33  -0.20
   9   8    -0.19  -0.18  -0.03    -0.14   0.41  -0.04    -0.22  -0.30   0.01
  10   6     0.04   0.01   0.12     0.01   0.10   0.04     0.07  -0.08   0.19
  11   6     0.01  -0.03   0.14    -0.02   0.06   0.05     0.12   0.07   0.16
  12   1    -0.08   0.01  -0.32     0.02  -0.03   0.13     0.03   0.01   0.30
  13   1    -0.08   0.23  -0.11     0.12  -0.19  -0.08     0.22  -0.30  -0.09
  14   1    -0.03  -0.05  -0.07    -0.05   0.02  -0.14    -0.08   0.12  -0.21
  15   1    -0.06  -0.15   0.02    -0.05   0.06  -0.02    -0.05   0.16  -0.04
  16   1     0.04  -0.01   0.08    -0.05  -0.02  -0.11    -0.07   0.02  -0.17
  17   1     0.04  -0.03   0.03     0.05  -0.03  -0.01     0.06   0.05  -0.02
  18   1     0.00  -0.05   0.06     0.03  -0.01   0.06    -0.01  -0.01   0.02
  19   1     0.01  -0.01   0.11     0.03   0.00   0.06    -0.04   0.03   0.00
  20   1     0.04   0.01   0.07     0.01   0.04   0.09    -0.05  -0.03   0.02
  21   1     0.05   0.03   0.07     0.01   0.08   0.05    -0.03   0.01   0.01
  22   1     0.07   0.03   0.00     0.04   0.05   0.00     0.02  -0.06   0.01
  23   1    -0.02   0.01  -0.10    -0.05  -0.21  -0.06    -0.02   0.14  -0.08
  24   1    -0.01   0.02   0.04    -0.01   0.04  -0.00     0.03  -0.03   0.09
  25   1     0.01  -0.02   0.04     0.01   0.03   0.01     0.01  -0.04   0.06
  26   1    -0.00   0.00   0.04    -0.01   0.04   0.01     0.04   0.04   0.05
  27   1    -0.01  -0.02   0.04    -0.03   0.01   0.02     0.04   0.03   0.07
                      4                      5                      6
                        a                      a                      a 
 Frequencies --   116.5469               168.0647               205.2953
 Red. masses --    10.5669                 8.7769                 8.2948
 Frc consts  --     0.0000                 0.0000                 0.0000
 IR Inten    --    15.2736                12.0285                 1.2121
 Raman Activ --     0.0000                 0.0000                 0.0000
 Depolar     --     0.0000                 0.0000                 0.0000
 Atom AN      X      Y      Z        X      Y      Z        X      Y      Z
   1   7     0.21  -0.31  -0.03    -0.30  -0.00  -0.08     0.09   0.21  -0.01
   2   6     0.00  -0.08   0.06    -0.22  -0.09   0.14     0.34  -0.16   0.19
   3   6    -0.01   0.20  -0.00    -0.18   0.03   0.14     0.15  -0.09  -0.04
   4   6     0.05   0.22  -0.12    -0.04   0.09  -0.01     0.20  -0.07  -0.15
   5   6    -0.00   0.17  -0.09     0.14   0.06  -0.13     0.12  -0.06  -0.10
   6   6    -0.02   0.20  -0.01     0.12   0.10  -0.12    -0.12   0.14   0.06
   7   6    -0.04  -0.06   0.01     0.20  -0.00  -0.04    -0.16   0.08   0.04
   8   8    -0.05  -0.13   0.02     0.17  -0.05   0.12    -0.19  -0.02  -0.00
   9   8    -0.08  -0.51   0.04     0.35  -0.20  -0.06    -0.27  -0.10   0.08
  10   6    -0.02   0.19   0.04     0.01   0.05  -0.04    -0.18   0.09   0.03
  11   6    -0.06   0.24   0.07    -0.18   0.04   0.09     0.02   0.01  -0.09
  12   1     0.16  -0.08  -0.17    -0.19   0.01   0.25    -0.14   0.04   0.20
  13   1    -0.04   0.02   0.04     0.14  -0.17  -0.12     0.21  -0.04  -0.08
  14   1     0.10  -0.24   0.10    -0.22   0.19  -0.24    -0.07   0.25  -0.18
  15   1     0.02  -0.04   0.01    -0.09  -0.07   0.04     0.12  -0.17   0.03
  16   1    -0.06  -0.04   0.06    -0.05  -0.02   0.07     0.17  -0.01   0.16
  17   1    -0.01   0.08   0.00    -0.06   0.02   0.04    -0.00  -0.02   0.01
  18   1     0.02   0.09  -0.03    -0.04   0.06  -0.03     0.06  -0.00  -0.04
  19   1     0.03   0.05  -0.06     0.01   0.01   0.01     0.06  -0.02  -0.06
  20   1     0.01   0.05  -0.04     0.05   0.02  -0.08     0.09   0.02  -0.05
  21   1    -0.01   0.03  -0.03     0.07  -0.01  -0.01     0.02  -0.09  -0.04
  22   1    -0.01   0.05  -0.00     0.03   0.03  -0.03    -0.04   0.05   0.02
  23   1    -0.03  -0.22   0.02     0.06  -0.10   0.06    -0.07  -0.12  -0.00
  24   1    -0.01   0.06   0.02    -0.02   0.03  -0.04    -0.06   0.04   0.05
  25   1    -0.00   0.04   0.02     0.03  -0.01   0.02    -0.09   0.01  -0.02
  26   1    -0.02   0.09   0.01    -0.08   0.01   0.00     0.03   0.01  -0.00
  27   1    -0.03   0.06   0.04    -0.05   0.01   0.05    -0.02  -0.02  -0.06
                      7                      8                      9
                        a                      a                      a 
 Frequencies --   243.6264               292.9568               317.0206
 Red. masses --     8.2355                12.2251                 8.1422
 Frc consts  --     0.0000                 0.0000                 0.0000
 IR Inten    --     7.1880                11.1442                16.1004
 Raman Activ --     0.0000                 0.0000                 0.0000
 Depolar     --     0.0000                 0.0000                 0.0000
 Atom AN      X      Y      Z        X      Y      Z        X      Y      Z
   1   7    -0.19   0.13   0.22    -0.22  -0.05   0.08     0.25  -0.03  -0.16
   2   6    -0.09   0.15  -0.32    -0.09  -0.10  -0.05    -0.09   0.24   0.14
   3   6     0.03  -0.11  -0.14    -0.07   0.01  -0.08    -0.13   0.09   0.14
   4   6     0.14  -0.05  -0.04     0.08   0.09  -0.20    -0.28  -0.01   0.15
   5   6     0.28  -0.04  -0.10    -0.03   0.03  -0.11     0.25  -0.19  -0.18
   6   6     0.08   0.13   0.03     0.05  -0.02   0.22    -0.01   0.04   0.04
   7   6     0.07   0.11   0.01     0.10  -0.03   0.29     0.04   0.09   0.11
   8   8     0.10  -0.06  -0.07     0.35  -0.03  -0.24     0.11  -0.03  -0.04
   9   8     0.00  -0.13   0.04    -0.30   0.05   0.43    -0.12   0.05   0.17
  10   6    -0.30  -0.06   0.24     0.20   0.04  -0.16    -0.12  -0.02  -0.08
  11   6    -0.07  -0.03   0.09    -0.01  -0.02  -0.07     0.05  -0.10  -0.18
  12   1    -0.02   0.04   0.02    -0.09  -0.02   0.03     0.17   0.02  -0.07
  13   1    -0.20   0.03   0.11    -0.08  -0.02   0.03     0.13  -0.01  -0.07
  14   1     0.05   0.04   0.18    -0.03   0.03   0.04     0.00  -0.12  -0.09
  15   1    -0.03   0.17  -0.08    -0.01  -0.03  -0.02    -0.05   0.08   0.05
  16   1    -0.02   0.03  -0.22    -0.02  -0.03  -0.00    -0.06   0.05   0.02
  17   1     0.06  -0.05  -0.06    -0.02   0.02  -0.02    -0.07   0.00   0.05
  18   1     0.02  -0.01  -0.03     0.04   0.08  -0.05    -0.18  -0.06  -0.03
  19   1     0.05  -0.03   0.01     0.05   0.00  -0.10    -0.11   0.02   0.14
  20   1     0.13   0.01  -0.09    -0.02   0.00  -0.04     0.15  -0.02  -0.23
  21   1     0.10  -0.08  -0.02    -0.04  -0.02  -0.06     0.16  -0.22   0.02
  22   1     0.02   0.03   0.01    -0.06  -0.00   0.10    -0.04   0.02   0.03
  23   1    -0.01  -0.19  -0.02    -0.03   0.04  -0.17    -0.02  -0.09  -0.04
  24   1    -0.17   0.05   0.17     0.10  -0.02  -0.14    -0.05   0.01   0.01
  25   1    -0.14  -0.14   0.06     0.09   0.12  -0.04    -0.08  -0.02  -0.05
  26   1     0.03   0.03   0.06    -0.04  -0.01  -0.05     0.03  -0.13  -0.03
  27   1    -0.04  -0.02   0.02     0.01   0.00   0.01     0.07  -0.01  -0.13
                     10                     11                     12
                        a                      a                      a 
 Frequencies --   349.6241               397.2391               412.7405
 Red. masses --     8.8537                 8.2306                 7.4426
 Frc consts  --     0.0000                 0.0000                 0.0000
 IR Inten    --     3.2161                18.9406                 4.7872
 Raman Activ --     0.0000                 0.0000                 0.0000
 Depolar     --     0.0000                 0.0000                 0.0000
 Atom AN      X      Y      Z        X      Y      Z        X      Y      Z
   1   7     0.11   0.01  -0.01     0.23   0.15  -0.07    -0.07  -0.01  -0.02
   2   6     0.09  -0.04   0.13     0.08   0.17   0.02    -0.21   0.14   0.13
   3   6    -0.10   0.05  -0.10    -0.04  -0.07   0.01    -0.09   0.05   0.21
   4   6    -0.10   0.09  -0.04     0.17   0.01   0.06     0.40   0.27  -0.07
   5   6    -0.29   0.22   0.10     0.02  -0.16   0.15     0.10  -0.04   0.11
   6   6     0.01   0.00   0.01    -0.05  -0.11  -0.02     0.05  -0.06   0.05
   7   6     0.14   0.01   0.05     0.05  -0.14   0.06    -0.09  -0.06  -0.05
   8   8     0.32  -0.04  -0.24     0.13  -0.06  -0.05    -0.17  -0.01   0.03
   9   8     0.18   0.00   0.05     0.04  -0.03   0.07    -0.05  -0.01  -0.08
  10   6    -0.35  -0.16   0.13    -0.16  -0.13  -0.20    -0.06  -0.14  -0.05
  11   6     0.03  -0.11  -0.12    -0.48   0.21   0.01     0.13  -0.16  -0.16
  12   1     0.02   0.00   0.01     0.11   0.05  -0.03     0.04   0.01  -0.02
  13   1     0.08   0.01  -0.02     0.10   0.05  -0.03     0.00  -0.00  -0.01
  14   1    -0.00   0.00  -0.04     0.03  -0.01  -0.04    -0.05  -0.07  -0.02
  15   1     0.06  -0.09   0.02     0.01   0.09   0.01    -0.13   0.09   0.07
  16   1     0.03  -0.00   0.13     0.03   0.05  -0.04    -0.07   0.03  -0.04
  17   1    -0.07   0.02  -0.01    -0.03  -0.09   0.01    -0.05  -0.03   0.07
  18   1     0.01   0.02   0.02     0.10   0.08   0.04     0.21   0.31   0.01
  19   1    -0.01   0.01  -0.03     0.08  -0.02  -0.07     0.24  -0.02  -0.23
  20   1    -0.18   0.01   0.14     0.01  -0.04   0.04     0.02  -0.02   0.03
  21   1    -0.12   0.20  -0.00    -0.00  -0.05   0.04    -0.01  -0.02   0.00
  22   1    -0.01   0.00   0.01    -0.03   0.05   0.00     0.05   0.02  -0.00
  23   1    -0.01  -0.03  -0.13     0.02   0.20  -0.06     0.00   0.12   0.03
  24   1    -0.20   0.04   0.18    -0.04  -0.04  -0.08    -0.04  -0.02   0.04
  25   1    -0.21  -0.20  -0.00    -0.00  -0.04  -0.02    -0.07  -0.07  -0.05
  26   1     0.07  -0.10   0.02    -0.21   0.26  -0.07     0.05  -0.20  -0.02
  27   1     0.06  -0.01  -0.11    -0.25   0.02   0.20     0.14  -0.00  -0.15
                     13                     14                     15
                        a                      a                      a 
 Frequencies --   449.4742               478.9749               512.1999
 Red. masses --     6.5603                 6.3975                10.9682
 Frc consts  --     0.0000                 0.0000                 0.0000
 IR Inten    --    59.7099               145.6274                48.6809
 Raman Activ --     0.0000                 0.0000                 0.0000
 Depolar     --     0.0000                 0.0000                 0.0000
 Atom AN      X      Y      Z        X      Y      Z        X      Y      Z
   1   7    -0.16  -0.12   0.06     0.09   0.04  -0.03    -0.09  -0.04   0.01
   2   6     0.04  -0.19  -0.08    -0.01   0.07   0.04    -0.04  -0.02  -0.00
   3   6     0.08   0.24  -0.16    -0.03  -0.17   0.09     0.15   0.03   0.16
   4   6    -0.05   0.21   0.20    -0.03  -0.18  -0.17     0.04  -0.09   0.04
   5   6     0.16  -0.06   0.09     0.00   0.19  -0.20    -0.12  -0.29   0.10
   6   6     0.03  -0.01   0.01    -0.02   0.20  -0.02    -0.37   0.03   0.05
   7   6    -0.01  -0.13  -0.00    -0.00  -0.02   0.01    -0.12   0.01   0.10
   8   8    -0.03  -0.17   0.04    -0.01  -0.27  -0.01     0.03  -0.01  -0.31
   9   8    -0.03  -0.03  -0.00     0.02  -0.09   0.01     0.47  -0.04  -0.02
  10   6    -0.11  -0.05  -0.05    -0.01   0.24   0.16    -0.07   0.29   0.04
  11   6     0.11   0.26  -0.19    -0.03  -0.18   0.17     0.10   0.15  -0.02
  12   1    -0.11  -0.05   0.05     0.06   0.02  -0.03    -0.03  -0.01   0.00
  13   1    -0.09  -0.04   0.03     0.04   0.03  -0.01    -0.04  -0.01   0.01
  14   1     0.00   0.06   0.05     0.00  -0.04  -0.02    -0.01   0.00   0.02
  15   1     0.07  -0.16  -0.05    -0.04   0.09   0.03    -0.06   0.03   0.02
  16   1    -0.01  -0.05   0.10     0.01   0.02  -0.07    -0.02  -0.01  -0.05
  17   1     0.04   0.02  -0.05    -0.02   0.00   0.03     0.06   0.00   0.04
  18   1    -0.05  -0.05   0.05    -0.04  -0.05  -0.07     0.06   0.02   0.04
  19   1    -0.08   0.11   0.12     0.02  -0.07   0.01    -0.01  -0.01  -0.09
  20   1     0.08  -0.01  -0.10     0.03   0.08   0.00     0.06  -0.03  -0.03
  21   1     0.12  -0.12   0.08    -0.03   0.06  -0.08    -0.03  -0.19   0.03
  22   1     0.02   0.05  -0.00    -0.01   0.00   0.00    -0.11   0.01   0.02
  23   1     0.06   0.52  -0.01     0.05   0.66  -0.06    -0.16  -0.02  -0.22
  24   1    -0.06   0.01   0.12    -0.03   0.08  -0.02     0.06   0.01   0.00
  25   1    -0.11  -0.11  -0.05     0.03   0.07   0.07    -0.02   0.17  -0.01
  26   1     0.04   0.07  -0.05     0.03  -0.10   0.08     0.06  -0.02   0.02
  27   1     0.05   0.09  -0.04    -0.02  -0.07  -0.05     0.02   0.03  -0.11
                     16                     17                     18
                        a                      a                      a 
 Frequencies --   605.3563               693.6668               719.6891
 Red. masses --     9.1613                 8.9802                11.7355
 Frc consts  --     0.0000                 0.0000                 0.0000
 IR Inten    --     1.0421                70.6274                56.7700
 Raman Activ --     0.0000                 0.0000                 0.0000
 Depolar     --     0.0000                 0.0000                 0.0000
 Atom AN      X      Y      Z        X      Y      Z        X      Y      Z
   1   7     0.12   0.06  -0.01    -0.04  -0.02   0.01    -0.01  -0.01   0.00
   2   6     0.09  -0.02  -0.13    -0.05   0.03   0.10    -0.01   0.01   0.00
   3   6    -0.28  -0.01  -0.32     0.07  -0.00   0.05     0.00   0.03  -0.02
   4   6    -0.07   0.28   0.09     0.06  -0.06  -0.09    -0.03  -0.02   0.02
   5   6     0.07   0.07   0.10     0.16   0.24  -0.16    -0.08  -0.15   0.07
   6   6     0.04   0.02   0.25     0.12  -0.01   0.16    -0.00  -0.05   0.00
   7   6    -0.14   0.02   0.04    -0.23   0.02   0.19     0.07   0.86  -0.05
   8   8    -0.19   0.01  -0.13    -0.34   0.02  -0.15    -0.03  -0.24   0.01
   9   8     0.25  -0.03  -0.05     0.30  -0.02   0.12    -0.02  -0.24   0.02
  10   6     0.06  -0.06   0.10     0.11  -0.27  -0.12     0.06  -0.16  -0.05
  11   6    -0.15  -0.31   0.15     0.07   0.05  -0.10     0.04   0.00  -0.03
  12   1     0.04   0.02   0.02    -0.01  -0.01  -0.02     0.01   0.00   0.01
  13   1     0.03  -0.01  -0.00     0.02   0.02  -0.01    -0.01  -0.01   0.00
  14   1     0.03   0.03  -0.00    -0.03  -0.03  -0.02    -0.00  -0.01   0.00
  15   1     0.17  -0.11  -0.10    -0.07   0.06   0.05     0.01  -0.02  -0.00
  16   1     0.03   0.01   0.11    -0.02  -0.00  -0.04    -0.01   0.00   0.03
  17   1    -0.04  -0.00  -0.11    -0.03   0.00   0.03     0.00   0.00  -0.01
  18   1     0.02   0.11   0.05    -0.11  -0.16  -0.10     0.04   0.03   0.04
  19   1     0.05   0.02   0.00    -0.03   0.02   0.20    -0.01  -0.01  -0.08
  20   1     0.06   0.03  -0.17    -0.01   0.04   0.07    -0.06  -0.06   0.05
  21   1     0.10  -0.15   0.09    -0.03   0.15  -0.10    -0.01   0.04   0.03
  22   1     0.07  -0.00   0.04     0.03  -0.00   0.05    -0.00  -0.04   0.00
  23   1    -0.11   0.01  -0.09    -0.25   0.01  -0.18     0.01   0.12  -0.01
  24   1     0.05  -0.05  -0.19    -0.01  -0.04   0.08     0.06  -0.08  -0.03
  25   1     0.13   0.15   0.07    -0.06  -0.15  -0.08     0.02   0.03  -0.03
  26   1    -0.01  -0.11   0.07    -0.08   0.16  -0.11    -0.03   0.05  -0.05
  27   1     0.02  -0.05   0.02    -0.03   0.01   0.18     0.01   0.01   0.08
                     19                     20                     21
                        a                      a                      a 
 Frequencies --   775.8159               813.0379               825.9926
 Red. masses --     7.0349                 4.6681                 6.0322
 Frc consts  --     0.0000                 0.0000                 0.0000
 IR Inten    --    27.0188                 1.0603                16.5649
 Raman Activ --     0.0000                 0.0000                 0.0000
 Depolar     --     0.0000                 0.0000                 0.0000
 Atom AN      X      Y      Z        X      Y      Z        X      Y      Z
   1   7     0.13  -0.04  -0.04    -0.01   0.02  -0.01     0.01  -0.08   0.09
   2   6     0.22  -0.23  -0.10     0.01  -0.01  -0.02     0.03  -0.06   0.17
   3   6     0.18  -0.01   0.31     0.00  -0.19   0.04    -0.09  -0.05  -0.17
   4   6    -0.07   0.35   0.12    -0.24  -0.04   0.07    -0.04  -0.02  -0.12
   5   6    -0.09   0.12  -0.13    -0.23   0.13   0.03    -0.07  -0.06   0.11
   6   6    -0.08  -0.03  -0.12     0.01   0.16  -0.03     0.14   0.01   0.43
   7   6     0.00   0.06   0.03    -0.01  -0.03   0.01     0.03   0.01  -0.14
   8   8     0.00  -0.01   0.00    -0.01   0.01  -0.00     0.04  -0.01  -0.00
   9   8    -0.01  -0.01   0.04     0.00   0.02   0.01     0.01  -0.02  -0.18
  10   6    -0.07  -0.13  -0.11     0.24   0.05  -0.06     0.02   0.10   0.11
  11   6    -0.09  -0.16   0.09     0.22  -0.11  -0.04     0.01   0.08  -0.18
  12   1    -0.29  -0.12  -0.05     0.04   0.02   0.02    -0.25  -0.13  -0.16
  13   1    -0.03   0.14   0.02    -0.02  -0.03   0.00     0.22   0.30  -0.03
  14   1     0.14   0.24   0.05     0.01  -0.00   0.01    -0.11   0.01  -0.11
  15   1    -0.08   0.21   0.04    -0.01  -0.03  -0.00     0.00   0.30   0.07
  16   1     0.01  -0.11  -0.33     0.03   0.01   0.00    -0.12  -0.09  -0.23
  17   1     0.04  -0.01   0.09     0.01  -0.02   0.01    -0.10  -0.02  -0.01
  18   1    -0.04   0.09   0.02     0.11   0.24   0.11    -0.02  -0.07  -0.03
  19   1    -0.06   0.13   0.03     0.09  -0.13  -0.25    -0.04   0.01   0.02
  20   1    -0.04   0.01  -0.13     0.09   0.10  -0.26    -0.00  -0.02  -0.05
  21   1     0.02  -0.00  -0.00     0.10  -0.22   0.13    -0.06  -0.14  -0.00
  22   1    -0.06  -0.01  -0.02    -0.00   0.01  -0.00     0.09  -0.02   0.09
  23   1    -0.03  -0.00  -0.02    -0.01   0.00  -0.01     0.14  -0.01   0.11
  24   1    -0.02  -0.04  -0.07    -0.07   0.14   0.24    -0.00   0.03   0.03
  25   1     0.02  -0.02  -0.01    -0.14  -0.23  -0.11    -0.06   0.09  -0.03
  26   1    -0.04  -0.10   0.01    -0.08   0.23  -0.13    -0.01   0.10  -0.06
  27   1    -0.01  -0.04  -0.01    -0.11  -0.10   0.25    -0.03   0.01   0.02
                     22                     23                     24
                        a                      a                      a 
 Frequencies --   862.2327               881.3562               904.0861
 Red. masses --     6.6038                 7.7426                 7.9501
 Frc consts  --     0.0000                 0.0000                 0.0000
 IR Inten    --    30.6320                26.3856                 7.0540
 Raman Activ --     0.0000                 0.0000                 0.0000
 Depolar     --     0.0000                 0.0000                 0.0000
 Atom AN      X      Y      Z        X      Y      Z        X      Y      Z
   1   7    -0.00  -0.05   0.14    -0.20  -0.03   0.10    -0.03   0.06   0.00
   2   6    -0.01  -0.01   0.07    -0.02   0.11   0.13     0.02  -0.05  -0.01
   3   6    -0.16  -0.02  -0.25     0.22  -0.04  -0.12    -0.04  -0.30   0.01
   4   6     0.01  -0.09   0.11     0.19   0.14   0.08     0.08   0.20   0.24
   5   6     0.08   0.01   0.02    -0.08   0.25  -0.07    -0.06   0.12  -0.26
   6   6    -0.07  -0.02  -0.49    -0.38   0.02  -0.03     0.02  -0.30   0.01
   7   6    -0.03   0.01   0.15     0.02  -0.00  -0.07     0.01   0.07   0.01
   8   8    -0.06   0.01   0.02     0.17  -0.02   0.02    -0.02  -0.01  -0.00
   9   8    -0.02   0.01   0.20    -0.05  -0.00  -0.09     0.00  -0.02   0.02
  10   6     0.10  -0.01   0.04    -0.12  -0.22  -0.02     0.10   0.19   0.26
  11   6     0.05   0.11   0.07     0.15  -0.15   0.08    -0.10   0.20  -0.28
  12   1    -0.16  -0.09  -0.15     0.11   0.03  -0.05     0.13   0.06   0.02
  13   1     0.25   0.27  -0.04     0.13   0.02  -0.04     0.00  -0.06  -0.01
  14   1    -0.15  -0.05  -0.13    -0.21  -0.24  -0.10    -0.04  -0.09  -0.01
  15   1     0.12   0.17  -0.01     0.02   0.03   0.02    -0.02  -0.03   0.01
  16   1    -0.11  -0.05  -0.07     0.01   0.03   0.04     0.10   0.02  -0.03
  17   1    -0.00  -0.02  -0.08     0.08  -0.02  -0.04    -0.04  -0.29   0.02
  18   1     0.10   0.06   0.09     0.02  -0.12   0.03    -0.01   0.06   0.04
  19   1     0.08  -0.09  -0.07     0.00   0.08   0.18     0.09  -0.01   0.14
  20   1     0.04   0.01   0.02     0.08   0.12  -0.14    -0.12  -0.03  -0.14
  21   1     0.13   0.08   0.08    -0.01  -0.12  -0.00     0.02   0.06  -0.04
  22   1    -0.04  -0.01  -0.12    -0.15   0.00   0.01    -0.01  -0.28   0.01
  23   1    -0.17   0.01  -0.13     0.09  -0.00   0.05    -0.01  -0.01  -0.01
  24   1     0.04  -0.01   0.06     0.07  -0.15  -0.12     0.10  -0.01   0.15
  25   1     0.10  -0.12   0.09     0.02   0.12  -0.01     0.01   0.05   0.05
  26   1     0.09  -0.05   0.08     0.04   0.13   0.01     0.02   0.02  -0.04
  27   1     0.09   0.06  -0.07    -0.02  -0.06   0.17    -0.09   0.01  -0.19
                     25                     26                     27
                        a                      a                      a 
 Frequencies --   936.8606               971.3000               980.4433
 Red. masses --     7.2141                 6.0666                 6.6730
 Frc consts  --     0.0000                 0.0000                 0.0000
 IR Inten    --    12.7609                70.5994                25.0224
 Raman Activ --     0.0000                 0.0000                 0.0000
 Depolar     --     0.0000                 0.0000                 0.0000
 Atom AN      X      Y      Z        X      Y      Z        X      Y      Z
   1   7     0.23   0.03  -0.11    -0.14   0.05  -0.01     0.15   0.19   0.07
   2   6    -0.11  -0.06  -0.02     0.16  -0.09   0.03    -0.19  -0.21  -0.07
   3   6    -0.30   0.01   0.03     0.09  -0.03   0.05    -0.14   0.01  -0.03
   4   6     0.06  -0.24   0.04    -0.08  -0.17  -0.13     0.29   0.12  -0.08
   5   6     0.07   0.26  -0.01    -0.17   0.21   0.11    -0.15  -0.08   0.11
   6   6    -0.31  -0.01   0.07     0.16   0.04   0.06    -0.13   0.02  -0.04
   7   6    -0.01   0.00  -0.06     0.06   0.03   0.02    -0.04   0.08  -0.02
   8   8     0.12  -0.01  -0.00    -0.10   0.00  -0.05     0.08  -0.02   0.04
   9   8    -0.02  -0.01  -0.08     0.02  -0.00   0.04    -0.02  -0.01  -0.04
  10   6     0.03  -0.22   0.09    -0.02  -0.24  -0.06     0.31   0.09  -0.11
  11   6     0.09   0.21  -0.06    -0.19   0.31   0.03    -0.13  -0.04   0.11
  12   1    -0.14  -0.04   0.05     0.18   0.08   0.02     0.11   0.07   0.01
  13   1    -0.13  -0.01   0.04    -0.01  -0.10  -0.02     0.08   0.03   0.00
  14   1     0.23   0.27   0.10    -0.09  -0.16  -0.01     0.00  -0.02  -0.01
  15   1    -0.05  -0.02   0.00    -0.09   0.07   0.06    -0.04  -0.03  -0.02
  16   1    -0.08  -0.03   0.02     0.18   0.01  -0.18     0.01  -0.03  -0.04
  17   1    -0.13  -0.02   0.03    -0.04   0.05   0.04    -0.01   0.03  -0.02
  18   1     0.02   0.03  -0.00     0.09  -0.08   0.06    -0.04  -0.26  -0.05
  19   1     0.16  -0.18   0.06    -0.04  -0.03  -0.11    -0.07   0.15   0.25
  20   1     0.16   0.16   0.01     0.09   0.11  -0.21     0.06   0.03  -0.03
  21   1     0.01  -0.04  -0.01     0.08  -0.20   0.13    -0.13  -0.21  -0.03
  22   1    -0.12  -0.03   0.04     0.06   0.08   0.01    -0.04   0.03  -0.01
  23   1     0.09  -0.01   0.06     0.02  -0.00   0.03    -0.02  -0.01  -0.02
  24   1     0.15  -0.18   0.05     0.01  -0.07  -0.09    -0.05   0.15   0.24
  25   1     0.01   0.07  -0.00     0.14  -0.08   0.09    -0.07  -0.29  -0.06
  26   1     0.01   0.00  -0.02     0.06  -0.20   0.11    -0.12  -0.20  -0.03
  27   1     0.14   0.13   0.02     0.15   0.16  -0.24     0.09   0.05  -0.03
                     28                     29                     30
                        a                      a                      a 
 Frequencies --  1005.6288              1012.9087              1029.1611
 Red. masses --     7.5474                 7.2525                 7.7596
 Frc consts  --     0.0000                 0.0000                 0.0000
 IR Inten    --    88.6543                75.8590                29.7166
 Raman Activ --     0.0000                 0.0000                 0.0000
 Depolar     --     0.0000                 0.0000                 0.0000
 Atom AN      X      Y      Z        X      Y      Z        X      Y      Z
   1   7    -0.12  -0.22  -0.22     0.04   0.23   0.01    -0.26  -0.16  -0.05
   2   6     0.22   0.29   0.25    -0.04  -0.37   0.04     0.49   0.14  -0.09
   3   6    -0.02   0.03  -0.16    -0.11  -0.13  -0.07    -0.24  -0.06   0.07
   4   6     0.14   0.04  -0.12    -0.17   0.16  -0.13    -0.09   0.10   0.02
   5   6    -0.08   0.00   0.16     0.19  -0.09   0.14     0.18  -0.10   0.03
   6   6     0.01  -0.02  -0.16    -0.05   0.07  -0.08    -0.23   0.09   0.05
   7   6    -0.11   0.03  -0.00    -0.13  -0.03  -0.02     0.00  -0.01  -0.01
   8   8     0.15  -0.01   0.16     0.19  -0.00   0.17     0.01  -0.00  -0.07
   9   8    -0.04  -0.00  -0.02    -0.04   0.01  -0.07     0.02  -0.00  -0.02
  10   6     0.09   0.05   0.15    -0.08  -0.03   0.09     0.18  -0.01  -0.03
  11   6    -0.07  -0.12  -0.12     0.20   0.03  -0.05    -0.02   0.03   0.08
  12   1    -0.12  -0.06   0.06     0.24   0.14   0.04     0.02  -0.02  -0.03
  13   1    -0.25  -0.16   0.02     0.01  -0.08  -0.01    -0.03  -0.08  -0.03
  14   1     0.13   0.12   0.09    -0.02  -0.09   0.01    -0.11  -0.14  -0.04
  15   1    -0.10   0.09   0.12    -0.20   0.06   0.09     0.14   0.08  -0.03
  16   1     0.02   0.06  -0.01     0.14  -0.06  -0.25     0.20   0.05  -0.12
  17   1    -0.21   0.01   0.05    -0.15   0.01   0.03    -0.11  -0.02   0.04
  18   1     0.03  -0.18  -0.00    -0.07   0.05  -0.05    -0.13   0.14  -0.09
  19   1    -0.06   0.09   0.08    -0.05   0.05  -0.06     0.03  -0.02   0.03
  20   1     0.06   0.04  -0.07    -0.01  -0.06   0.11     0.04  -0.01   0.21
  21   1     0.02  -0.12   0.07     0.06   0.12   0.04    -0.09   0.09  -0.09
  22   1     0.12  -0.05  -0.10     0.08   0.11  -0.07    -0.13   0.10   0.05
  23   1    -0.21   0.00  -0.17    -0.18   0.02  -0.15     0.13  -0.00   0.09
  24   1    -0.00   0.04   0.01     0.09  -0.11  -0.04     0.06  -0.01   0.19
  25   1     0.08  -0.05   0.10     0.00   0.14   0.00    -0.06  -0.10  -0.06
  26   1     0.01   0.06  -0.01     0.05   0.14  -0.02    -0.09  -0.11  -0.04
  27   1    -0.08  -0.06  -0.00     0.02   0.00   0.12     0.10   0.07   0.04
                     31                     32                     33
                        a                      a                      a 
 Frequencies --  1035.7522              1069.6148              1078.3026
 Red. masses --     8.9876                 6.5338                 6.0058
 Frc consts  --     0.0000                 0.0000                 0.0000
 IR Inten    --   319.9752                 5.2739                 0.6603
 Raman Activ --     0.0000                 0.0000                 0.0000
 Depolar     --     0.0000                 0.0000                 0.0000
 Atom AN      X      Y      Z        X      Y      Z        X      Y      Z
   1   7    -0.04  -0.05   0.09     0.02  -0.04  -0.05    -0.07   0.02  -0.04
   2   6     0.06   0.08  -0.18     0.01   0.06   0.06     0.16  -0.08   0.06
   3   6     0.05   0.05   0.19    -0.15  -0.21  -0.05    -0.17   0.16  -0.09
   4   6    -0.05  -0.11   0.05     0.11   0.06   0.18     0.12  -0.14   0.12
   5   6    -0.02   0.08  -0.09    -0.24  -0.21  -0.18     0.00   0.07  -0.08
   6   6     0.06  -0.02   0.18     0.17   0.24   0.01     0.06  -0.29   0.04
   7   6    -0.28   0.03  -0.09    -0.00  -0.02  -0.00     0.00   0.03  -0.01
   8   8     0.36  -0.01   0.35    -0.01   0.01   0.03    -0.01  -0.00   0.02
   9   8    -0.07  -0.01  -0.26    -0.01   0.01  -0.02    -0.00  -0.01  -0.02
  10   6    -0.00  -0.06  -0.07    -0.09  -0.07  -0.15    -0.18   0.24  -0.22
  11   6    -0.09   0.08   0.01     0.22   0.18   0.16     0.11  -0.03   0.22
  12   1    -0.04  -0.03  -0.05    -0.04  -0.02   0.02     0.07   0.04   0.01
  13   1     0.09   0.08  -0.01    -0.06  -0.03   0.01    -0.04  -0.07  -0.01
  14   1    -0.08  -0.05  -0.05     0.05   0.05   0.02    -0.01  -0.03   0.02
  15   1     0.17  -0.06  -0.11     0.00   0.00   0.02    -0.06   0.09   0.06
  16   1    -0.01   0.02   0.09     0.02   0.02   0.02     0.07  -0.02  -0.15
  17   1     0.14   0.00  -0.01    -0.05  -0.26  -0.00    -0.08   0.30  -0.01
  18   1    -0.03   0.10  -0.02    -0.05   0.02  -0.01     0.12  -0.07   0.11
  19   1     0.06  -0.09  -0.04     0.10  -0.05   0.17     0.17  -0.15   0.13
  20   1     0.02   0.04  -0.01    -0.19  -0.13  -0.10    -0.11  -0.06  -0.12
  21   1    -0.03  -0.01  -0.04    -0.19  -0.09  -0.14     0.12   0.06   0.07
  22   1     0.10  -0.04   0.00     0.04   0.25  -0.00    -0.03  -0.23   0.03
  23   1    -0.36   0.01  -0.30    -0.06   0.01  -0.04    -0.03  -0.01  -0.02
  24   1    -0.01  -0.01   0.01    -0.10   0.05  -0.17    -0.14   0.14  -0.07
  25   1    -0.03  -0.01  -0.04     0.09  -0.04   0.05    -0.20   0.11  -0.18
  26   1    -0.07  -0.11  -0.02     0.17   0.08   0.13    -0.07  -0.04  -0.01
  27   1     0.04   0.05  -0.07     0.20   0.13   0.10     0.14   0.07   0.16
                     34                     35                     36
                        a                      a                      a 
 Frequencies --  1128.1837              1133.5598              1153.8450
 Red. masses --     7.3569                 7.9482                 2.7226
 Frc consts  --     0.0000                 0.0000                 0.0000
 IR Inten    --    27.5076                 7.4982                 0.5923
 Raman Activ --     0.0000                 0.0000                 0.0000
 Depolar     --     0.0000                 0.0000                 0.0000
 Atom AN      X      Y      Z        X      Y      Z        X      Y      Z
   1   7    -0.01  -0.04   0.07    -0.04   0.05   0.03     0.05  -0.08  -0.01
   2   6     0.05   0.05  -0.25     0.09  -0.12  -0.11    -0.07   0.16   0.00
   3   6    -0.17  -0.09   0.30    -0.08   0.32   0.10    -0.02  -0.24   0.02
   4   6     0.07   0.03  -0.25     0.14  -0.14   0.19     0.03   0.04  -0.15
   5   6    -0.10   0.08   0.26    -0.16  -0.12  -0.17     0.02   0.03   0.01
   6   6     0.09  -0.15  -0.20     0.07   0.30  -0.11     0.02   0.04  -0.00
   7   6     0.18   0.02   0.01     0.08  -0.08   0.01     0.03  -0.05  -0.00
   8   8    -0.12   0.00  -0.03    -0.05   0.02  -0.01    -0.01   0.01   0.01
   9   8    -0.01   0.00   0.14    -0.00   0.02   0.06    -0.00   0.01  -0.00
  10   6    -0.18   0.06   0.06     0.02  -0.10   0.30    -0.03   0.02  -0.01
  11   6     0.16   0.04  -0.05    -0.06  -0.14  -0.26    -0.00   0.07   0.14
  12   1    -0.03  -0.03  -0.05     0.07   0.03  -0.01    -0.08  -0.05   0.01
  13   1     0.08   0.05  -0.01     0.04  -0.01  -0.01    -0.01   0.05   0.01
  14   1    -0.05  -0.02  -0.04    -0.05  -0.07  -0.02     0.02   0.03  -0.00
  15   1     0.16  -0.08  -0.13     0.04   0.02  -0.03     0.03  -0.07  -0.03
  16   1     0.04   0.03   0.05     0.02  -0.03  -0.07     0.04   0.07   0.07
  17   1    -0.03   0.07   0.07    -0.08  -0.07   0.05     0.02  -0.28  -0.00
  18   1    -0.17  -0.01  -0.20     0.09  -0.06   0.10     0.13  -0.21   0.09
  19   1     0.09  -0.06   0.24    -0.07   0.05  -0.08    -0.28   0.25  -0.21
  20   1     0.02   0.03  -0.10     0.08   0.05   0.07    -0.09  -0.06  -0.10
  21   1    -0.06  -0.21   0.04    -0.09  -0.04  -0.08     0.24   0.16   0.17
  22   1     0.23   0.05  -0.15     0.08  -0.18  -0.05    -0.00  -0.02   0.00
  23   1    -0.05  -0.00  -0.03    -0.03   0.01  -0.02    -0.02   0.00  -0.01
  24   1     0.08  -0.09  -0.01    -0.05   0.02  -0.13     0.10  -0.09   0.11
  25   1    -0.07   0.19  -0.04     0.03   0.13   0.06    -0.23   0.20  -0.20
  26   1    -0.03   0.06  -0.07    -0.20  -0.03  -0.21    -0.16  -0.16  -0.07
  27   1    -0.04  -0.02   0.08     0.17   0.11   0.25     0.27   0.18   0.16
                     37                     38                     39
                        a                      a                      a 
 Frequencies --  1155.7193              1166.3200              1210.9200
 Red. masses --     2.4048                 7.7402                 3.5133
 Frc consts  --     0.0000                 0.0000                 0.0000
 IR Inten    --     0.5112               189.3033                 0.8309
 Raman Activ --     0.0000                 0.0000                 0.0000
 Depolar     --     0.0000                 0.0000                 0.0000
 Atom AN      X      Y      Z        X      Y      Z        X      Y      Z
   1   7     0.01  -0.01   0.00    -0.00   0.01  -0.02     0.03  -0.05   0.11
   2   6    -0.02   0.00  -0.01    -0.00  -0.01   0.06     0.01   0.05  -0.24
   3   6    -0.02  -0.08   0.02     0.01   0.00  -0.07    -0.13   0.03   0.21
   4   6    -0.07   0.06  -0.06    -0.02   0.02   0.04     0.09  -0.02  -0.12
   5   6     0.07   0.08   0.11     0.02   0.01   0.01     0.02  -0.02   0.03
   6   6    -0.02  -0.21   0.01     0.01  -0.01   0.07    -0.07   0.02   0.09
   7   6     0.00   0.05  -0.00     0.65  -0.06  -0.12     0.03  -0.00  -0.02
   8   8    -0.00  -0.01  -0.00    -0.26   0.03   0.13    -0.00   0.00   0.03
   9   8    -0.00  -0.01   0.01    -0.10   0.00  -0.12    -0.01  -0.01  -0.11
  10   6    -0.06   0.08  -0.12     0.02  -0.00   0.01     0.03   0.01   0.05
  11   6     0.09   0.05   0.05    -0.02  -0.01   0.04     0.09  -0.02  -0.14
  12   1    -0.01  -0.00   0.01     0.01   0.01   0.01    -0.05  -0.04  -0.06
  13   1     0.00   0.01   0.00    -0.02  -0.02   0.00     0.08   0.09   0.00
  14   1    -0.00  -0.00  -0.00     0.02   0.01   0.01    -0.05  -0.00  -0.05
  15   1     0.01  -0.02  -0.01    -0.01   0.03   0.02    -0.06  -0.15  -0.06
  16   1     0.03   0.01   0.01    -0.02  -0.01  -0.01     0.15   0.07   0.02
  17   1    -0.03  -0.30   0.02     0.01   0.00  -0.02    -0.23   0.07   0.13
  18   1    -0.11   0.08  -0.09    -0.01   0.03   0.01     0.09  -0.15   0.05
  19   1    -0.15   0.12  -0.12    -0.02   0.02  -0.03    -0.04   0.04   0.03
  20   1     0.34   0.23   0.23     0.08   0.05   0.08    -0.17  -0.12  -0.12
  21   1    -0.09  -0.10  -0.05    -0.10  -0.07  -0.07     0.25   0.16   0.19
  22   1    -0.02  -0.39   0.01    -0.30   0.03   0.17    -0.36   0.04   0.19
  23   1     0.00  -0.01   0.00    -0.40   0.02  -0.28    -0.03   0.00  -0.02
  24   1    -0.30   0.26  -0.26     0.05  -0.04   0.07    -0.15   0.13  -0.14
  25   1     0.07  -0.10   0.06    -0.07   0.06  -0.06     0.23  -0.18   0.22
  26   1     0.11   0.08   0.08     0.01  -0.01   0.02     0.10   0.14   0.02
  27   1     0.16   0.10   0.11    -0.05  -0.03  -0.04    -0.05  -0.04   0.03
                     40                     41                     42
                        a                      a                      a 
 Frequencies --  1231.4742              1254.7782              1275.1571
 Red. masses --     2.9464                 4.0424                 5.3914
 Frc consts  --     0.0000                 0.0000                 0.0000
 IR Inten    --    17.3552                 7.9476                 1.1044
 Raman Activ --     0.0000                 0.0000                 0.0000
 Depolar     --     0.0000                 0.0000                 0.0000
 Atom AN      X      Y      Z        X      Y      Z        X      Y      Z
   1   7    -0.11   0.15  -0.18     0.01  -0.01   0.02     0.00   0.04   0.05
   2   6     0.06  -0.14   0.11     0.04  -0.00  -0.12     0.09  -0.04  -0.09
   3   6    -0.09   0.03   0.16    -0.28   0.00   0.09     0.06   0.31  -0.04
   4   6     0.07  -0.03  -0.09     0.13  -0.01   0.17    -0.02  -0.15   0.04
   5   6    -0.02   0.03   0.01    -0.06  -0.00  -0.17     0.07   0.18  -0.05
   6   6     0.01  -0.03   0.03     0.15  -0.00   0.02    -0.03  -0.38   0.02
   7   6    -0.03   0.01  -0.00    -0.08   0.01   0.01     0.01   0.05  -0.00
   8   8     0.01  -0.00   0.00     0.02  -0.00  -0.01    -0.00  -0.01  -0.00
   9   8     0.00  -0.00  -0.03     0.01  -0.00   0.02    -0.00  -0.01   0.01
  10   6    -0.02   0.01  -0.02    -0.07  -0.01  -0.16    -0.02   0.19   0.01
  11   6     0.08   0.00  -0.02     0.13   0.02   0.12    -0.03  -0.15   0.04
  12   1     0.14   0.11   0.09    -0.01  -0.01  -0.01     0.00   0.00  -0.02
  13   1    -0.09  -0.15  -0.03     0.02   0.02  -0.00     0.01   0.00   0.01
  14   1     0.05  -0.06   0.07    -0.02  -0.03  -0.01    -0.05  -0.05  -0.03
  15   1     0.56   0.30  -0.14     0.04  -0.02  -0.04    -0.15  -0.05   0.03
  16   1    -0.42  -0.21   0.01     0.07   0.02  -0.02    -0.07  -0.04   0.02
  17   1     0.04  -0.15   0.02    -0.19   0.11   0.07    -0.20  -0.42   0.09
  18   1     0.00  -0.07  -0.02     0.18  -0.17   0.19     0.03   0.02   0.02
  19   1    -0.07   0.06  -0.03    -0.24   0.22  -0.20    -0.04  -0.00  -0.11
  20   1    -0.06  -0.03  -0.05     0.19   0.13   0.12    -0.03   0.01  -0.07
  21   1     0.13   0.05   0.10    -0.10  -0.05  -0.11    -0.07  -0.06  -0.08
  22   1    -0.11   0.06   0.06     0.07  -0.03  -0.01     0.07   0.52  -0.04
  23   1     0.00  -0.00   0.00     0.02  -0.00   0.02    -0.00  -0.01   0.00
  24   1    -0.03   0.02   0.01     0.15  -0.15   0.12     0.05   0.00   0.07
  25   1     0.07  -0.04   0.06    -0.06   0.04  -0.09     0.01  -0.04   0.04
  26   1     0.03   0.04   0.01     0.20   0.15   0.16     0.00   0.01   0.01
  27   1    -0.06  -0.05  -0.00    -0.28  -0.19  -0.18     0.05   0.01   0.10
                     43                     44                     45
                        a                      a                      a 
 Frequencies --  1288.3386              1316.3337              1323.4402
 Red. masses --     3.8397                 4.6280                 4.5130
 Frc consts  --     0.0000                 0.0000                 0.0000
 IR Inten    --     5.6605                37.8848                52.3102
 Raman Activ --     0.0000                 0.0000                 0.0000
 Depolar     --     0.0000                 0.0000                 0.0000
 Atom AN      X      Y      Z        X      Y      Z        X      Y      Z
   1   7     0.01  -0.07  -0.07     0.02   0.09   0.03    -0.04  -0.12  -0.06
   2   6    -0.14   0.01   0.12     0.08   0.04  -0.11    -0.19  -0.06   0.10
   3   6    -0.09  -0.21   0.04     0.10  -0.23   0.01    -0.07   0.21   0.07
   4   6    -0.03   0.04   0.09    -0.07   0.02   0.06     0.00  -0.06  -0.04
   5   6     0.11   0.10  -0.06     0.24   0.08   0.02     0.05   0.02  -0.05
   6   6    -0.00  -0.24   0.01    -0.32   0.04   0.08    -0.30   0.01   0.12
   7   6    -0.00   0.03  -0.00     0.16  -0.02  -0.03     0.17  -0.02  -0.03
   8   8     0.00  -0.01   0.00    -0.03   0.00   0.00    -0.04   0.00   0.00
   9   8     0.00  -0.01  -0.00    -0.02   0.00   0.03    -0.02   0.00   0.02
  10   6    -0.13   0.13   0.06     0.11  -0.08   0.01     0.17  -0.09   0.01
  11   6     0.08   0.01  -0.15     0.00   0.10   0.01    -0.06  -0.03  -0.01
  12   1    -0.00  -0.01   0.04    -0.04  -0.00  -0.03     0.07   0.01   0.06
  13   1    -0.01   0.03  -0.01    -0.02  -0.06   0.01     0.04   0.11  -0.02
  14   1     0.06   0.05   0.04    -0.05  -0.07  -0.03     0.08   0.10   0.05
  15   1     0.18   0.07  -0.04    -0.02  -0.04  -0.02     0.24   0.08  -0.07
  16   1     0.22   0.09  -0.05    -0.32  -0.10   0.12     0.41   0.14  -0.15
  17   1     0.25   0.33  -0.11    -0.28   0.23   0.12     0.11  -0.16  -0.03
  18   1     0.13  -0.08   0.14     0.12  -0.07   0.14     0.04  -0.04   0.03
  19   1    -0.11   0.09  -0.13    -0.07   0.05  -0.11     0.02  -0.03  -0.00
  20   1     0.03   0.03   0.03    -0.20  -0.14  -0.10    -0.09  -0.06  -0.04
  21   1    -0.17  -0.08  -0.16    -0.18  -0.03  -0.17     0.07   0.08   0.03
  22   1    -0.01   0.29   0.00     0.31  -0.07  -0.17     0.34   0.04  -0.17
  23   1     0.00  -0.01   0.00    -0.04   0.00  -0.03    -0.04   0.00  -0.03
  24   1    -0.02   0.02  -0.02    -0.15   0.13  -0.12    -0.14   0.13  -0.07
  25   1     0.22  -0.10   0.23    -0.01  -0.04  -0.02    -0.10   0.02  -0.11
  26   1    -0.18  -0.05  -0.20     0.00  -0.05   0.01     0.17   0.14   0.13
  27   1     0.12   0.08   0.13     0.02   0.03  -0.02    -0.08  -0.05  -0.09
                     46                     47                     48
                        a                      a                      a 
 Frequencies --  1330.6580              1344.2621              1349.0703
 Red. masses --     4.0335                 4.4614                 4.1942
 Frc consts  --     0.0000                 0.0000                 0.0000
 IR Inten    --     1.1919                 9.7684                12.5056
 Raman Activ --     0.0000                 0.0000                 0.0000
 Depolar     --     0.0000                 0.0000                 0.0000
 Atom AN      X      Y      Z        X      Y      Z        X      Y      Z
   1   7    -0.00  -0.02  -0.01     0.02  -0.00  -0.01    -0.03  -0.07  -0.02
   2   6    -0.04  -0.03   0.02     0.02  -0.01   0.03    -0.15  -0.02   0.02
   3   6    -0.00   0.09   0.00    -0.12   0.01  -0.05     0.16   0.11  -0.04
   4   6     0.07  -0.15   0.06     0.19  -0.19   0.16    -0.20   0.08  -0.11
   5   6     0.17   0.14   0.18     0.08   0.15   0.13     0.17   0.04   0.13
   6   6    -0.01   0.17   0.00     0.08  -0.05  -0.16     0.13   0.06  -0.13
   7   6     0.02  -0.01  -0.00    -0.13   0.01   0.01    -0.11   0.00   0.01
   8   8    -0.00   0.00   0.00     0.04  -0.00  -0.00     0.03  -0.00  -0.00
   9   8    -0.00  -0.00   0.00     0.01  -0.00   0.01     0.01   0.00   0.00
  10   6    -0.15   0.15  -0.21     0.16  -0.15   0.20    -0.04  -0.05   0.02
  11   6    -0.09  -0.15  -0.05     0.05   0.08   0.03     0.15   0.09   0.16
  12   1     0.01   0.00   0.02    -0.02  -0.00   0.03     0.08   0.02   0.01
  13   1    -0.00   0.02   0.00    -0.01   0.02   0.01     0.02   0.07  -0.01
  14   1     0.01   0.00   0.00     0.00  -0.03   0.00     0.03   0.10   0.00
  15   1     0.04   0.03  -0.01    -0.05  -0.00   0.03     0.19   0.05  -0.07
  16   1     0.10   0.03  -0.03     0.05   0.01  -0.03     0.17   0.07  -0.03
  17   1     0.02  -0.03  -0.01     0.10   0.07  -0.07    -0.27  -0.22   0.12
  18   1    -0.12   0.09  -0.12    -0.24   0.17  -0.22     0.18  -0.14   0.18
  19   1    -0.11   0.06  -0.13    -0.21   0.16  -0.21     0.14  -0.14   0.05
  20   1    -0.29  -0.19  -0.20    -0.18  -0.10  -0.19    -0.10  -0.08  -0.02
  21   1    -0.16  -0.13  -0.10    -0.11  -0.10  -0.06    -0.23  -0.16  -0.17
  22   1    -0.01  -0.36   0.01    -0.23   0.09   0.08    -0.21  -0.14   0.09
  23   1    -0.00   0.01  -0.00     0.03  -0.00   0.02     0.02  -0.00   0.02
  24   1     0.25  -0.21   0.23    -0.18   0.15  -0.19    -0.02  -0.01  -0.05
  25   1     0.15  -0.16   0.13    -0.19   0.17  -0.17    -0.02   0.04  -0.02
  26   1     0.14   0.10   0.11    -0.04   0.00  -0.04    -0.22  -0.15  -0.15
  27   1     0.13   0.07   0.13    -0.13  -0.07  -0.14    -0.16  -0.10  -0.11
                     49                     50                     51
                        a                      a                      a 
 Frequencies --  1350.2398              1367.6361              1367.9211
 Red. masses --     4.2664                 3.5043                 3.7664
 Frc consts  --     0.0000                 0.0000                 0.0000
 IR Inten    --     1.7503               128.2537               164.6324
 Raman Activ --     0.0000                 0.0000                 0.0000
 Depolar     --     0.0000                 0.0000                 0.0000
 Atom AN      X      Y      Z        X      Y      Z        X      Y      Z
   1   7     0.00  -0.03  -0.03    -0.25  -0.12   0.03     0.18   0.16   0.02
   2   6    -0.21  -0.01   0.00     0.15   0.03  -0.05     0.02  -0.01   0.02
   3   6     0.31  -0.12  -0.04    -0.09  -0.04   0.11    -0.10   0.05   0.14
   4   6     0.01   0.01   0.10    -0.08   0.07  -0.08    -0.15   0.07  -0.15
   5   6    -0.07  -0.02  -0.03     0.08   0.02   0.05     0.11   0.02   0.07
   6   6     0.12  -0.07  -0.08     0.06  -0.02  -0.08     0.07  -0.01  -0.10
   7   6    -0.08   0.01   0.01    -0.07   0.01   0.01    -0.07   0.01   0.01
   8   8     0.02  -0.00  -0.00     0.02  -0.00  -0.00     0.02  -0.00  -0.00
   9   8     0.01  -0.00  -0.00     0.01  -0.00  -0.00     0.00  -0.00  -0.00
  10   6     0.09   0.01   0.06     0.08  -0.01   0.06     0.10  -0.03   0.07
  11   6    -0.25  -0.10  -0.09    -0.14  -0.06  -0.11    -0.15  -0.08  -0.12
  12   1     0.02   0.01   0.04     0.35   0.09  -0.11    -0.32  -0.09  -0.03
  13   1    -0.01   0.06   0.00     0.34   0.09  -0.12    -0.22  -0.23   0.07
  14   1     0.01   0.03  -0.00     0.21   0.33   0.19    -0.15  -0.28  -0.11
  15   1     0.29   0.04  -0.12    -0.16  -0.03   0.06     0.02  -0.01  -0.00
  16   1     0.08   0.04  -0.02    -0.18  -0.07   0.08     0.04   0.01  -0.04
  17   1    -0.42   0.26   0.20     0.18   0.01  -0.06     0.26  -0.05  -0.08
  18   1    -0.08   0.12  -0.06     0.13  -0.14   0.12     0.21  -0.15   0.19
  19   1     0.01   0.00   0.01     0.03  -0.03   0.00     0.09  -0.08   0.08
  20   1     0.07   0.06   0.05    -0.02  -0.02  -0.01    -0.04  -0.04  -0.01
  21   1     0.00  -0.01   0.01    -0.11  -0.07  -0.09    -0.14  -0.09  -0.10
  22   1    -0.13   0.13   0.06    -0.11   0.03   0.04    -0.14   0.01   0.05
  23   1     0.02   0.00   0.01     0.01  -0.00   0.01     0.02   0.00   0.01
  24   1     0.00   0.02   0.06    -0.01   0.02  -0.01    -0.02   0.03  -0.01
  25   1    -0.13   0.12  -0.12    -0.10   0.07  -0.09    -0.12   0.09  -0.11
  26   1     0.21   0.11   0.18     0.20   0.11   0.15     0.22   0.16   0.16
  27   1     0.23   0.16   0.10     0.10   0.07   0.07     0.09   0.06   0.05
                     52                     53                     54
                        a                      a                      a 
 Frequencies --  1393.2385              1403.8867              1472.7906
 Red. masses --     1.5589                 1.7328                 1.8469
 Frc consts  --     0.0000                 0.0000                 0.0000
 IR Inten    --   116.7689               103.7510                 9.0132
 Raman Activ --     0.0000                 0.0000                 0.0000
 Depolar     --     0.0000                 0.0000                 0.0000
 Atom AN      X      Y      Z        X      Y      Z        X      Y      Z
   1   7    -0.09   0.12  -0.12     0.03  -0.12  -0.15     0.00  -0.01  -0.01
   2   6    -0.03   0.02  -0.03     0.09  -0.01  -0.07    -0.00  -0.18  -0.19
   3   6     0.03   0.01  -0.02    -0.04  -0.01   0.03     0.00  -0.01   0.00
   4   6    -0.01  -0.01  -0.01    -0.03   0.03  -0.03    -0.00  -0.01  -0.01
   5   6    -0.00  -0.01   0.00     0.01  -0.01   0.01    -0.01  -0.06   0.06
   6   6     0.00   0.01  -0.00     0.01   0.00  -0.01     0.00  -0.01   0.00
   7   6    -0.00  -0.00  -0.00    -0.01   0.00   0.00     0.00  -0.00   0.00
   8   8     0.00  -0.00   0.00     0.00   0.00   0.00    -0.00   0.00   0.00
   9   8    -0.00   0.00  -0.00    -0.00  -0.00  -0.00    -0.00   0.00  -0.00
  10   6    -0.01   0.00  -0.00     0.01  -0.00   0.01    -0.00  -0.03  -0.02
  11   6     0.01   0.00   0.02    -0.02  -0.00  -0.03    -0.00  -0.00  -0.00
  12   1    -0.35  -0.05   0.23     0.08   0.12   0.65    -0.03  -0.02  -0.03
  13   1     0.46  -0.08  -0.19    -0.17   0.61   0.09    -0.02  -0.04  -0.00
  14   1     0.30  -0.42   0.50    -0.07  -0.19  -0.05    -0.00  -0.01  -0.01
  15   1    -0.03  -0.03  -0.01    -0.11  -0.01   0.03    -0.14   0.62   0.09
  16   1     0.05   0.03   0.00    -0.10  -0.04   0.06     0.19   0.12   0.60
  17   1    -0.05  -0.01   0.02     0.04   0.02  -0.01    -0.01   0.00   0.01
  18   1     0.01   0.03   0.01     0.04  -0.04   0.04     0.01   0.02   0.01
  19   1     0.01  -0.01   0.03     0.04  -0.03   0.04    -0.01   0.01   0.02
  20   1     0.00  -0.00   0.00     0.01  -0.00   0.00     0.10   0.05  -0.17
  21   1    -0.00  -0.00  -0.00    -0.03  -0.01  -0.02    -0.06   0.17  -0.04
  22   1    -0.00  -0.01   0.00    -0.02  -0.00   0.01    -0.00   0.00   0.00
  23   1    -0.00   0.00  -0.00    -0.00  -0.00  -0.00    -0.00  -0.00  -0.00
  24   1     0.01  -0.01  -0.00     0.00   0.00  -0.00    -0.04   0.04   0.08
  25   1     0.00  -0.01   0.00    -0.01   0.00  -0.01     0.03   0.09   0.00
  26   1    -0.02  -0.01  -0.01     0.04   0.01   0.03     0.01   0.00   0.01
  27   1    -0.00  -0.00  -0.01     0.01   0.01   0.02     0.01   0.01   0.01
                     55                     56                     57
                        a                      a                      a 
 Frequencies --  1494.9375              1502.9817              1503.4544
 Red. masses --     1.8681                 1.9203                 1.9212
 Frc consts  --     0.0000                 0.0000                 0.0000
 IR Inten    --     2.8611                 4.5384                 3.0109
 Raman Activ --     0.0000                 0.0000                 0.0000
 Depolar     --     0.0000                 0.0000                 0.0000
 Atom AN      X      Y      Z        X      Y      Z        X      Y      Z
   1   7     0.01   0.01   0.00    -0.00   0.00   0.00    -0.00   0.01  -0.01
   2   6    -0.01   0.03   0.03     0.01   0.05   0.04    -0.00   0.00   0.01
   3   6     0.00   0.03  -0.00    -0.00   0.01   0.01     0.00  -0.00   0.02
   4   6     0.01   0.11   0.10    -0.01  -0.06  -0.05     0.01   0.10   0.08
   5   6    -0.01  -0.06   0.09    -0.00  -0.12   0.14    -0.03  -0.09   0.10
   6   6    -0.00  -0.02  -0.00     0.00  -0.01   0.00     0.00   0.00   0.02
   7   6    -0.00  -0.00   0.00     0.00  -0.01  -0.00     0.02   0.00   0.00
   8   8     0.00   0.00  -0.00    -0.00   0.00  -0.00    -0.01   0.00  -0.00
   9   8     0.00   0.00   0.00     0.00   0.00   0.00     0.00  -0.00  -0.01
  10   6     0.00  -0.08  -0.09    -0.02  -0.09  -0.08     0.00   0.16   0.13
  11   6     0.01   0.10  -0.12    -0.01  -0.11   0.11    -0.01  -0.04   0.04
  12   1    -0.03  -0.01   0.01     0.02   0.01   0.01    -0.02  -0.00   0.01
  13   1     0.01  -0.00  -0.00     0.01   0.02   0.00    -0.00  -0.01  -0.00
  14   1     0.00  -0.02   0.01    -0.00   0.01  -0.00     0.00  -0.01   0.00
  15   1     0.02  -0.11  -0.02     0.04  -0.18  -0.03     0.05  -0.00  -0.02
  16   1    -0.01  -0.01  -0.10    -0.07  -0.04  -0.16    -0.01  -0.00  -0.01
  17   1     0.00  -0.00  -0.00     0.00  -0.02   0.00    -0.01   0.01   0.01
  18   1    -0.20  -0.31  -0.10     0.09   0.13   0.05    -0.17  -0.28  -0.08
  19   1     0.18  -0.14  -0.28    -0.07   0.05   0.13     0.16  -0.13  -0.24
  20   1     0.13   0.07  -0.22     0.20   0.10  -0.37     0.16   0.08  -0.26
  21   1    -0.09   0.22  -0.07    -0.17   0.36  -0.14    -0.11   0.27  -0.08
  22   1    -0.00   0.00  -0.00    -0.00  -0.01   0.00     0.00   0.00   0.01
  23   1     0.00  -0.00   0.00    -0.00  -0.00  -0.00    -0.00   0.00  -0.00
  24   1    -0.12   0.12   0.23    -0.12   0.11   0.24     0.21  -0.20  -0.39
  25   1     0.14   0.23   0.05     0.16   0.23   0.07    -0.24  -0.40  -0.09
  26   1     0.15  -0.36   0.14    -0.14   0.32  -0.13    -0.05   0.15  -0.05
  27   1    -0.21  -0.08   0.33     0.18   0.06  -0.30     0.09   0.04  -0.12
                     58                     59                     60
                        a                      a                      a 
 Frequencies --  1510.2109              1730.8089              2860.3580
 Red. masses --     1.9473                13.2891                 1.7604
 Frc consts  --     0.0000                 0.0000                 0.0000
 IR Inten    --     4.9275               566.5706                50.9790
 Raman Activ --     0.0000                 0.0000                 0.0000
 Depolar     --     0.0000                 0.0000                 0.0000
 Atom AN      X      Y      Z        X      Y      Z        X      Y      Z
   1   7    -0.00  -0.01  -0.00     0.00  -0.00  -0.00     0.00  -0.00  -0.00
   2   6    -0.02   0.01   0.03     0.00  -0.00  -0.00    -0.00   0.00  -0.00
   3   6     0.00   0.00  -0.02    -0.00  -0.00  -0.00     0.10   0.00   0.24
   4   6    -0.01  -0.15  -0.11     0.00   0.00   0.00     0.01  -0.01  -0.00
   5   6    -0.00  -0.08   0.08     0.00   0.01   0.00    -0.00  -0.00  -0.00
   6   6     0.01  -0.00   0.01     0.01  -0.00  -0.06    -0.00  -0.00  -0.01
   7   6    -0.00   0.00   0.04     0.12   0.04   0.78    -0.00   0.00   0.00
   8   8     0.01  -0.00   0.00    -0.02  -0.00  -0.04     0.00  -0.00  -0.00
   9   8    -0.01  -0.00  -0.04    -0.13  -0.02  -0.58     0.00  -0.00  -0.00
  10   6     0.01   0.08   0.06     0.00  -0.01   0.01     0.00   0.00  -0.00
  11   6     0.02   0.11  -0.10     0.00  -0.00   0.00     0.01   0.01  -0.00
  12   1     0.03   0.01  -0.00    -0.00   0.00   0.00    -0.00   0.00   0.00
  13   1    -0.00   0.01   0.00    -0.00   0.00   0.00    -0.00  -0.00   0.00
  14   1     0.00   0.02  -0.00     0.00  -0.00   0.00    -0.00   0.00   0.00
  15   1     0.04  -0.05  -0.02     0.00   0.00  -0.00     0.01  -0.00   0.04
  16   1     0.00  -0.00  -0.07     0.00   0.00   0.00     0.00  -0.01   0.00
  17   1     0.00  -0.01  -0.01    -0.00   0.00   0.00    -0.37  -0.01  -0.89
  18   1     0.22   0.37   0.11    -0.02  -0.02  -0.01    -0.02   0.00   0.02
  19   1    -0.20   0.16   0.32     0.00  -0.00  -0.01     0.01   0.01  -0.00
  20   1     0.13   0.06  -0.24    -0.01  -0.00   0.01    -0.00   0.00   0.00
  21   1    -0.12   0.23  -0.09    -0.00  -0.03  -0.00    -0.00   0.00   0.00
  22   1    -0.00   0.00   0.01     0.06  -0.01  -0.03     0.01   0.00   0.03
  23   1     0.00  -0.00   0.00     0.06  -0.00   0.04    -0.00  -0.00  -0.00
  24   1     0.10  -0.09  -0.19    -0.01   0.00   0.01    -0.00  -0.00   0.00
  25   1    -0.13  -0.19  -0.05     0.00   0.03  -0.01    -0.00   0.00   0.00
  26   1     0.13  -0.33   0.12    -0.01   0.02  -0.01    -0.02   0.00   0.02
  27   1    -0.19  -0.07   0.29     0.00   0.00  -0.01     0.01  -0.02   0.00
                     61                     62                     63
                        a                      a                      a 
 Frequencies --  2877.0418              2913.7381              2915.9643
 Red. masses --     1.7529                 1.9546                 1.9380
 Frc consts  --     0.0000                 0.0000                 0.0000
 IR Inten    --    63.6019                58.3540                46.0171
 Raman Activ --     0.0000                 0.0000                 0.0000
 Depolar     --     0.0000                 0.0000                 0.0000
 Atom AN      X      Y      Z        X      Y      Z        X      Y      Z
   1   7     0.00  -0.00  -0.00    -0.00   0.00   0.00    -0.00   0.00  -0.00
   2   6     0.00   0.00   0.00     0.00   0.00   0.00    -0.00  -0.00  -0.00
   3   6     0.00   0.00   0.01     0.00  -0.00  -0.00     0.00  -0.00  -0.00
   4   6     0.00   0.00  -0.00     0.02   0.01  -0.02     0.02   0.01  -0.02
   5   6     0.01   0.01  -0.00    -0.16   0.14   0.08    -0.12   0.11   0.06
   6   6     0.11   0.00   0.23    -0.00   0.01  -0.00    -0.01   0.00   0.00
   7   6     0.01   0.00   0.01     0.00   0.00   0.00     0.00  -0.00  -0.00
   8   8    -0.00  -0.00  -0.00    -0.00  -0.00   0.00     0.00   0.00   0.00
   9   8    -0.00   0.00  -0.00     0.00   0.00  -0.00     0.00  -0.00  -0.00
  10   6     0.00  -0.01  -0.00     0.14   0.08  -0.08    -0.17  -0.10   0.09
  11   6     0.00  -0.00  -0.00    -0.02   0.01   0.02     0.04  -0.04  -0.03
  12   1    -0.00   0.00   0.00     0.00  -0.00   0.00     0.00  -0.00   0.00
  13   1    -0.00  -0.00   0.00    -0.00   0.00  -0.00     0.00   0.00  -0.00
  14   1     0.00  -0.00  -0.00     0.00   0.00  -0.00    -0.00   0.00   0.00
  15   1    -0.00   0.00  -0.00     0.00   0.00  -0.00     0.01  -0.00   0.01
  16   1     0.00  -0.00   0.00     0.00   0.00  -0.00    -0.00   0.00  -0.00
  17   1    -0.01  -0.00  -0.03    -0.00   0.00  -0.00    -0.00  -0.00   0.00
  18   1    -0.00   0.00   0.00    -0.07   0.01   0.09    -0.06   0.01   0.08
  19   1    -0.00  -0.00   0.00    -0.02  -0.03  -0.00    -0.03  -0.04  -0.00
  20   1     0.02  -0.02   0.00     0.32  -0.53   0.04     0.24  -0.41   0.03
  21   1    -0.02   0.00   0.03     0.24   0.01  -0.34     0.18   0.01  -0.26
  22   1    -0.42  -0.01  -0.86     0.00   0.00   0.00     0.00  -0.00   0.00
  23   1    -0.00   0.00   0.00     0.00   0.00  -0.00     0.00  -0.00  -0.00
  24   1     0.02   0.02  -0.00    -0.31  -0.36   0.01     0.40   0.45  -0.01
  25   1    -0.02   0.00   0.03    -0.18   0.07   0.26     0.23  -0.09  -0.33
  26   1    -0.00   0.00   0.00     0.05  -0.01  -0.07    -0.10   0.01   0.14
  27   1    -0.00   0.00   0.00     0.01  -0.03   0.01    -0.06   0.11  -0.02
                     64                     65                     66
                        a                      a                      a 
 Frequencies --  2920.9251              2925.1845              2948.4255
 Red. masses --     1.9297                 1.9218                 1.5331
 Frc consts  --     0.0000                 0.0000                 0.0000
 IR Inten    --    47.6969                62.8316                74.7800
 Raman Activ --     0.0000                 0.0000                 0.0000
 Depolar     --     0.0000                 0.0000                 0.0000
 Atom AN      X      Y      Z        X      Y      Z        X      Y      Z
   1   7     0.00  -0.00  -0.00     0.00  -0.00  -0.00    -0.00   0.00   0.00
   2   6     0.00  -0.01  -0.00     0.00   0.00   0.00    -0.00   0.00  -0.00
   3   6    -0.00   0.01   0.00     0.01   0.00  -0.00    -0.00   0.00   0.00
   4   6     0.08   0.04  -0.04     0.21   0.13  -0.10    -0.02  -0.01   0.02
   5   6    -0.00   0.00   0.01     0.03  -0.04   0.01    -0.04  -0.08   0.12
   6   6    -0.00  -0.00  -0.00     0.00  -0.00   0.00    -0.00  -0.01  -0.00
   7   6     0.00  -0.00  -0.00    -0.00   0.00   0.00    -0.00  -0.00   0.00
   8   8    -0.00  -0.00  -0.00     0.00  -0.00  -0.00     0.00   0.00   0.00
   9   8    -0.00   0.00  -0.00     0.00   0.00  -0.00    -0.00  -0.00  -0.00
  10   6    -0.04  -0.04   0.00     0.02   0.02  -0.00     0.02  -0.10  -0.11
  11   6    -0.18   0.18   0.08     0.05  -0.06  -0.02     0.02  -0.02  -0.01
  12   1    -0.00  -0.00   0.00    -0.00  -0.00   0.00     0.00  -0.00   0.00
  13   1    -0.00   0.00   0.00     0.00  -0.00   0.00    -0.00   0.00  -0.00
  14   1    -0.00  -0.00  -0.00    -0.00  -0.00  -0.00     0.00   0.00  -0.00
  15   1     0.00  -0.00   0.00    -0.00   0.00  -0.00     0.00   0.00  -0.00
  16   1    -0.01   0.02  -0.00     0.00  -0.00   0.00     0.01  -0.02   0.00
  17   1     0.00   0.00   0.00     0.00   0.00   0.00    -0.00  -0.00  -0.00
  18   1    -0.11   0.03   0.15    -0.29   0.08   0.39     0.04  -0.01  -0.05
  19   1    -0.15  -0.19  -0.00    -0.46  -0.57  -0.01     0.04   0.05   0.00
  20   1    -0.00   0.00   0.00    -0.11   0.18  -0.01    -0.21   0.31   0.00
  21   1     0.02  -0.00  -0.03     0.03  -0.01  -0.03     0.34  -0.04  -0.44
  22   1     0.00   0.00   0.00    -0.00   0.00  -0.00     0.00  -0.00   0.00
  23   1     0.00  -0.00  -0.00    -0.00  -0.00   0.00     0.00   0.00  -0.00
  24   1     0.15   0.17  -0.01    -0.07  -0.07   0.00     0.27   0.28  -0.04
  25   1    -0.01  -0.01   0.00     0.00   0.00  -0.00    -0.35   0.08   0.45
  26   1     0.26  -0.01  -0.35    -0.07  -0.00   0.10    -0.02   0.00   0.03
  27   1     0.37  -0.66   0.07    -0.13   0.23  -0.02    -0.04   0.07  -0.01
                     67                     68                     69
                        a                      a                      a 
 Frequencies --  2949.7227              2953.4110              2956.6981
 Red. masses --     1.5330                 1.5483                 1.5417
 Frc consts  --     0.0000                 0.0000                 0.0000
 IR Inten    --    50.6097                69.1795                65.0566
 Raman Activ --     0.0000                 0.0000                 0.0000
 Depolar     --     0.0000                 0.0000                 0.0000
 Atom AN      X      Y      Z        X      Y      Z        X      Y      Z
   1   7    -0.00  -0.00   0.00    -0.00   0.00   0.00     0.00  -0.00  -0.00
   2   6    -0.01   0.01  -0.01    -0.00   0.00  -0.00     0.00  -0.00  -0.00
   3   6    -0.00   0.00  -0.00    -0.00  -0.00   0.01     0.00   0.00   0.01
   4   6    -0.02  -0.02   0.01     0.00  -0.05  -0.05    -0.04   0.13   0.15
   5   6    -0.04  -0.08   0.12    -0.00  -0.02   0.01    -0.02   0.01   0.03
   6   6     0.00   0.00   0.02     0.00   0.00   0.00    -0.00  -0.00   0.00
   7   6     0.00  -0.00  -0.00     0.00  -0.00  -0.00     0.00  -0.00  -0.00
   8   8    -0.00   0.00  -0.00    -0.00  -0.00   0.00     0.00   0.00   0.00
   9   8     0.00  -0.00   0.00    -0.00   0.00   0.00    -0.00  -0.00   0.00
  10   6    -0.02   0.10   0.11    -0.03   0.00   0.04    -0.01   0.01   0.02
  11   6    -0.01   0.04  -0.02    -0.07  -0.09   0.17    -0.03  -0.03   0.06
  12   1    -0.00   0.00  -0.00     0.00  -0.00  -0.00    -0.00  -0.00   0.00
  13   1    -0.00  -0.00   0.00    -0.00   0.00  -0.00    -0.00   0.00  -0.00
  14   1     0.00  -0.00  -0.00    -0.00   0.00   0.00    -0.00   0.00   0.00
  15   1     0.01  -0.00   0.04     0.01  -0.00   0.01     0.01  -0.00   0.02
  16   1     0.01  -0.02   0.00     0.00  -0.00   0.00    -0.01   0.02  -0.00
  17   1     0.00   0.00   0.01    -0.01  -0.00  -0.02    -0.02   0.00  -0.04
  18   1     0.01  -0.01  -0.01    -0.15   0.02   0.18     0.48  -0.08  -0.58
  19   1     0.08   0.09  -0.00     0.15   0.16  -0.01    -0.35  -0.38   0.03
  20   1    -0.20   0.31   0.00    -0.04   0.06  -0.00     0.02  -0.04   0.01
  21   1     0.35  -0.03  -0.45     0.04  -0.00  -0.06     0.06  -0.00  -0.08
  22   1    -0.03  -0.00  -0.06    -0.01  -0.00  -0.01    -0.00   0.00  -0.01
  23   1    -0.00   0.00   0.00    -0.00  -0.00  -0.00    -0.00  -0.00  -0.00
  24   1    -0.25  -0.26   0.03     0.01   0.02   0.00    -0.01  -0.01   0.00
  25   1     0.33  -0.08  -0.43     0.09  -0.02  -0.11     0.06  -0.01  -0.07
  26   1    -0.07   0.01   0.08     0.49  -0.07  -0.60     0.17  -0.02  -0.21
  27   1     0.09  -0.15   0.01    -0.24   0.39  -0.01    -0.07   0.11  -0.00
                     70                     71                     72
                        a                      a                      a 
 Frequencies --  2971.6470              3005.6221              3258.3183
 Red. masses --     1.9131                 1.5810                 2.0466
 Frc consts  --     0.0000                 0.0000                 0.0000
 IR Inten    --     7.4835                12.1408               206.7000
 Raman Activ --     0.0000                 0.0000                 0.0000
 Depolar     --     0.0000                 0.0000                 0.0000
 Atom AN      X      Y      Z        X      Y      Z        X      Y      Z
   1   7     0.00   0.00   0.00     0.00   0.00  -0.00    -0.17   0.15   0.16
   2   6    -0.12   0.23  -0.12     0.04   0.07   0.21    -0.00   0.00   0.00
   3   6    -0.01   0.01  -0.01     0.00   0.00   0.01     0.00   0.00   0.00
   4   6     0.00   0.00   0.00    -0.00   0.00   0.00    -0.00  -0.00   0.00
   5   6     0.00   0.00  -0.01    -0.00  -0.00   0.00     0.00   0.00  -0.00
   6   6    -0.00  -0.00  -0.00    -0.00   0.00  -0.00    -0.00   0.00  -0.00
   7   6     0.00  -0.00   0.00     0.00  -0.00  -0.00    -0.00  -0.00   0.00
   8   8    -0.00  -0.00   0.00    -0.00  -0.00  -0.00    -0.00  -0.00  -0.00
   9   8    -0.00   0.00  -0.00     0.00  -0.00   0.00     0.00   0.00  -0.00
  10   6    -0.00  -0.00  -0.00    -0.00   0.00   0.01    -0.00  -0.00   0.00
  11   6    -0.00   0.00   0.00    -0.00   0.00   0.00    -0.00   0.00   0.00
  12   1    -0.01   0.02  -0.00    -0.00   0.01  -0.00     0.13  -0.44   0.09
  13   1    -0.00  -0.00  -0.01     0.01  -0.00   0.02    -0.09   0.03  -0.20
  14   1     0.00  -0.00   0.00    -0.00   0.00   0.00     0.61  -0.16  -0.51
  15   1     0.12  -0.01   0.35    -0.31   0.10  -0.83    -0.00   0.00  -0.01
  16   1     0.31  -0.82   0.08     0.14  -0.35   0.07     0.01  -0.01   0.00
  17   1     0.01   0.00   0.02    -0.01  -0.00  -0.03    -0.00   0.00  -0.00
  18   1     0.00  -0.00  -0.01     0.01  -0.00  -0.01     0.00  -0.00  -0.00
  19   1    -0.01  -0.02   0.00    -0.00  -0.00   0.00     0.00  -0.00   0.00
  20   1     0.01  -0.02   0.00    -0.00   0.00   0.00    -0.00  -0.00  -0.00
  21   1    -0.02   0.00   0.02     0.01  -0.00  -0.02    -0.00  -0.00   0.00
  22   1     0.00   0.00   0.00     0.00  -0.00   0.00     0.00  -0.00  -0.00
  23   1     0.00   0.00  -0.00     0.00   0.00   0.00     0.00   0.00  -0.00
  24   1     0.01   0.01  -0.00    -0.00  -0.00   0.00     0.00   0.00  -0.00
  25   1    -0.01   0.00   0.01     0.02  -0.00  -0.02     0.00  -0.00  -0.00
  26   1     0.01  -0.00  -0.01     0.01  -0.00  -0.01     0.00  -0.00  -0.00
  27   1     0.01  -0.01   0.00     0.00  -0.01   0.00    -0.00   0.00  -0.00
                     73                     74                     75
                        a                      a                      a 
 Frequencies --  3265.7249              3288.3877              3562.3191
 Red. masses --     2.0536                 1.2872                 1.8574
 Frc consts  --     0.0000                 0.0000                 0.0000
 IR Inten    --   166.8862                55.1599               172.5570
 Raman Activ --     0.0000                 0.0000                 0.0000
 Depolar     --     0.0000                 0.0000                 0.0000
 Atom AN      X      Y      Z        X      Y      Z        X      Y      Z
   1   7     0.08  -0.16   0.22     0.10   0.10   0.04     0.00  -0.00   0.00
   2   6     0.00  -0.00   0.01     0.00   0.01   0.00    -0.00   0.00  -0.00
   3   6     0.00  -0.00  -0.00    -0.00  -0.00  -0.00     0.00  -0.00   0.00
   4   6     0.00   0.00   0.00    -0.00  -0.00  -0.00    -0.00   0.00  -0.00
   5   6    -0.00  -0.00   0.00     0.00  -0.00   0.00     0.00   0.00  -0.00
   6   6    -0.00  -0.00   0.00     0.00   0.00   0.00    -0.00   0.00  -0.00
   7   6     0.00   0.00   0.00     0.00  -0.00   0.00     0.01  -0.00   0.00
   8   8    -0.00   0.00  -0.00    -0.00  -0.00   0.00     0.15  -0.02  -0.18
   9   8     0.00  -0.00   0.00    -0.00   0.00   0.00    -0.00  -0.00  -0.00
  10   6     0.00  -0.00   0.00     0.00   0.00   0.00     0.00  -0.00  -0.00
  11   6     0.00  -0.00   0.00    -0.00   0.00  -0.00    -0.00  -0.00  -0.00
  12   1    -0.19   0.58  -0.08     0.19  -0.54   0.10     0.00   0.00  -0.00
  13   1    -0.24   0.05  -0.67    -0.20   0.06  -0.58    -0.00   0.00  -0.00
  14   1     0.14  -0.05  -0.09    -0.37   0.11   0.32     0.00  -0.00  -0.00
  15   1    -0.01   0.00  -0.02    -0.01   0.00  -0.01     0.00  -0.00   0.00
  16   1    -0.00   0.01  -0.00     0.00  -0.01   0.00     0.00  -0.00  -0.00
  17   1     0.00  -0.00  -0.00     0.00   0.00   0.00     0.00   0.00   0.00
  18   1    -0.00   0.00  -0.00    -0.00   0.00   0.00     0.00   0.00  -0.00
  19   1    -0.00  -0.00  -0.00     0.00   0.00   0.00    -0.00  -0.00   0.00
  20   1     0.00  -0.00  -0.00    -0.00   0.00  -0.00     0.00  -0.00  -0.00
  21   1     0.00   0.00  -0.00     0.00  -0.00   0.00    -0.00   0.00   0.00
  22   1    -0.00   0.00  -0.00    -0.00  -0.00  -0.00     0.00   0.00   0.01
  23   1     0.00  -0.00  -0.00     0.00   0.00  -0.00    -0.63   0.10   0.73
  24   1     0.00   0.00  -0.00    -0.00  -0.00   0.00     0.00   0.00  -0.00
  25   1    -0.00  -0.00  -0.00     0.00   0.00  -0.00    -0.00   0.00   0.00
  26   1    -0.00   0.00  -0.00    -0.00  -0.00   0.00     0.00  -0.00  -0.00
  27   1    -0.00   0.00  -0.00     0.00  -0.00  -0.00    -0.00   0.00   0.00
