 Entering Gaussian System
 *********************************************
 Gaussian 98:
 frequency output generated by the xtb code
 *********************************************
                         Standard orientation:
 --------------------------------------------------------------------
  Center     Atomic     Atomic              Coordinates (Angstroms)
  Number     Number      Type              X           Y           Z
 --------------------------------------------------------------------
    1          7             0       -1.501466   -1.627011    0.762168
    2          6             0       -2.720423   -0.835875    0.409221
    3          6             0       -2.409397    0.578863   -0.082053
    4          6             0       -1.462320    1.384209    0.844113
    5          6             0       -0.097790    1.661641    0.234387
    6         53             0        0.945359   -0.097475   -0.259223
    7          1             0       -1.692971   -2.642160    0.773021
    8          1             0       -1.144951   -1.381831    1.699727
    9          1             0       -0.719497   -1.451186    0.074185
   10          1             0       -3.381200   -0.794720    1.284433
   11          1             0       -3.289679   -1.376374   -0.358936
   12          1             0       -3.349085    1.126977   -0.236180
   13          1             0       -1.960541    0.519878   -1.080944
   14          1             0       -1.338199    0.850970    1.795863
   15          1             0       -1.932774    2.339382    1.124573
   16          1             0        0.549865    2.223629    0.911144
   17          1             0       -0.182521    2.234560   -0.690783
 --------------------------------------------------------------------
     1 basis functions        1 primitive gaussians
     1 alpha electrons        1 beta electrons

 Harmonic frequencies (cm**-1), IR intensities (km*mol⁻¹),
 Raman scattering activities (A**4/amu), Raman depolarization ratios,
 reduced masses (AMU), force constants (mDyne/A) and normal coordinates:
                      1                      2                      3
                        a                      a                      a 
 Frequencies --  -137.3690               127.1909               175.3631
 Red. masses --    14.4902                26.6155                16.1563
 Frc consts  --     0.0000                 0.0000                 0.0000
 IR Inten    --    17.9052                 6.8753                 4.7211
 Raman Activ --     0.0000                 0.0000                 0.0000
 Depolar     --     0.0000                 0.0000                 0.0000
 Atom AN      X      Y      Z        X      Y      Z        X      Y      Z
   1   7     0.01  -0.11  -0.49    -0.22   0.21   0.12    -0.09  -0.34   0.04
   2   6    -0.08   0.05   0.22    -0.29  -0.01  -0.03     0.10  -0.03  -0.05
   3   6    -0.17   0.05   0.19    -0.32   0.05   0.13     0.28  -0.03   0.04
   4   6     0.06   0.03  -0.04    -0.09  -0.16   0.08     0.29   0.01   0.00
   5   6    -0.10   0.03  -0.40    -0.19  -0.11  -0.13     0.12   0.19  -0.28
   6  53     0.10  -0.01   0.21     0.40  -0.01  -0.07    -0.25   0.09   0.10
   7   1    -0.04  -0.02  -0.06     0.07   0.03  -0.24    -0.00  -0.10  -0.32
   8   1     0.18  -0.02  -0.20    -0.26  -0.13   0.15    -0.22  -0.35   0.15
   9   1    -0.12  -0.09  -0.26     0.07   0.31   0.21     0.12   0.13   0.21
  10   1     0.11   0.01   0.16    -0.13  -0.05  -0.04    -0.00  -0.00  -0.04
  11   1    -0.15   0.05   0.13    -0.03  -0.00  -0.05     0.03   0.04  -0.05
  12   1    -0.06   0.02   0.13    -0.09   0.04   0.10     0.09   0.01   0.00
  13   1    -0.13   0.02   0.02    -0.13   0.05   0.02     0.08  -0.02   0.01
  14   1     0.09   0.00  -0.02     0.01  -0.08  -0.00     0.17  -0.03  -0.03
  15   1     0.04   0.00   0.03     0.00  -0.05   0.08     0.06  -0.03   0.06
  16   1    -0.01   0.09  -0.20    -0.06   0.02  -0.08     0.06   0.10  -0.14
  17   1    -0.10  -0.08  -0.16    -0.11  -0.07  -0.05    -0.02  -0.00  -0.11
                      4                      5                      6
                        a                      a                      a 
 Frequencies --   213.8326               271.6588               353.1268
 Red. masses --    10.9377                10.1840                17.7565
 Frc consts  --     0.0000                 0.0000                 0.0000
 IR Inten    --     0.3674                15.8246                29.8199
 Raman Activ --     0.0000                 0.0000                 0.0000
 Depolar     --     0.0000                 0.0000                 0.0000
 Atom AN      X      Y      Z        X      Y      Z        X      Y      Z
   1   7    -0.23  -0.13  -0.09    -0.29   0.06   0.14     0.38   0.48  -0.17
   2   6    -0.23   0.11   0.41    -0.23   0.02  -0.06     0.11   0.10   0.08
   3   6     0.09  -0.20  -0.20     0.20  -0.12  -0.08     0.11  -0.04  -0.18
   4   6    -0.09  -0.04  -0.16     0.22  -0.41   0.15     0.05  -0.28   0.05
   5   6     0.07  -0.02   0.21    -0.01  -0.00  -0.13    -0.06  -0.03  -0.02
   6  53     0.14   0.11  -0.07     0.04   0.16  -0.01    -0.24  -0.10   0.09
   7   1    -0.04  -0.04  -0.19    -0.14   0.03   0.30     0.25   0.10  -0.19
   8   1    -0.05  -0.19   0.01     0.04   0.23  -0.06     0.06   0.04  -0.01
   9   1    -0.06   0.09   0.00    -0.16  -0.19  -0.08     0.10   0.32  -0.02
  10   1     0.08   0.18   0.22    -0.09   0.05  -0.04     0.09   0.07   0.07
  11   1    -0.24   0.02   0.26    -0.05  -0.00  -0.02    -0.01  -0.03   0.10
  12   1     0.07  -0.02  -0.21     0.12   0.05  -0.12     0.06   0.02  -0.11
  13   1     0.11  -0.22  -0.01     0.13  -0.10   0.01     0.08  -0.06  -0.03
  14   1    -0.08   0.01  -0.03     0.17  -0.23  -0.03     0.06  -0.17  -0.04
  15   1    -0.05  -0.01  -0.09     0.03  -0.18   0.20    -0.00  -0.12   0.14
  16   1    -0.01  -0.07   0.14     0.01   0.06  -0.10    -0.01   0.01  -0.03
  17   1     0.10   0.06   0.09    -0.10  -0.04  -0.05    -0.06  -0.02  -0.01
                      7                      8                      9
                        a                      a                      a 
 Frequencies --   419.6339               461.6619               608.8796
 Red. masses --    11.4997                 7.7288                18.5791
 Frc consts  --     0.0000                 0.0000                 0.0000
 IR Inten    --     6.1558                12.0144                11.8854
 Raman Activ --     0.0000                 0.0000                 0.0000
 Depolar     --     0.0000                 0.0000                 0.0000
 Atom AN      X      Y      Z        X      Y      Z        X      Y      Z
   1   7     0.00   0.11  -0.01    -0.06   0.23  -0.18    -0.00   0.03  -0.02
   2   6    -0.17  -0.22   0.01    -0.28  -0.27  -0.03     0.02   0.04  -0.02
   3   6    -0.26  -0.12   0.05     0.23  -0.28   0.28     0.09  -0.00   0.05
   4   6     0.30  -0.16  -0.35     0.02   0.27   0.13     0.13  -0.08  -0.03
   5   6     0.46   0.10   0.02     0.04   0.11  -0.01     0.14  -0.78  -0.08
   6  53    -0.12   0.10   0.07    -0.00  -0.05  -0.02    -0.12   0.25   0.05
   7   1     0.09   0.01   0.02     0.17   0.03  -0.03    -0.01   0.01  -0.02
   8   1     0.00   0.08  -0.02    -0.02   0.14  -0.07    -0.02  -0.01   0.01
   9   1    -0.03   0.08  -0.03    -0.07   0.19  -0.08     0.02   0.00   0.01
  10   1    -0.06  -0.11  -0.01    -0.16  -0.18  -0.06     0.00   0.02  -0.01
  11   1    -0.01  -0.08  -0.01     0.01  -0.02  -0.11    -0.00   0.03  -0.01
  12   1    -0.08   0.00   0.21     0.12  -0.04  -0.12     0.03   0.02   0.04
  13   1    -0.25   0.00  -0.06     0.20  -0.19   0.14     0.01   0.01   0.00
  14   1     0.12  -0.06  -0.11    -0.01   0.25   0.14    -0.13   0.14   0.10
  15   1     0.09  -0.06  -0.05    -0.04   0.11  -0.16     0.16   0.10  -0.24
  16   1     0.07  -0.08   0.16     0.04   0.06  -0.06     0.05  -0.14  -0.10
  17   1     0.26   0.15   0.07    -0.02  -0.01  -0.03    -0.02  -0.25  -0.04
                     10                     11                     12
                        a                      a                      a 
 Frequencies --   782.5829               832.4125               857.0403
 Red. masses --     3.6438                 7.7501                 3.3518
 Frc consts  --     0.0000                 0.0000                 0.0000
 IR Inten    --    10.7426                 3.1442                30.7369
 Raman Activ --     0.0000                 0.0000                 0.0000
 Depolar     --     0.0000                 0.0000                 0.0000
 Atom AN      X      Y      Z        X      Y      Z        X      Y      Z
   1   7     0.10  -0.02   0.03    -0.21   0.19  -0.08    -0.09   0.06   0.11
   2   6    -0.01   0.08   0.16     0.25   0.16  -0.01     0.10   0.13   0.19
   3   6    -0.11   0.15   0.16     0.32  -0.23   0.26     0.02  -0.04  -0.05
   4   6    -0.09   0.08  -0.11    -0.02  -0.19  -0.18     0.03  -0.17  -0.11
   5   6    -0.08  -0.17  -0.23    -0.31   0.03  -0.12     0.07   0.11   0.22
   6  53    -0.00   0.03   0.02     0.02  -0.02   0.01     0.00  -0.01  -0.02
   7   1    -0.08   0.01  -0.07    -0.15   0.07  -0.03    -0.12   0.03  -0.18
   8   1     0.15  -0.15  -0.00    -0.07   0.02  -0.01     0.32  -0.25  -0.03
   9   1    -0.05  -0.04  -0.08    -0.01  -0.01   0.01    -0.26   0.09  -0.21
  10   1    -0.20  -0.23  -0.09     0.04   0.07  -0.02    -0.25  -0.11  -0.16
  11   1     0.25   0.08  -0.18     0.05   0.13  -0.04     0.33   0.02  -0.17
  12   1     0.05   0.07  -0.30     0.02  -0.12   0.31    -0.01  -0.00   0.08
  13   1     0.21  -0.20   0.16    -0.09   0.09  -0.01    -0.10  -0.04  -0.06
  14   1     0.13  -0.13  -0.14     0.06   0.10   0.02    -0.16   0.00   0.01
  15   1     0.03  -0.02   0.20    -0.08  -0.05  -0.18    -0.01  -0.02  -0.15
  16   1    -0.06  -0.29   0.18    -0.16  -0.19   0.21    -0.01   0.27  -0.12
  17   1     0.22   0.18   0.06     0.08   0.22   0.09    -0.18  -0.19  -0.06
                     13                     14                     15
                        a                      a                      a 
 Frequencies --   898.5149               949.8655               983.8372
 Red. masses --     4.3395                 8.2402                 5.2572
 Frc consts  --     0.0000                 0.0000                 0.0000
 IR Inten    --    18.3472                17.9801                14.9502
 Raman Activ --     0.0000                 0.0000                 0.0000
 Depolar     --     0.0000                 0.0000                 0.0000
 Atom AN      X      Y      Z        X      Y      Z        X      Y      Z
   1   7    -0.10  -0.18   0.20    -0.31   0.26  -0.05    -0.14  -0.11  -0.12
   2   6    -0.08  -0.13  -0.01     0.35  -0.15   0.02     0.13   0.00   0.16
   3   6     0.24   0.11  -0.17    -0.08  -0.25  -0.08     0.19   0.10   0.14
   4   6    -0.01   0.17   0.07    -0.18   0.28   0.19    -0.11   0.12  -0.35
   5   6    -0.14  -0.12  -0.11     0.26  -0.12  -0.07    -0.03  -0.11   0.23
   6  53     0.02   0.01   0.01     0.00   0.04  -0.00    -0.01   0.01  -0.02
   7   1     0.38  -0.12  -0.04    -0.22   0.09  -0.08     0.25  -0.08   0.14
   8   1     0.21   0.01  -0.06    -0.01  -0.05  -0.00    -0.22   0.27  -0.04
   9   1    -0.35   0.31  -0.22    -0.08   0.00  -0.04     0.03   0.11   0.06
  10   1    -0.08   0.18  -0.06     0.08   0.06  -0.01    -0.00  -0.15   0.02
  11   1    -0.02  -0.11   0.05     0.07  -0.10   0.06     0.01   0.23  -0.10
  12   1    -0.00  -0.02   0.17    -0.14  -0.27  -0.01     0.01  -0.03   0.05
  13   1    -0.07   0.25  -0.12    -0.02   0.03  -0.02    -0.04  -0.07   0.00
  14   1     0.04  -0.04  -0.03     0.08  -0.13  -0.08     0.03  -0.22  -0.24
  15   1     0.01   0.02   0.12    -0.09  -0.02   0.30    -0.02  -0.06   0.23
  16   1    -0.01  -0.18   0.06     0.17  -0.04  -0.10    -0.11   0.20  -0.03
  17   1     0.05   0.11   0.05     0.12  -0.07  -0.05     0.02  -0.27  -0.09
                     16                     17                     18
                        a                      a                      a 
 Frequencies --  1033.3839              1048.7981              1079.1312
 Red. masses --     7.0675                 8.8932                 4.4409
 Frc consts  --     0.0000                 0.0000                 0.0000
 IR Inten    --    46.6351                 7.3007                 5.8996
 Raman Activ --     0.0000                 0.0000                 0.0000
 Depolar     --     0.0000                 0.0000                 0.0000
 Atom AN      X      Y      Z        X      Y      Z        X      Y      Z
   1   7     0.27   0.14   0.02    -0.23   0.13  -0.10     0.05  -0.09  -0.14
   2   6    -0.38  -0.03  -0.05     0.23  -0.39   0.19    -0.07   0.18   0.27
   3   6     0.25  -0.16  -0.07    -0.06   0.20  -0.22     0.07  -0.13  -0.28
   4   6     0.09   0.33  -0.09     0.39   0.11  -0.03    -0.03   0.06   0.20
   5   6    -0.20  -0.12   0.17    -0.33  -0.00   0.11     0.04   0.02  -0.12
   6  53    -0.00   0.00  -0.01     0.01  -0.01   0.00     0.01   0.00   0.02
   7   1    -0.25   0.09  -0.07    -0.12   0.04  -0.00     0.07  -0.03   0.11
   8   1     0.10  -0.21   0.06    -0.10   0.03  -0.01    -0.14   0.14  -0.02
   9   1     0.14  -0.22   0.03     0.01  -0.01   0.03     0.14  -0.02   0.10
  10   1    -0.08  -0.03   0.00     0.05  -0.18   0.05    -0.17  -0.21  -0.03
  11   1    -0.05  -0.09   0.01     0.08  -0.15   0.07     0.14   0.20  -0.16
  12   1     0.09   0.07   0.25     0.04   0.14  -0.07    -0.02  -0.04   0.15
  13   1    -0.19  -0.01  -0.13    -0.02  -0.08  -0.05    -0.24  -0.12  -0.18
  14   1     0.15  -0.09  -0.14     0.00   0.02   0.00    -0.19  -0.05   0.04
  15   1    -0.03  -0.00   0.20     0.28   0.13  -0.02    -0.05   0.00   0.02
  16   1    -0.05   0.01   0.00    -0.07  -0.06   0.06     0.33  -0.25  -0.12
  17   1     0.04  -0.14  -0.03    -0.20   0.09   0.10    -0.19   0.22   0.12
                     19                     20                     21
                        a                      a                      a 
 Frequencies --  1120.2034              1158.5275              1199.2438
 Red. masses --     8.0395                 3.8645                 2.5088
 Frc consts  --     0.0000                 0.0000                 0.0000
 IR Inten    --     7.1635                 5.9106                 2.1696
 Raman Activ --     0.0000                 0.0000                 0.0000
 Depolar     --     0.0000                 0.0000                 0.0000
 Atom AN      X      Y      Z        X      Y      Z        X      Y      Z
   1   7     0.03  -0.13   0.03     0.03   0.05   0.13     0.07   0.02  -0.09
   2   6     0.05   0.36  -0.13    -0.01  -0.00  -0.25    -0.16  -0.02   0.15
   3   6    -0.31  -0.36  -0.06     0.02  -0.05   0.28     0.12  -0.03  -0.05
   4   6     0.37   0.18   0.07     0.01   0.07  -0.28    -0.04  -0.03   0.08
   5   6    -0.20  -0.05   0.14     0.00   0.02   0.07     0.13   0.03  -0.15
   6  53    -0.00  -0.00  -0.00     0.01  -0.01   0.02    -0.01  -0.01  -0.00
   7   1     0.15  -0.06   0.03    -0.00   0.01  -0.06    -0.06   0.02   0.04
   8   1     0.01   0.06  -0.02     0.09  -0.08   0.02    -0.03  -0.00   0.00
   9   1    -0.05   0.08  -0.02    -0.08  -0.00  -0.06     0.11  -0.06   0.06
  10   1    -0.03   0.15  -0.07     0.13   0.08   0.04    -0.15   0.06  -0.05
  11   1     0.03   0.13  -0.07    -0.18   0.07   0.02     0.05  -0.01  -0.02
  12   1    -0.17  -0.26  -0.11    -0.04  -0.13  -0.04    -0.18  -0.37  -0.01
  13   1    -0.03  -0.17   0.01     0.06  -0.09   0.10     0.12   0.27   0.01
  14   1     0.27   0.09   0.02    -0.27  -0.24  -0.18    -0.29  -0.14  -0.02
  15   1     0.16   0.07   0.04     0.22   0.08   0.09     0.44   0.20   0.08
  16   1    -0.11   0.03   0.06     0.28  -0.12  -0.14    -0.36   0.21   0.18
  17   1    -0.03  -0.05   0.01    -0.45   0.20   0.18     0.01   0.08   0.00
                     22                     23                     24
                        a                      a                      a 
 Frequencies --  1224.9506              1246.0379              1273.8552
 Red. masses --     3.1226                 2.4704                 3.0480
 Frc consts  --     0.0000                 0.0000                 0.0000
 IR Inten    --     9.5804                32.2259                43.0319
 Raman Activ --     0.0000                 0.0000                 0.0000
 Depolar     --     0.0000                 0.0000                 0.0000
 Atom AN      X      Y      Z        X      Y      Z        X      Y      Z
   1   7     0.03  -0.04  -0.18    -0.04  -0.10  -0.14    -0.01   0.01   0.01
   2   6    -0.10  -0.02   0.20     0.10   0.11  -0.04     0.01  -0.04  -0.00
   3   6    -0.01   0.10   0.07    -0.06  -0.14   0.16    -0.00  -0.05   0.02
   4   6     0.06  -0.05  -0.21    -0.12   0.06   0.01    -0.01  -0.14   0.02
   5   6    -0.09  -0.01   0.16     0.07   0.01  -0.06    -0.30   0.24   0.09
   6  53     0.00   0.01   0.01    -0.00  -0.00   0.00     0.00   0.02  -0.00
   7   1    -0.01  -0.00   0.08     0.01  -0.02   0.09    -0.00   0.00   0.01
   8   1    -0.07   0.04  -0.02    -0.04   0.08  -0.05     0.04  -0.01  -0.01
   9   1     0.14  -0.03   0.08     0.09   0.08   0.08     0.02   0.02   0.01
  10   1    -0.26   0.29  -0.14    -0.15   0.42  -0.16    -0.02   0.06  -0.02
  11   1     0.21  -0.26   0.06     0.24  -0.39   0.13    -0.04   0.08  -0.03
  12   1    -0.13  -0.21  -0.09     0.22   0.37   0.11     0.00  -0.01   0.01
  13   1     0.22   0.35   0.10    -0.12  -0.30   0.01     0.02   0.00   0.01
  14   1     0.23   0.06  -0.04    -0.16  -0.08  -0.03    -0.22  -0.07   0.01
  15   1    -0.16  -0.09  -0.07     0.14   0.08   0.09     0.34   0.14  -0.00
  16   1     0.29  -0.13  -0.15    -0.08   0.04   0.04     0.36  -0.24  -0.15
  17   1    -0.14  -0.02   0.04    -0.02   0.04   0.01     0.52  -0.28  -0.24
                     25                     26                     27
                        a                      a                      a 
 Frequencies --  1317.7254              1331.2548              1338.1255
 Red. masses --     3.4455                 2.8651                 2.8664
 Frc consts  --     0.0000                 0.0000                 0.0000
 IR Inten    --    11.2929                57.3420                95.2924
 Raman Activ --     0.0000                 0.0000                 0.0000
 Depolar     --     0.0000                 0.0000                 0.0000
 Atom AN      X      Y      Z        X      Y      Z        X      Y      Z
   1   7     0.16  -0.06   0.00     0.16  -0.13  -0.05    -0.10  -0.14  -0.03
   2   6     0.07  -0.16   0.10    -0.00  -0.15  -0.03    -0.09   0.28  -0.12
   3   6    -0.11  -0.22  -0.11     0.02   0.16   0.06     0.07  -0.07  -0.01
   4   6    -0.25  -0.04  -0.06     0.23   0.06   0.05    -0.12  -0.04  -0.05
   5   6     0.07  -0.02   0.04    -0.04  -0.02  -0.04     0.00  -0.00   0.04
   6  53     0.00  -0.00   0.00     0.00   0.00  -0.00    -0.00   0.00   0.00
   7   1    -0.28   0.05   0.09    -0.46   0.08   0.25    -0.19   0.02   0.18
   8   1    -0.08   0.04   0.03     0.05   0.03  -0.02     0.23   0.04  -0.11
   9   1    -0.07   0.24  -0.07    -0.01   0.51   0.04     0.09   0.40   0.19
  10   1    -0.07   0.14  -0.05    -0.06   0.16  -0.06     0.20  -0.46   0.17
  11   1    -0.13   0.36  -0.15    -0.12   0.11  -0.03     0.11  -0.32   0.14
  12   1     0.17   0.31   0.05    -0.10  -0.15  -0.08     0.01  -0.02   0.02
  13   1     0.11   0.25   0.02    -0.10  -0.16  -0.02     0.06   0.13   0.01
  14   1     0.30   0.12   0.01    -0.23  -0.09  -0.01     0.14   0.05  -0.00
  15   1     0.26   0.13   0.06    -0.27  -0.13  -0.04     0.16   0.07   0.03
  16   1     0.04   0.05  -0.05    -0.06  -0.02   0.04     0.06   0.00  -0.05
  17   1    -0.11   0.06   0.06     0.06  -0.03  -0.03    -0.01   0.02   0.02
                     28                     29                     30
                        a                      a                      a 
 Frequencies --  1367.3048              1378.4073              1449.4713
 Red. masses --     4.3249                 2.2621                 1.9073
 Frc consts  --     0.0000                 0.0000                 0.0000
 IR Inten    --     3.3401               167.0297                 8.1790
 Raman Activ --     0.0000                 0.0000                 0.0000
 Depolar     --     0.0000                 0.0000                 0.0000
 Atom AN      X      Y      Z        X      Y      Z        X      Y      Z
   1   7    -0.05  -0.01   0.00     0.25  -0.05   0.02    -0.00  -0.00  -0.00
   2   6     0.04   0.09   0.04    -0.02   0.17  -0.02    -0.00   0.01   0.00
   3   6    -0.20  -0.34  -0.00     0.03  -0.02   0.02    -0.00  -0.03  -0.00
   4   6     0.31   0.17  -0.03     0.02  -0.00  -0.01    -0.02   0.02  -0.01
   5   6    -0.06  -0.03  -0.04    -0.03   0.02   0.01     0.16   0.22  -0.07
   6  53    -0.00   0.00  -0.00     0.00   0.00  -0.00    -0.00   0.01   0.00
   7   1     0.04  -0.01  -0.02    -0.15   0.03  -0.00    -0.00  -0.00   0.02
   8   1     0.04   0.03  -0.03    -0.61   0.05   0.22    -0.00  -0.01   0.00
   9   1     0.03  -0.01   0.04    -0.38   0.03  -0.41    -0.01   0.02  -0.00
  10   1     0.03  -0.11   0.03     0.03  -0.18   0.04     0.01  -0.02   0.01
  11   1     0.01   0.04  -0.01     0.09  -0.25   0.12     0.00  -0.00  -0.00
  12   1     0.17   0.29  -0.02    -0.00  -0.03  -0.00     0.02   0.02  -0.02
  13   1     0.23   0.47   0.10     0.01   0.04   0.00     0.00   0.05  -0.01
  14   1    -0.40  -0.16  -0.06    -0.06  -0.04  -0.02     0.01   0.04   0.02
  15   1    -0.25  -0.13   0.04     0.01   0.01  -0.01     0.00  -0.00   0.05
  16   1    -0.05   0.01   0.01     0.03  -0.01  -0.02    -0.07  -0.47   0.47
  17   1     0.06   0.00  -0.01     0.04  -0.02  -0.02    -0.41  -0.47  -0.27
                     31                     32                     33
                        a                      a                      a 
 Frequencies --  1455.8390              1486.0233              1496.8931
 Red. masses --     1.8389                 1.8523                 1.8835
 Frc consts  --     0.0000                 0.0000                 0.0000
 IR Inten    --    86.7271                24.0694                19.5422
 Raman Activ --     0.0000                 0.0000                 0.0000
 Depolar     --     0.0000                 0.0000                 0.0000
 Atom AN      X      Y      Z        X      Y      Z        X      Y      Z
   1   7    -0.06   0.16  -0.18     0.00   0.03  -0.03     0.01  -0.01   0.00
   2   6    -0.02  -0.01  -0.02     0.24   0.11  -0.02    -0.07  -0.02  -0.00
   3   6    -0.02  -0.02   0.00    -0.03   0.01  -0.05    -0.10   0.09  -0.23
   4   6    -0.01   0.02   0.04    -0.02   0.01   0.01     0.03   0.00  -0.05
   5   6     0.00  -0.00  -0.00     0.01  -0.00   0.00     0.00  -0.00  -0.01
   6  53     0.00  -0.00  -0.00    -0.00   0.00  -0.00    -0.00   0.00  -0.00
   7   1     0.24  -0.03   0.63     0.06  -0.01   0.11    -0.02   0.00   0.00
   8   1    -0.06  -0.62   0.17     0.03  -0.12   0.02    -0.02   0.01   0.00
   9   1    -0.03   0.04  -0.05     0.02  -0.02   0.01    -0.02   0.03  -0.01
  10   1     0.12   0.03   0.08    -0.47  -0.28  -0.35     0.12   0.06   0.09
  11   1     0.08   0.04  -0.09    -0.50  -0.03   0.40     0.12   0.01  -0.10
  12   1     0.02   0.03  -0.01    -0.02   0.00   0.17    -0.13  -0.04   0.63
  13   1    -0.00   0.02  -0.00     0.14  -0.07   0.07     0.54  -0.28   0.25
  14   1     0.04  -0.08  -0.05     0.03  -0.02  -0.02    -0.06   0.07   0.04
  15   1    -0.01   0.03  -0.10    -0.00   0.01  -0.03    -0.03  -0.04   0.09
  16   1    -0.00   0.01  -0.00    -0.00  -0.00   0.01    -0.00  -0.01   0.01
  17   1     0.00   0.01   0.01    -0.01  -0.00  -0.00    -0.00  -0.01  -0.01
                     34                     35                     36
                        a                      a                      a 
 Frequencies --  1510.0040              2654.8951              2898.7681
 Red. masses --     1.8392                 1.8742                 1.9313
 Frc consts  --     0.0000                 0.0000                 0.0000
 IR Inten    --    21.4771              1287.7709                 8.8764
 Raman Activ --     0.0000                 0.0000                 0.0000
 Depolar     --     0.0000                 0.0000                 0.0000
 Atom AN      X      Y      Z        X      Y      Z        X      Y      Z
   1   7    -0.00   0.03  -0.03     0.17   0.05  -0.19     0.00   0.00  -0.00
   2   6     0.01   0.01  -0.01     0.00  -0.01   0.01     0.00   0.00  -0.00
   3   6     0.03  -0.00   0.02    -0.00   0.00  -0.00    -0.04   0.02   0.01
   4   6     0.06  -0.10  -0.24    -0.00   0.00  -0.00     0.11  -0.26   0.07
   5   6    -0.01  -0.02  -0.00    -0.00   0.01   0.00     0.00  -0.00  -0.01
   6  53     0.00   0.00   0.00    -0.00  -0.00  -0.00    -0.00   0.00   0.00
   7   1     0.04  -0.01   0.09    -0.00  -0.02  -0.01    -0.00  -0.00  -0.00
   8   1    -0.01  -0.12   0.03     0.03   0.01   0.01     0.00   0.00  -0.00
   9   1    -0.01  -0.01  -0.01    -0.68  -0.12   0.68    -0.01  -0.00   0.01
  10   1    -0.03  -0.01  -0.02     0.01   0.01  -0.02    -0.01   0.00   0.01
  11   1    -0.03  -0.00   0.02    -0.00  -0.00  -0.00     0.00  -0.00  -0.00
  12   1    -0.00  -0.03  -0.09     0.00  -0.00   0.00     0.13  -0.08   0.02
  13   1    -0.09   0.02  -0.04    -0.00  -0.00   0.00     0.01  -0.00  -0.04
  14   1    -0.23   0.54   0.33     0.00  -0.01   0.01    -0.05   0.24  -0.46
  15   1     0.03  -0.17   0.62     0.00  -0.00  -0.00    -0.34   0.68   0.20
  16   1     0.01   0.02  -0.03    -0.00  -0.01  -0.01    -0.00  -0.00  -0.00
  17   1     0.02   0.04   0.02     0.00  -0.01   0.01     0.00  -0.02   0.04
                     37                     38                     39
                        a                      a                      a 
 Frequencies --  2926.2821              2935.2739              2941.9334
 Red. masses --     1.8831                 1.6043                 1.9328
 Frc consts  --     0.0000                 0.0000                 0.0000
 IR Inten    --     4.0481                15.2809                 0.2722
 Raman Activ --     0.0000                 0.0000                 0.0000
 Depolar     --     0.0000                 0.0000                 0.0000
 Atom AN      X      Y      Z        X      Y      Z        X      Y      Z
   1   7     0.00   0.00   0.00     0.00  -0.00  -0.00     0.00   0.00  -0.00
   2   6     0.01  -0.01  -0.05     0.00  -0.02  -0.06    -0.01  -0.10  -0.26
   3   6    -0.21   0.10   0.11    -0.09   0.04   0.04     0.07  -0.05   0.02
   4   6    -0.00   0.03  -0.09    -0.04   0.03   0.19     0.01  -0.01  -0.02
   5   6     0.00   0.00   0.00    -0.02   0.00  -0.03     0.01   0.00   0.01
   6  53     0.00  -0.00  -0.00    -0.00  -0.00  -0.00     0.00  -0.00  -0.00
   7   1     0.00  -0.00  -0.00     0.00  -0.00   0.00    -0.00  -0.01   0.00
   8   1    -0.00  -0.00   0.00    -0.00  -0.00  -0.01    -0.01  -0.00  -0.01
   9   1     0.00  -0.00  -0.00    -0.01  -0.00   0.01    -0.01  -0.00   0.01
  10   1    -0.10   0.01   0.14    -0.09   0.01   0.12    -0.33   0.01   0.42
  11   1     0.03   0.03   0.04     0.07   0.07   0.09     0.37   0.35   0.50
  12   1     0.54  -0.32   0.09     0.25  -0.15   0.04    -0.27   0.16  -0.03
  13   1     0.22  -0.02  -0.52     0.07  -0.01  -0.16     0.04  -0.01  -0.05
  14   1     0.05  -0.20   0.33    -0.09   0.36  -0.58     0.01  -0.03   0.05
  15   1    -0.04   0.10   0.01     0.23  -0.48  -0.10    -0.04   0.08   0.02
  16   1    -0.01  -0.01  -0.01     0.05   0.04   0.05    -0.02  -0.02  -0.02
  17   1    -0.00   0.01  -0.02     0.00  -0.04   0.07    -0.00   0.01  -0.02
                     40                     41                     42
                        a                      a                      a 
 Frequencies --  2960.9716              2970.2969              2970.8434
 Red. masses --     1.5998                 1.5483                 1.9583
 Frc consts  --     0.0000                 0.0000                 0.0000
 IR Inten    --    11.9855                 2.1144                 5.9811
 Raman Activ --     0.0000                 0.0000                 0.0000
 Depolar     --     0.0000                 0.0000                 0.0000
 Atom AN      X      Y      Z        X      Y      Z        X      Y      Z
   1   7    -0.00   0.00  -0.00    -0.01   0.00   0.01     0.00   0.00  -0.00
   2   6     0.02   0.03   0.06    -0.20  -0.07   0.05     0.02  -0.00  -0.03
   3   6     0.05  -0.06   0.19    -0.02   0.00   0.03     0.00   0.01  -0.05
   4   6     0.00  -0.01   0.02     0.00   0.00  -0.00    -0.00   0.00  -0.04
   5   6    -0.03  -0.01  -0.06    -0.01   0.00  -0.03    -0.14  -0.05  -0.24
   6  53     0.00  -0.00  -0.00    -0.00   0.00  -0.00    -0.00  -0.00  -0.00
   7   1    -0.00  -0.00  -0.00    -0.00  -0.00   0.00     0.00  -0.00   0.00
   8   1     0.00   0.00   0.01    -0.00  -0.00  -0.01     0.00  -0.00   0.00
   9   1    -0.00  -0.00   0.00     0.01   0.00  -0.01    -0.01  -0.00   0.00
  10   1     0.04   0.00  -0.05     0.43  -0.05  -0.62    -0.06   0.01   0.09
  11   1    -0.12  -0.11  -0.16     0.28   0.28   0.44     0.01   0.00   0.00
  12   1    -0.48   0.28  -0.04     0.03  -0.02   0.01     0.07  -0.04   0.00
  13   1     0.33  -0.05  -0.65     0.05  -0.01  -0.10    -0.08   0.01   0.16
  14   1    -0.01   0.04  -0.07     0.00  -0.00   0.01     0.02  -0.06   0.10
  15   1    -0.00   0.01   0.01     0.00  -0.00  -0.00    -0.02   0.05   0.01
  16   1     0.10   0.09   0.10     0.04   0.04   0.04     0.48   0.42   0.50
  17   1     0.01  -0.07   0.10     0.01  -0.04   0.06     0.02  -0.24   0.36
                     43                     44                     45
                        a                      a                      a 
 Frequencies --  2983.9897              3184.7051              3202.0331
 Red. masses --     1.5566                 2.0320                 1.5157
 Frc consts  --     0.0000                 0.0000                 0.0000
 IR Inten    --    10.4514                53.6748                40.1466
 Raman Activ --     0.0000                 0.0000                 0.0000
 Depolar     --     0.0000                 0.0000                 0.0000
 Atom AN      X      Y      Z        X      Y      Z        X      Y      Z
   1   7     0.00   0.00  -0.00     0.10   0.19   0.18    -0.02   0.16  -0.12
   2   6    -0.01  -0.00   0.00     0.01   0.00   0.01    -0.00   0.00  -0.00
   3   6    -0.00  -0.00   0.01    -0.00  -0.00   0.00    -0.00  -0.00  -0.00
   4   6     0.00  -0.01   0.01    -0.00   0.00  -0.00    -0.00  -0.00   0.00
   5   6    -0.06  -0.18   0.12     0.00  -0.00   0.00     0.00   0.00  -0.00
   6  53     0.00  -0.00  -0.00     0.00   0.00  -0.00    -0.00  -0.00  -0.00
   7   1    -0.00  -0.00  -0.00    -0.11  -0.55   0.02    -0.17  -0.77  -0.02
   8   1     0.00   0.00   0.00    -0.25  -0.18  -0.71     0.19   0.16   0.51
   9   1    -0.01  -0.00   0.01    -0.00   0.01   0.02     0.04   0.02  -0.04
  10   1     0.02  -0.00  -0.02    -0.00  -0.00  -0.00     0.00  -0.00   0.00
  11   1     0.01   0.01   0.01    -0.01  -0.01  -0.01     0.00   0.00   0.00
  12   1    -0.01   0.00  -0.00    -0.00   0.00  -0.00     0.00  -0.00   0.00
  13   1     0.01  -0.00  -0.03    -0.00   0.00   0.00    -0.00   0.00   0.00
  14   1    -0.01   0.03  -0.04     0.00  -0.00   0.00    -0.00   0.00  -0.00
  15   1    -0.01   0.01   0.01    -0.00   0.00  -0.00     0.00  -0.00  -0.00
  16   1     0.28   0.22   0.32    -0.00   0.00  -0.00    -0.00  -0.00  -0.00
  17   1    -0.08   0.42  -0.73    -0.00  -0.00   0.00     0.00  -0.00   0.00
