 Entering Gaussian System
 *********************************************
 Gaussian 98:
 frequency output generated by the xtb code
 *********************************************
                         Standard orientation:
 --------------------------------------------------------------------
  Center     Atomic     Atomic              Coordinates (Angstroms)
  Number     Number      Type              X           Y           Z
 --------------------------------------------------------------------
    1          7             0       -3.826665   -1.022100    0.315335
    2          6             0       -3.655126   -0.204788    1.549783
    3          6             0       -3.338679    1.256460    1.242010
    4          6             0       -1.992711    1.441922    0.604784
    5          6             0       -1.863165    1.548829   -0.773386
    6          6             0       -0.621366    1.692991   -1.354871
    7          6             0       -0.845818    1.477607    1.386581
    8          6             0        0.396601    1.625289    0.808986
    9          6             0        0.526727    1.726976   -0.570665
   10          7             0        1.785966    1.834389   -1.163890
   11          7             0        2.737203    1.071284   -0.931122
   12          6             0        2.647069   -0.094864   -0.169489
   13          6             0        1.617834   -1.004209   -0.381884
   14          6             0        1.520790   -2.147357    0.382078
   15          6             0        2.456402   -2.402611    1.366056
   16          6             0        3.489248   -1.510496    1.582991
   17          6             0        3.585921   -0.365277    0.820898
   18         17             0       -1.125125   -1.687927   -1.823363
   19          1             0       -4.096219   -1.996068    0.531418
   20          1             0       -2.955897   -1.062335   -0.245348
   21          1             0       -4.560835   -0.624237   -0.290143
   22          1             0       -2.856006   -0.633701    2.164711
   23          1             0       -4.567394   -0.274602    2.156877
   24          1             0       -3.382863    1.859482    2.156759
   25          1             0       -4.110700    1.668363    0.583321
   26          1             0       -2.746727    1.513612   -1.389453
   27          1             0       -0.519449    1.769409   -2.424261
   28          1             0       -0.936474    1.386479    2.456421
   29          1             0        1.286154    1.650316    1.415833
   30          1             0        0.887352   -0.785157   -1.142352
   31          1             0        0.711616   -2.839814    0.212062
   32          1             0        2.380930   -3.297259    1.963768
   33          1             0        4.221010   -1.709558    2.350038
   34          1             0        4.384376    0.339139    0.982824
 --------------------------------------------------------------------
     1 basis functions        1 primitive gaussians
     1 alpha electrons        1 beta electrons

 Harmonic frequencies (cm**-1), IR intensities (km*mol⁻¹),
 Raman scattering activities (A**4/amu), Raman depolarization ratios,
 reduced masses (AMU), force constants (mDyne/A) and normal coordinates:
                      1                      2                      3
                        a                      a                      a 
 Frequencies --  -126.6011               -51.8771                 8.1818
 Red. masses --    24.0760                10.8058                12.0167
 Frc consts  --     0.0000                 0.0000                 0.0000
 IR Inten    --    83.8600                 0.8175                 1.0289
 Raman Activ --     0.0000                 0.0000                 0.0000
 Depolar     --     0.0000                 0.0000                 0.0000
 Atom AN      X      Y      Z        X      Y      Z        X      Y      Z
   1   7    -0.36   0.12   0.30     0.03  -0.02  -0.11    -0.11   0.07  -0.03
   2   6    -0.13   0.16   0.22     0.01  -0.06  -0.07    -0.15   0.08  -0.03
   3   6    -0.03   0.11   0.07    -0.03  -0.04  -0.02    -0.07   0.05  -0.04
   4   6    -0.03  -0.00   0.03    -0.03   0.02   0.00    -0.06  -0.02  -0.03
   5   6    -0.03  -0.05   0.03    -0.01   0.02   0.01    -0.07   0.25  -0.01
   6   6    -0.03  -0.07   0.01    -0.01   0.03   0.02    -0.06   0.21  -0.00
   7   6    -0.02   0.01   0.02    -0.04   0.06   0.02    -0.04  -0.36  -0.05
   8   6    -0.02  -0.01   0.01    -0.03   0.08   0.04    -0.03  -0.39  -0.04
   9   6    -0.03  -0.04   0.00    -0.01   0.04   0.03    -0.05  -0.10  -0.02
  10   7    -0.03  -0.02   0.01    -0.02  -0.01   0.02    -0.07  -0.11  -0.06
  11   7    -0.01   0.00   0.01    -0.04  -0.05  -0.01    -0.05  -0.09  -0.08
  12   6     0.00  -0.00   0.00    -0.03  -0.03   0.02     0.04  -0.06  -0.03
  13   6     0.01  -0.01   0.00    -0.24   0.12   0.35     0.10  -0.15   0.05
  14   6     0.01  -0.01   0.01    -0.18   0.15   0.40     0.20  -0.10   0.14
  15   6     0.01  -0.00   0.01     0.07   0.03   0.12     0.24   0.04   0.14
  16   6     0.01   0.01   0.01     0.28  -0.13  -0.21     0.18   0.13   0.05
  17   6    -0.00   0.01   0.01     0.23  -0.16  -0.27     0.09   0.08  -0.04
  18  17     0.48  -0.16  -0.53     0.01  -0.02  -0.19    -0.03   0.26   0.05
  19   1    -0.06   0.02   0.10     0.02  -0.01  -0.04    -0.04   0.02  -0.01
  20   1    -0.13   0.08   0.06     0.01   0.00  -0.03    -0.02   0.02   0.01
  21   1    -0.14   0.01   0.12     0.01  -0.01  -0.03    -0.02   0.02  -0.02
  22   1    -0.03   0.04   0.05     0.00  -0.02  -0.02    -0.06   0.02   0.01
  23   1    -0.02   0.08   0.09     0.00  -0.03  -0.02    -0.05   0.03  -0.02
  24   1     0.01   0.06   0.00    -0.02  -0.02   0.00    -0.02   0.02  -0.01
  25   1    -0.01   0.03   0.01    -0.01  -0.01  -0.00    -0.01   0.03  -0.02
  26   1    -0.01  -0.02   0.01    -0.00   0.00  -0.00    -0.03   0.15   0.00
  27   1    -0.01  -0.03   0.00     0.00   0.01   0.01    -0.02   0.13   0.00
  28   1    -0.00   0.01   0.01    -0.01   0.02   0.01    -0.01  -0.17  -0.02
  29   1    -0.00   0.00   0.00    -0.01   0.03   0.01    -0.01  -0.18  -0.01
  30   1     0.00  -0.01  -0.00    -0.12   0.05   0.16     0.02  -0.07   0.02
  31   1     0.01  -0.00  -0.00    -0.09   0.07   0.18     0.07  -0.05   0.06
  32   1     0.01  -0.00   0.00     0.04   0.01   0.05     0.09   0.02   0.06
  33   1     0.00   0.01   0.00     0.14  -0.07  -0.13     0.06   0.07   0.01
  34   1    -0.00   0.00   0.00     0.12  -0.09  -0.16     0.01   0.04  -0.03
                      4                      5                      6
                        a                      a                      a 
 Frequencies --    34.4284                40.8063                82.9803
 Red. masses --    18.0481                14.6097                13.4608
 Frc consts  --     0.0000                 0.0000                 0.0000
 IR Inten    --     3.9860                 4.0744                16.7507
 Raman Activ --     0.0000                 0.0000                 0.0000
 Depolar     --     0.0000                 0.0000                 0.0000
 Atom AN      X      Y      Z        X      Y      Z        X      Y      Z
   1   7     0.15  -0.03  -0.04    -0.03   0.10  -0.07    -0.14   0.30  -0.43
   2   6     0.20  -0.16   0.04    -0.10   0.06  -0.04    -0.16  -0.01  -0.19
   3   6     0.13  -0.12   0.18    -0.08   0.06   0.01     0.08   0.03   0.23
   4   6     0.08  -0.05   0.09    -0.08   0.03   0.01     0.07   0.00   0.21
   5   6    -0.01  -0.08   0.08    -0.06  -0.27  -0.02    -0.01  -0.05   0.19
   6   6    -0.05  -0.09  -0.01    -0.06  -0.33  -0.03    -0.05  -0.06   0.11
   7   6     0.13   0.01   0.02    -0.09   0.27   0.02     0.11   0.04   0.14
   8   6     0.09   0.01  -0.07    -0.09   0.20   0.01     0.08   0.04   0.06
   9   6    -0.00  -0.06  -0.08    -0.07  -0.09  -0.01    -0.00  -0.01   0.05
  10   7    -0.04  -0.13  -0.18    -0.08  -0.11   0.00    -0.05  -0.01  -0.05
  11   7    -0.05  -0.14  -0.15    -0.05  -0.05   0.06    -0.04  -0.01  -0.12
  12   6    -0.06  -0.05  -0.02     0.02  -0.03   0.08     0.00   0.01  -0.08
  13   6    -0.04  -0.09   0.03     0.09  -0.11   0.06     0.03  -0.03  -0.05
  14   6    -0.08   0.00   0.16     0.23  -0.18  -0.02     0.06  -0.00  -0.00
  15   6    -0.14   0.13   0.25     0.30  -0.16  -0.08     0.05   0.08   0.04
  16   6    -0.16   0.16   0.20     0.20  -0.05  -0.03     0.01   0.13   0.01
  17   6    -0.12   0.07   0.07     0.05   0.01   0.06    -0.01   0.09  -0.05
  18  17    -0.05   0.39  -0.37    -0.07   0.41   0.01     0.01  -0.37   0.01
  19   1     0.08  -0.03  -0.03     0.01   0.02  -0.03    -0.15   0.10  -0.18
  20   1     0.02   0.05  -0.05    -0.00   0.05  -0.02     0.00   0.01  -0.05
  21   1     0.00  -0.01   0.03    -0.01   0.02  -0.02     0.04   0.18  -0.15
  22   1     0.08  -0.06  -0.02    -0.03   0.01  -0.00    -0.09  -0.08  -0.06
  23   1     0.07  -0.07   0.03    -0.04   0.01  -0.02    -0.07  -0.00  -0.09
  24   1     0.06  -0.06   0.07    -0.02   0.01   0.01     0.06  -0.07   0.12
  25   1     0.02  -0.02   0.08    -0.02   0.03   0.00     0.03   0.10   0.11
  26   1    -0.02  -0.03   0.04    -0.01  -0.14  -0.01    -0.01  -0.02   0.07
  27   1    -0.04  -0.04  -0.00    -0.01  -0.17  -0.01    -0.03  -0.03   0.03
  28   1     0.06   0.01   0.01    -0.03   0.15   0.01     0.05   0.02   0.04
  29   1     0.04   0.02  -0.04    -0.03   0.11   0.00     0.03   0.02   0.00
  30   1    -0.00  -0.05  -0.01     0.01  -0.04   0.03     0.01  -0.03  -0.02
  31   1    -0.02  -0.01   0.05     0.09  -0.07  -0.01     0.03  -0.01   0.01
  32   1    -0.05   0.06   0.10     0.12  -0.07  -0.05     0.02   0.03   0.02
  33   1    -0.06   0.08   0.08     0.07  -0.01  -0.02    -0.00   0.06   0.01
  34   1    -0.04   0.03   0.01    -0.01   0.02   0.03    -0.01   0.04  -0.02
                      7                      8                      9
                        a                      a                      a 
 Frequencies --    86.7689               112.0174               141.2081
 Red. masses --    14.0194                21.0012                16.7456
 Frc consts  --     0.0000                 0.0000                 0.0000
 IR Inten    --     6.6426                 7.6938                31.0248
 Raman Activ --     0.0000                 0.0000                 0.0000
 Depolar     --     0.0000                 0.0000                 0.0000
 Atom AN      X      Y      Z        X      Y      Z        X      Y      Z
   1   7    -0.38  -0.02   0.02    -0.33  -0.09   0.06    -0.39   0.00  -0.08
   2   6    -0.21  -0.02   0.00     0.11  -0.08  -0.00     0.10  -0.18  -0.02
   3   6     0.05  -0.09  -0.05     0.08  -0.09  -0.07     0.12  -0.16   0.09
   4   6     0.08  -0.24  -0.03     0.08  -0.01  -0.05     0.05  -0.04  -0.03
   5   6     0.12  -0.31  -0.03     0.11   0.05  -0.04    -0.04   0.09  -0.03
   6   6     0.12  -0.23  -0.01     0.12   0.14  -0.01    -0.07   0.15  -0.10
   7   6     0.07  -0.18  -0.01     0.06   0.05  -0.02     0.10   0.01  -0.10
   8   6     0.07  -0.10   0.01     0.07   0.13   0.02     0.05   0.10  -0.16
   9   6     0.10  -0.08   0.02     0.09   0.16   0.03    -0.03   0.10  -0.17
  10   7     0.12   0.08   0.05     0.11   0.10   0.04    -0.02  -0.04  -0.20
  11   7     0.16   0.11  -0.02     0.02  -0.00   0.06    -0.06  -0.04   0.01
  12   6     0.13   0.05  -0.08    -0.04   0.02   0.09    -0.09   0.05   0.14
  13   6     0.05   0.14  -0.06     0.02  -0.05   0.09    -0.10   0.06   0.14
  14   6    -0.10   0.21   0.02     0.17  -0.09   0.05    -0.05  -0.03   0.01
  15   6    -0.14   0.18   0.05     0.21  -0.04   0.02     0.03  -0.15  -0.10
  16   6    -0.01   0.05  -0.03     0.09   0.08   0.08    -0.01  -0.12  -0.03
  17   6     0.13  -0.01  -0.10    -0.03   0.10   0.11    -0.08  -0.02   0.11
  18  17    -0.15   0.27   0.16    -0.55  -0.21  -0.28     0.34   0.16   0.34
  19   1    -0.11  -0.00   0.01    -0.10  -0.02   0.04    -0.15   0.01  -0.04
  20   1    -0.11  -0.01   0.00    -0.13  -0.06  -0.05    -0.13  -0.04  -0.05
  21   1    -0.10   0.01   0.02    -0.12  -0.01   0.07    -0.11   0.07   0.03
  22   1    -0.08  -0.04   0.00     0.07  -0.04  -0.07     0.07  -0.10  -0.09
  23   1    -0.06   0.05   0.00     0.08  -0.01   0.07     0.08  -0.05   0.07
  24   1     0.03  -0.01  -0.02     0.02  -0.02  -0.03     0.06  -0.07   0.05
  25   1     0.03   0.00  -0.02     0.02  -0.04  -0.03     0.01  -0.02   0.07
  26   1     0.04  -0.12  -0.02     0.04   0.00  -0.02    -0.02   0.03   0.01
  27   1     0.04  -0.08  -0.00     0.04   0.05  -0.00    -0.04   0.06  -0.03
  28   1     0.01  -0.04  -0.00     0.01   0.01  -0.01     0.05  -0.01  -0.03
  29   1     0.02  -0.01   0.01     0.02   0.05   0.01     0.02   0.04  -0.06
  30   1     0.02   0.05  -0.02    -0.01  -0.03   0.03    -0.04   0.04   0.05
  31   1    -0.05   0.09   0.02     0.07  -0.05   0.01    -0.02  -0.00  -0.01
  32   1    -0.08   0.07   0.04     0.09  -0.03  -0.01     0.03  -0.07  -0.07
  33   1    -0.01  -0.00  -0.01     0.03   0.04   0.03     0.01  -0.05  -0.02
  34   1     0.06  -0.03  -0.04    -0.03   0.05   0.04    -0.03  -0.01   0.05
                     10                     11                     12
                        a                      a                      a 
 Frequencies --   162.4337               180.8072               225.8182
 Red. masses --    11.8942                10.3277                10.6702
 Frc consts  --     0.0000                 0.0000                 0.0000
 IR Inten    --     5.9134                 4.4604                 5.0184
 Raman Activ --     0.0000                 0.0000                 0.0000
 Depolar     --     0.0000                 0.0000                 0.0000
 Atom AN      X      Y      Z        X      Y      Z        X      Y      Z
   1   7    -0.23  -0.14  -0.02    -0.09   0.20  -0.09    -0.02  -0.27   0.06
   2   6     0.09  -0.12  -0.07     0.37  -0.06   0.01    -0.32  -0.07  -0.01
   3   6    -0.11  -0.08  -0.11    -0.03   0.04   0.12    -0.04  -0.09   0.08
   4   6    -0.08   0.15   0.01    -0.13   0.17  -0.03    -0.02   0.05   0.10
   5   6     0.02   0.14   0.02    -0.14   0.08  -0.04    -0.08   0.22   0.10
   6   6     0.07   0.10   0.12    -0.11  -0.15  -0.06    -0.13   0.14  -0.02
   7   6    -0.13   0.26   0.09    -0.11   0.01  -0.06     0.06   0.20  -0.01
   8   6    -0.07   0.17   0.17    -0.11  -0.19  -0.07     0.02   0.16  -0.13
   9   6     0.04   0.03   0.17    -0.09  -0.24  -0.08    -0.01  -0.06  -0.15
  10   7     0.01  -0.05   0.11    -0.05  -0.09   0.09     0.00  -0.21  -0.17
  11   7     0.00  -0.14  -0.19     0.13   0.16   0.21     0.14   0.01   0.04
  12   6     0.08  -0.18  -0.24     0.20   0.05   0.05     0.25   0.03   0.09
  13   6     0.11  -0.21  -0.21     0.17   0.10  -0.05     0.22   0.08  -0.03
  14   6     0.04  -0.09  -0.02     0.02   0.13  -0.04     0.04   0.09  -0.05
  15   6    -0.09   0.11   0.15    -0.07   0.07   0.03    -0.09   0.01   0.05
  16   6    -0.03   0.07   0.01     0.05  -0.07   0.02     0.03  -0.13   0.08
  17   6     0.08  -0.09  -0.22     0.19  -0.07   0.04     0.21  -0.12   0.10
  18  17     0.17   0.08   0.15    -0.13  -0.10  -0.03    -0.12  -0.00  -0.11
  19   1    -0.03  -0.04   0.01    -0.00   0.04  -0.05    -0.06  -0.05   0.04
  20   1    -0.10  -0.03  -0.06    -0.08   0.07  -0.11     0.04  -0.13   0.09
  21   1    -0.11  -0.05   0.05    -0.08   0.09   0.08     0.07  -0.08  -0.07
  22   1     0.09  -0.02  -0.09     0.22  -0.01  -0.14    -0.18  -0.04   0.10
  23   1     0.08  -0.06   0.06     0.20  -0.10   0.13    -0.16   0.04  -0.09
  24   1    -0.08  -0.02  -0.04     0.01  -0.01   0.05    -0.01  -0.06   0.04
  25   1    -0.04  -0.07  -0.05    -0.06  -0.01   0.08     0.01   0.01   0.03
  26   1     0.02   0.03  -0.01    -0.04   0.05  -0.01    -0.04   0.09   0.05
  27   1     0.04   0.03   0.03    -0.04  -0.06  -0.02    -0.08   0.05  -0.01
  28   1    -0.06   0.10   0.03    -0.03   0.01  -0.02     0.05   0.08   0.00
  29   1    -0.03   0.05   0.07    -0.03  -0.08  -0.02     0.01   0.06  -0.05
  30   1     0.05  -0.08  -0.08     0.07   0.04  -0.03     0.09   0.04  -0.03
  31   1     0.01  -0.03   0.01    -0.01   0.06  -0.02    -0.00   0.05  -0.04
  32   1    -0.06   0.08   0.11    -0.06   0.03   0.02    -0.08   0.01   0.02
  33   1    -0.02   0.05   0.03     0.00  -0.05   0.01    -0.01  -0.07   0.03
  34   1     0.03  -0.03  -0.09     0.07  -0.04   0.02     0.08  -0.06   0.05
                     13                     14                     15
                        a                      a                      a 
 Frequencies --   255.3385               272.7596               317.8769
 Red. masses --    10.5366                 2.8963                10.7950
 Frc consts  --     0.0000                 0.0000                 0.0000
 IR Inten    --     1.0000                 1.1844                22.4567
 Raman Activ --     0.0000                 0.0000                 0.0000
 Depolar     --     0.0000                 0.0000                 0.0000
 Atom AN      X      Y      Z        X      Y      Z        X      Y      Z
   1   7     0.07   0.11   0.03    -0.01  -0.06   0.09    -0.09  -0.31  -0.01
   2   6    -0.04  -0.04   0.13     0.15  -0.01   0.05     0.03   0.08  -0.23
   3   6     0.09  -0.07   0.17    -0.00   0.00  -0.04     0.04   0.13  -0.11
   4   6    -0.02  -0.14  -0.11    -0.03   0.07  -0.05     0.14   0.26   0.18
   5   6    -0.07  -0.07  -0.12     0.01   0.00  -0.05    -0.00   0.12   0.17
   6   6    -0.08   0.10  -0.14     0.05  -0.08   0.02    -0.09  -0.23  -0.07
   7   6    -0.01  -0.04  -0.15    -0.07   0.03   0.01     0.21   0.05   0.10
   8   6    -0.06   0.15  -0.16    -0.03  -0.07   0.07     0.12  -0.15  -0.13
   9   6    -0.07   0.19  -0.15     0.01  -0.08   0.08    -0.06  -0.15  -0.15
  10   7     0.10   0.28   0.22    -0.03  -0.07   0.00     0.02   0.14   0.14
  11   7    -0.03   0.13   0.30    -0.00  -0.04  -0.08    -0.00   0.17   0.29
  12   6    -0.07  -0.11  -0.06     0.00   0.00  -0.01    -0.17  -0.03  -0.04
  13   6     0.06  -0.25  -0.11    -0.04   0.04   0.02    -0.12  -0.10  -0.04
  14   6     0.08  -0.17   0.03    -0.03   0.04   0.01    -0.01  -0.07   0.03
  15   6    -0.08   0.03   0.23     0.02   0.01  -0.04     0.01   0.03   0.03
  16   6     0.03  -0.03   0.01    -0.01   0.03   0.00     0.01   0.06  -0.06
  17   6     0.06  -0.17  -0.19    -0.03   0.05   0.03    -0.09   0.01  -0.12
  18  17     0.01   0.02  -0.00     0.03   0.09  -0.09     0.05   0.04   0.02
  19   1    -0.11   0.06  -0.04    -0.53   0.13   0.04    -0.04  -0.05   0.11
  20   1     0.06  -0.05   0.09     0.11  -0.48   0.22    -0.04  -0.16  -0.02
  21   1     0.12   0.13  -0.05     0.35   0.30  -0.20    -0.03  -0.14  -0.03
  22   1    -0.05  -0.04   0.06     0.06   0.01  -0.00     0.01   0.04  -0.06
  23   1    -0.04   0.01   0.00     0.06   0.00   0.04     0.01   0.05  -0.05
  24   1     0.12  -0.04   0.06    -0.01   0.02  -0.02    -0.07   0.00  -0.01
  25   1    -0.01   0.02   0.12    -0.02  -0.04  -0.02     0.05   0.04  -0.08
  26   1    -0.02  -0.04  -0.03     0.01  -0.00  -0.02    -0.03   0.05   0.09
  27   1    -0.04   0.04  -0.04     0.03  -0.03   0.01    -0.07  -0.12  -0.03
  28   1     0.01  -0.02  -0.04    -0.04   0.02   0.00     0.10   0.01   0.03
  29   1    -0.01   0.06  -0.05    -0.02  -0.03   0.03     0.07  -0.07  -0.09
  30   1     0.02  -0.10  -0.04    -0.01   0.02   0.01    -0.04  -0.05  -0.01
  31   1     0.04  -0.07   0.01    -0.01   0.01   0.01     0.01  -0.04   0.02
  32   1    -0.06   0.06   0.13     0.02  -0.01  -0.03     0.02   0.02   0.03
  33   1     0.02   0.02   0.00    -0.00   0.01  -0.00     0.02   0.03  -0.03
  34   1     0.04  -0.06  -0.10    -0.01   0.02   0.01    -0.03   0.02  -0.07
                     16                     17                     18
                        a                      a                      a 
 Frequencies --   347.9088               361.2192               367.5393
 Red. masses --     9.7914                 8.9998                 8.9932
 Frc consts  --     0.0000                 0.0000                 0.0000
 IR Inten    --     8.0819                 2.4084                 0.8295
 Raman Activ --     0.0000                 0.0000                 0.0000
 Depolar     --     0.0000                 0.0000                 0.0000
 Atom AN      X      Y      Z        X      Y      Z        X      Y      Z
   1   7     0.00   0.08  -0.01     0.00   0.03   0.00     0.01   0.05   0.00
   2   6     0.14   0.11  -0.05     0.01   0.00   0.01     0.01  -0.01   0.03
   3   6    -0.04   0.06  -0.29    -0.03  -0.00  -0.04    -0.07  -0.02  -0.03
   4   6     0.14  -0.11   0.12    -0.01  -0.02   0.02    -0.03  -0.02   0.02
   5   6     0.00  -0.20   0.12    -0.02   0.12   0.03    -0.04   0.36   0.05
   6   6    -0.11   0.10   0.03     0.00  -0.14   0.00     0.03  -0.37  -0.00
   7   6     0.12  -0.13   0.15     0.02  -0.16  -0.00     0.02  -0.39  -0.03
   8   6     0.05   0.06   0.03    -0.01   0.14   0.01    -0.04   0.42   0.02
   9   6    -0.13   0.21   0.02     0.00   0.00  -0.00     0.02   0.06  -0.00
  10   7    -0.24  -0.00  -0.21     0.01  -0.04  -0.03     0.05   0.03   0.01
  11   7    -0.24   0.05   0.00     0.01  -0.03  -0.00     0.02  -0.02  -0.05
  12   6    -0.02   0.15   0.19     0.00   0.02   0.04     0.03  -0.02  -0.03
  13   6     0.19  -0.05  -0.05    -0.22   0.22   0.27     0.10  -0.08  -0.10
  14   6     0.09  -0.03  -0.06     0.21  -0.19  -0.29    -0.07   0.07   0.11
  15   6    -0.15   0.03   0.18    -0.02   0.02  -0.03     0.01  -0.02   0.01
  16   6     0.07  -0.17  -0.04    -0.22   0.19   0.25     0.07  -0.08  -0.08
  17   6     0.12  -0.12   0.02     0.25  -0.18  -0.24    -0.08   0.06   0.10
  18  17    -0.01  -0.01  -0.02     0.00   0.00   0.01    -0.01  -0.00  -0.00
  19   1    -0.05   0.04   0.01    -0.01   0.01  -0.01    -0.01   0.01  -0.02
  20   1    -0.01  -0.04  -0.01     0.00   0.00   0.00     0.01   0.01   0.01
  21   1     0.02   0.05  -0.00     0.01   0.02   0.00     0.01   0.03   0.00
  22   1     0.09   0.07  -0.05     0.01   0.01  -0.00     0.01   0.00   0.00
  23   1     0.08   0.01   0.03     0.01  -0.01   0.01     0.01  -0.02   0.02
  24   1    -0.15   0.11  -0.15    -0.03   0.02  -0.02    -0.05   0.02  -0.03
  25   1     0.06  -0.08  -0.22    -0.00  -0.02  -0.03    -0.01  -0.04  -0.04
  26   1    -0.02  -0.11   0.06    -0.01   0.08   0.01    -0.02   0.22   0.02
  27   1    -0.04   0.04   0.01    -0.00  -0.09  -0.00     0.01  -0.24  -0.01
  28   1     0.05  -0.06   0.04     0.01  -0.10  -0.00     0.03  -0.26  -0.02
  29   1     0.04   0.02  -0.03    -0.01   0.08   0.00    -0.02   0.24   0.02
  30   1     0.09  -0.02  -0.05    -0.13   0.12   0.16     0.05  -0.05  -0.06
  31   1     0.03  -0.01  -0.06     0.14  -0.12  -0.18    -0.05   0.05   0.06
  32   1    -0.10   0.04   0.10    -0.00   0.00  -0.01     0.00  -0.01   0.00
  33   1     0.04  -0.08  -0.04    -0.14   0.11   0.16     0.05  -0.04  -0.05
  34   1     0.07  -0.07   0.00     0.15  -0.12  -0.16    -0.05   0.04   0.07
                     19                     20                     21
                        a                      a                      a 
 Frequencies --   394.3098               412.6825               451.1381
 Red. masses --     8.3579                11.0807                10.5001
 Frc consts  --     0.0000                 0.0000                 0.0000
 IR Inten    --     2.5592                 5.4434                 1.3224
 Raman Activ --     0.0000                 0.0000                 0.0000
 Depolar     --     0.0000                 0.0000                 0.0000
 Atom AN      X      Y      Z        X      Y      Z        X      Y      Z
   1   7    -0.04  -0.25   0.00     0.01   0.11   0.02     0.00   0.05   0.00
   2   6     0.03   0.12  -0.20    -0.02  -0.02   0.07    -0.09  -0.14   0.12
   3   6     0.25   0.19   0.21     0.23  -0.14  -0.13    -0.18  -0.09   0.07
   4   6     0.02   0.13  -0.19     0.20  -0.23  -0.13    -0.15   0.19   0.03
   5   6    -0.01   0.02  -0.20     0.04   0.18  -0.12     0.10   0.06   0.03
   6   6     0.09  -0.10   0.01     0.03   0.04  -0.07     0.17  -0.12   0.09
   7   6    -0.06  -0.11  -0.06     0.05   0.09   0.05    -0.05   0.07  -0.09
   8   6     0.00   0.01   0.18     0.06   0.11   0.14     0.04  -0.15  -0.04
   9   6    -0.05   0.10   0.19    -0.09  -0.37   0.09     0.22   0.08  -0.01
  10   7    -0.19  -0.02  -0.06    -0.24  -0.30   0.10     0.20  -0.02  -0.23
  11   7    -0.20  -0.03  -0.08    -0.09  -0.02   0.29     0.02  -0.13   0.09
  12   6    -0.04   0.11   0.15    -0.15  -0.02   0.11    -0.32   0.15   0.32
  13   6     0.08   0.01  -0.00    -0.10  -0.01  -0.11    -0.09  -0.02  -0.08
  14   6     0.06  -0.02  -0.07    -0.04   0.02  -0.09     0.06  -0.07  -0.15
  15   6    -0.09   0.04   0.08    -0.02   0.20  -0.05    -0.12   0.23   0.10
  16   6     0.03  -0.07  -0.04     0.09   0.09  -0.10     0.16  -0.02  -0.15
  17   6     0.07  -0.03   0.01     0.01   0.10  -0.05    -0.02   0.06  -0.01
  18  17     0.01   0.01  -0.01    -0.00  -0.00   0.01     0.00  -0.00   0.01
  19   1     0.02  -0.05   0.13     0.02   0.01  -0.04     0.00  -0.00  -0.07
  20   1    -0.03  -0.11  -0.03     0.01   0.08   0.01     0.02   0.06   0.02
  21   1    -0.05  -0.16  -0.01    -0.00   0.04   0.02     0.02   0.05   0.01
  22   1    -0.02   0.01  -0.04    -0.05  -0.04   0.06    -0.03  -0.04   0.04
  23   1    -0.00   0.07  -0.07    -0.03   0.06  -0.02    -0.03  -0.06   0.02
  24   1     0.26  -0.11   0.17     0.07   0.01  -0.07    -0.08  -0.01   0.01
  25   1     0.01   0.23   0.25     0.08  -0.05  -0.06    -0.07  -0.07   0.01
  26   1     0.01  -0.01  -0.07    -0.01   0.16  -0.01     0.06  -0.01  -0.04
  27   1     0.10  -0.07   0.01     0.06   0.09  -0.01     0.04  -0.09   0.02
  28   1    -0.08  -0.09  -0.03    -0.04   0.10   0.02     0.01  -0.00  -0.02
  29   1    -0.01  -0.01   0.07     0.03   0.13   0.02    -0.02  -0.10   0.03
  30   1     0.04   0.00  -0.02     0.00  -0.00  -0.06     0.04  -0.04  -0.09
  31   1     0.03  -0.01  -0.06     0.02  -0.03  -0.02     0.09  -0.09  -0.09
  32   1    -0.06   0.03   0.05    -0.01   0.07  -0.00    -0.05   0.09   0.06
  33   1     0.03  -0.05  -0.03     0.04  -0.00  -0.05     0.11  -0.07  -0.13
  34   1     0.05  -0.04  -0.01    -0.00   0.05  -0.07     0.04  -0.01  -0.10
                     22                     23                     24
                        a                      a                      a 
 Frequencies --   481.9248               531.0952               580.4265
 Red. masses --    11.1694                 9.3742                11.2295
 Frc consts  --     0.0000                 0.0000                 0.0000
 IR Inten    --     1.3003                 0.1514                 1.5570
 Raman Activ --     0.0000                 0.0000                 0.0000
 Depolar     --     0.0000                 0.0000                 0.0000
 Atom AN      X      Y      Z        X      Y      Z        X      Y      Z
   1   7     0.00   0.08   0.02     0.01  -0.06  -0.02     0.00  -0.00   0.00
   2   6    -0.08  -0.13   0.14     0.07   0.13  -0.12     0.01   0.02  -0.01
   3   6     0.10  -0.19  -0.07    -0.15   0.18   0.06     0.01   0.01   0.01
   4   6     0.07   0.10  -0.08    -0.10  -0.38   0.02     0.03  -0.12   0.05
   5   6     0.04   0.21  -0.09    -0.03  -0.03   0.08     0.09   0.05   0.05
   6   6     0.09  -0.18  -0.03     0.01   0.08   0.17     0.02  -0.03  -0.15
   7   6     0.02   0.19   0.00    -0.06  -0.04  -0.06    -0.06   0.04   0.12
   8   6     0.09  -0.17   0.07    -0.02   0.10   0.00    -0.15  -0.05  -0.09
   9   6    -0.01  -0.14   0.07     0.15  -0.34  -0.02    -0.04  -0.07  -0.08
  10   7    -0.17   0.24  -0.07     0.11   0.04  -0.16     0.11   0.14   0.18
  11   7    -0.07   0.32  -0.23     0.21   0.18  -0.05    -0.04  -0.13  -0.17
  12   6     0.00   0.23  -0.10    -0.14   0.16  -0.03     0.11   0.05   0.15
  13   6     0.13   0.00   0.15    -0.03   0.01   0.04     0.19  -0.11   0.31
  14   6     0.13  -0.08   0.10     0.13  -0.05   0.02    -0.21  -0.32  -0.05
  15   6    -0.04  -0.26   0.20    -0.04  -0.07   0.17    -0.19   0.03  -0.03
  16   6    -0.12  -0.13  -0.02    -0.01  -0.07  -0.08    -0.14   0.11  -0.33
  17   6    -0.12  -0.10  -0.05    -0.19  -0.03  -0.05     0.23   0.33   0.07
  18  17    -0.02  -0.01   0.00     0.01   0.01   0.00    -0.01  -0.00  -0.01
  19   1     0.01  -0.00  -0.09    -0.01   0.01   0.08    -0.00   0.00   0.01
  20   1     0.01   0.09   0.02    -0.01  -0.08  -0.02    -0.00  -0.01  -0.00
  21   1     0.01   0.06   0.02    -0.00  -0.05  -0.02    -0.00  -0.01  -0.00
  22   1    -0.09  -0.09   0.09     0.11   0.10  -0.10     0.01   0.01  -0.01
  23   1    -0.07   0.03  -0.02     0.08  -0.06   0.04     0.01  -0.00   0.00
  24   1    -0.01  -0.01  -0.05     0.04   0.01   0.05     0.02  -0.00   0.01
  25   1     0.02  -0.11  -0.05    -0.03   0.12   0.06     0.01   0.02   0.01
  26   1     0.01   0.11  -0.02    -0.00   0.15   0.01     0.00   0.08   0.04
  27   1     0.07  -0.06  -0.01    -0.03   0.21   0.06    -0.03   0.05  -0.04
  28   1    -0.03   0.08  -0.00    -0.02   0.16  -0.00     0.01   0.07   0.04
  29   1     0.03  -0.05   0.02    -0.05   0.22   0.05    -0.03   0.04  -0.04
  30   1     0.01  -0.06   0.05    -0.01  -0.07  -0.01     0.10   0.01   0.05
  31   1     0.03   0.00  -0.03     0.07  -0.04  -0.05    -0.05  -0.08  -0.09
  32   1    -0.02  -0.07   0.06    -0.01  -0.02   0.05     0.05   0.03   0.04
  33   1    -0.00   0.01  -0.02     0.06  -0.00  -0.08    -0.04  -0.06  -0.11
  34   1     0.00  -0.08   0.03    -0.02  -0.04  -0.04     0.11   0.04   0.04
                     25                     26                     27
                        a                      a                      a 
 Frequencies --   590.9172               614.9086               635.6829
 Red. masses --    11.4894                11.6305                10.7158
 Frc consts  --     0.0000                 0.0000                 0.0000
 IR Inten    --     1.0699                 0.7178                 4.5927
 Raman Activ --     0.0000                 0.0000                 0.0000
 Depolar     --     0.0000                 0.0000                 0.0000
 Atom AN      X      Y      Z        X      Y      Z        X      Y      Z
   1   7     0.00   0.00   0.00     0.00   0.01  -0.00     0.01  -0.01  -0.00
   2   6     0.02   0.01  -0.01     0.02   0.03  -0.02     0.01   0.03  -0.02
   3   6     0.08  -0.01   0.00     0.06  -0.02  -0.08    -0.05   0.03   0.01
   4   6     0.08  -0.08   0.07     0.01  -0.14  -0.09    -0.01  -0.30  -0.00
   5   6     0.20   0.07   0.07    -0.43   0.05  -0.05     0.04   0.17   0.05
   6   6     0.04  -0.02  -0.32    -0.25  -0.13   0.25     0.07  -0.19   0.01
   7   6    -0.13   0.02   0.29     0.14   0.14  -0.25    -0.05   0.15   0.02
   8   6    -0.32  -0.06  -0.11     0.28  -0.09   0.02    -0.02  -0.19  -0.04
   9   6    -0.11  -0.03  -0.10    -0.03   0.02   0.06     0.03   0.10  -0.01
  10   7     0.08   0.11   0.21     0.16   0.22   0.25     0.04   0.20  -0.12
  11   7    -0.04  -0.17  -0.28    -0.07  -0.21  -0.22    -0.22  -0.08   0.02
  12   6    -0.07  -0.02   0.01     0.03  -0.09   0.05    -0.14   0.07   0.23
  13   6    -0.15   0.18  -0.10    -0.08   0.08   0.02     0.13  -0.13  -0.21
  14   6     0.23   0.17  -0.10     0.06   0.00  -0.11    -0.18   0.16   0.16
  15   6     0.01   0.10   0.11    -0.05   0.14   0.03     0.17  -0.08  -0.23
  16   6     0.21  -0.17   0.14     0.15  -0.09   0.03    -0.10   0.12   0.27
  17   6    -0.16  -0.13   0.12     0.01   0.02   0.16     0.22  -0.16  -0.11
  18  17     0.01   0.00   0.00     0.00   0.00  -0.00     0.00  -0.00  -0.00
  19   1     0.00   0.00   0.01     0.00   0.01   0.01    -0.00   0.00   0.02
  20   1    -0.00  -0.00  -0.00    -0.00  -0.01  -0.01     0.00  -0.01  -0.00
  21   1    -0.00  -0.00   0.00    -0.01  -0.00   0.00     0.00  -0.01  -0.01
  22   1    -0.01  -0.01   0.00    -0.00   0.01   0.00     0.04   0.04  -0.04
  23   1     0.00   0.02  -0.01     0.00   0.03  -0.01     0.03  -0.03   0.02
  24   1     0.04  -0.02   0.01    -0.01   0.03  -0.05     0.03   0.00   0.01
  25   1     0.02   0.02   0.02     0.04  -0.03  -0.07    -0.01   0.04   0.02
  26   1     0.02   0.06   0.07    -0.12   0.08  -0.01     0.01   0.16   0.02
  27   1    -0.03   0.02  -0.09    -0.06   0.02   0.07     0.00   0.03   0.01
  28   1    -0.01   0.05   0.08     0.00   0.09  -0.07    -0.01   0.17   0.02
  29   1    -0.06   0.01  -0.07     0.07   0.00   0.02    -0.02   0.04   0.01
  30   1    -0.04   0.02  -0.04    -0.01   0.05   0.00     0.07  -0.03  -0.09
  31   1     0.10   0.00  -0.04     0.04  -0.02  -0.04    -0.06   0.05   0.07
  32   1    -0.08   0.00  -0.02    -0.04   0.03  -0.00     0.06  -0.05  -0.11
  33   1     0.10  -0.06  -0.00     0.05  -0.07  -0.01    -0.05   0.01   0.09
  34   1    -0.03  -0.04  -0.02     0.01   0.00   0.02     0.08  -0.06  -0.07
                     28                     29                     30
                        a                      a                      a 
 Frequencies --   672.9702               696.9806               732.5818
 Red. masses --     8.5489                10.0181                 7.5815
 Frc consts  --     0.0000                 0.0000                 0.0000
 IR Inten    --     9.8322                 7.1951                31.7209
 Raman Activ --     0.0000                 0.0000                 0.0000
 Depolar     --     0.0000                 0.0000                 0.0000
 Atom AN      X      Y      Z        X      Y      Z        X      Y      Z
   1   7     0.01  -0.00  -0.00     0.01   0.04   0.02     0.01   0.02   0.01
   2   6    -0.01   0.03  -0.02     0.09   0.08  -0.06     0.11   0.00  -0.02
   3   6    -0.07   0.03   0.02     0.29  -0.09  -0.12     0.26  -0.08  -0.07
   4   6    -0.01  -0.31  -0.01     0.07  -0.18  -0.04     0.01   0.26  -0.00
   5   6     0.09   0.18   0.05    -0.22   0.13   0.03    -0.11  -0.15   0.01
   6   6     0.10  -0.17   0.01    -0.16  -0.07   0.12    -0.07   0.00   0.14
   7   6    -0.05   0.16   0.03    -0.18   0.13   0.18    -0.15  -0.16   0.10
   8   6    -0.01  -0.17  -0.01    -0.23  -0.08   0.05    -0.20   0.02   0.01
   9   6     0.04   0.27   0.01    -0.01   0.30   0.01     0.06  -0.20  -0.02
  10   7    -0.07  -0.02  -0.22     0.17  -0.19  -0.15     0.22   0.21  -0.23
  11   7    -0.11   0.06   0.22     0.35   0.05   0.06    -0.02  -0.04   0.01
  12   6     0.19  -0.18  -0.21    -0.03   0.05  -0.02    -0.07   0.03   0.10
  13   6    -0.09   0.03   0.07    -0.01  -0.01   0.02     0.01  -0.06  -0.05
  14   6     0.08  -0.12  -0.15    -0.01  -0.01   0.06    -0.01  -0.06  -0.04
  15   6    -0.04   0.07   0.03    -0.01  -0.04   0.06     0.06  -0.01  -0.10
  16   6     0.14  -0.10  -0.14    -0.09   0.06  -0.06     0.08  -0.04  -0.02
  17   6    -0.01   0.04   0.06    -0.09   0.04  -0.05     0.10  -0.06  -0.04
  18  17     0.00   0.00  -0.00     0.00   0.00   0.00     0.01   0.00  -0.00
  19   1    -0.00   0.00   0.02     0.00   0.02   0.05    -0.02   0.01   0.02
  20   1     0.00  -0.01   0.00    -0.02  -0.02  -0.03    -0.05  -0.03  -0.08
  21   1     0.01  -0.01  -0.01    -0.02   0.00   0.03    -0.04   0.03   0.07
  22   1     0.05   0.04  -0.04    -0.05  -0.03   0.05    -0.12  -0.09   0.13
  23   1     0.03  -0.04   0.03    -0.02   0.13  -0.07    -0.07   0.16  -0.13
  24   1     0.04  -0.00   0.01     0.10  -0.01  -0.04     0.01  -0.00  -0.04
  25   1    -0.01   0.05   0.03     0.09  -0.02  -0.04     0.06  -0.09  -0.04
  26   1     0.03   0.08   0.00    -0.07  -0.09   0.03    -0.05   0.08   0.02
  27   1     0.02  -0.07   0.00    -0.07  -0.17   0.02    -0.05   0.16   0.05
  28   1    -0.01   0.09   0.01    -0.08  -0.08   0.04    -0.08   0.08   0.03
  29   1    -0.01  -0.05   0.01    -0.07  -0.17   0.03    -0.09   0.15   0.05
  30   1    -0.16   0.12   0.18     0.06  -0.07  -0.07    -0.10   0.07   0.10
  31   1    -0.09   0.07   0.11     0.06  -0.06  -0.06    -0.12   0.08   0.14
  32   1    -0.15   0.15   0.18     0.09  -0.07  -0.06    -0.14   0.14   0.16
  33   1    -0.10   0.08   0.13     0.06  -0.01  -0.10    -0.13   0.09   0.17
  34   1    -0.17   0.15   0.20     0.04  -0.05  -0.10    -0.11   0.10   0.14
                     31                     32                     33
                        a                      a                      a 
 Frequencies --   767.4562               802.1713               812.9240
 Red. masses --     8.9418                 7.4696                 6.3479
 Frc consts  --     0.0000                 0.0000                 0.0000
 IR Inten    --     2.3628                12.5967                10.4922
 Raman Activ --     0.0000                 0.0000                 0.0000
 Depolar     --     0.0000                 0.0000                 0.0000
 Atom AN      X      Y      Z        X      Y      Z        X      Y      Z
   1   7    -0.00  -0.00   0.00     0.01  -0.02  -0.03    -0.09  -0.04   0.05
   2   6     0.02  -0.02   0.00     0.05  -0.03   0.03    -0.18  -0.07   0.03
   3   6     0.04  -0.01  -0.01     0.01   0.04   0.06    -0.05   0.03  -0.08
   4   6    -0.01   0.10  -0.00    -0.02   0.14   0.01     0.13   0.15  -0.05
   5   6     0.04  -0.05  -0.01     0.01  -0.13  -0.02    -0.18  -0.07  -0.19
   6   6     0.04  -0.05   0.03     0.02  -0.15  -0.03    -0.11  -0.07  -0.18
   7   6    -0.05  -0.08   0.05     0.02  -0.14  -0.04     0.06  -0.08   0.27
   8   6    -0.04  -0.05   0.04     0.02  -0.18  -0.03     0.08  -0.06   0.18
   9   6     0.01   0.02   0.01    -0.01   0.29   0.01    -0.10   0.12   0.04
  10   7    -0.08   0.17  -0.28     0.01  -0.14   0.05     0.15  -0.02  -0.10
  11   7    -0.03   0.25   0.03    -0.09  -0.22   0.21     0.20   0.01  -0.02
  12   6     0.19  -0.25  -0.19     0.09  -0.03  -0.12    -0.04   0.03   0.05
  13   6    -0.17  -0.08   0.06     0.06   0.13   0.03    -0.01  -0.03  -0.02
  14   6    -0.23  -0.17  -0.03     0.18   0.18   0.04    -0.03  -0.04   0.00
  15   6    -0.07   0.25  -0.03    -0.05  -0.12   0.15     0.03  -0.00  -0.03
  16   6     0.16  -0.03   0.24    -0.18   0.06  -0.16     0.02   0.00  -0.01
  17   6     0.03   0.02   0.23    -0.08   0.07  -0.07    -0.00  -0.01  -0.01
  18  17     0.00   0.00   0.00     0.00   0.00  -0.00    -0.02  -0.00   0.00
  19   1    -0.00  -0.00  -0.01    -0.02   0.00   0.00     0.08  -0.08  -0.16
  20   1    -0.01  -0.00  -0.01    -0.04  -0.04  -0.08     0.16   0.21   0.30
  21   1    -0.01   0.01   0.02    -0.03   0.03   0.05     0.13  -0.07  -0.20
  22   1    -0.03  -0.03   0.03    -0.07  -0.05   0.08     0.15   0.04  -0.21
  23   1    -0.02   0.03  -0.03    -0.05   0.04  -0.08     0.12  -0.11   0.25
  24   1    -0.00  -0.00  -0.00    -0.08   0.05  -0.01     0.05  -0.06   0.02
  25   1    -0.00  -0.02   0.00    -0.00  -0.07  -0.03    -0.02   0.11   0.05
  26   1     0.01   0.09  -0.00    -0.03   0.27   0.02    -0.11   0.12   0.02
  27   1     0.01   0.11   0.02    -0.01   0.24   0.01     0.01   0.14  -0.04
  28   1    -0.04   0.11   0.02    -0.03   0.30   0.02    -0.06   0.10   0.08
  29   1    -0.02   0.13   0.03    -0.02   0.30   0.01     0.05   0.11   0.01
  30   1     0.04  -0.05  -0.08     0.05  -0.01  -0.04    -0.02  -0.00   0.01
  31   1     0.08  -0.20  -0.07     0.07   0.06  -0.09    -0.02  -0.00   0.03
  32   1     0.16  -0.09  -0.22     0.07  -0.11  -0.07    -0.03   0.04   0.05
  33   1     0.14  -0.21  -0.07     0.04   0.03  -0.13    -0.03   0.03   0.03
  34   1     0.12  -0.08  -0.11     0.01  -0.01  -0.02    -0.01   0.01   0.00
                     34                     35                     36
                        a                      a                      a 
 Frequencies --   838.6644               850.8996               862.3765
 Red. masses --     8.5173                 3.6767                 3.6862
 Frc consts  --     0.0000                 0.0000                 0.0000
 IR Inten    --    22.0756                 4.9335                 8.0975
 Raman Activ --     0.0000                 0.0000                 0.0000
 Depolar     --     0.0000                 0.0000                 0.0000
 Atom AN      X      Y      Z        X      Y      Z        X      Y      Z
   1   7     0.06  -0.07  -0.13    -0.00  -0.02  -0.01     0.01  -0.02  -0.04
   2   6     0.06  -0.03   0.11     0.00   0.00   0.01    -0.00  -0.01   0.04
   3   6    -0.14   0.16   0.23    -0.00   0.03   0.03    -0.03   0.05   0.06
   4   6     0.02  -0.08  -0.00     0.01  -0.02   0.00     0.02  -0.03  -0.01
   5   6    -0.04  -0.03  -0.14     0.02  -0.22  -0.03    -0.04   0.06  -0.05
   6   6    -0.02  -0.06  -0.25     0.02  -0.20  -0.03    -0.01   0.03  -0.06
   7   6     0.06   0.01   0.07    -0.03   0.24   0.04     0.01  -0.02   0.05
   8   6     0.13  -0.04   0.12    -0.01   0.22   0.02     0.03  -0.01   0.05
   9   6    -0.09   0.19   0.05    -0.01  -0.04   0.02    -0.02  -0.03   0.01
  10   7    -0.05  -0.15   0.09     0.06   0.05  -0.08     0.04   0.04  -0.03
  11   7     0.31   0.18  -0.19    -0.07  -0.04   0.07     0.01  -0.03  -0.00
  12   6    -0.11   0.09   0.12     0.03  -0.02  -0.03    -0.00   0.05  -0.00
  13   6    -0.02  -0.09  -0.03    -0.01   0.03   0.01    -0.10   0.07   0.13
  14   6    -0.12  -0.14  -0.01     0.02   0.04   0.01    -0.12   0.06   0.10
  15   6     0.07   0.05  -0.12    -0.03  -0.01   0.04    -0.07   0.10   0.08
  16   6     0.10  -0.03   0.06    -0.02   0.00  -0.02     0.10  -0.07  -0.07
  17   6    -0.03  -0.04   0.02     0.02  -0.00  -0.02     0.17  -0.17  -0.21
  18  17     0.01   0.00   0.00    -0.00   0.00  -0.00    -0.00   0.00   0.00
  19   1    -0.08   0.03   0.05    -0.00  -0.00  -0.00    -0.01  -0.00  -0.00
  20   1    -0.12  -0.17  -0.25    -0.00  -0.00  -0.01    -0.02  -0.03  -0.04
  21   1    -0.09   0.05   0.14     0.00  -0.00  -0.00    -0.01   0.00   0.01
  22   1    -0.09  -0.03   0.15    -0.00  -0.01  -0.00    -0.01  -0.01   0.02
  23   1    -0.09  -0.05  -0.13     0.00  -0.01   0.00    -0.01  -0.03  -0.01
  24   1    -0.16   0.16  -0.02    -0.01   0.03  -0.01    -0.04   0.05  -0.01
  25   1    -0.02  -0.10  -0.05    -0.00  -0.01  -0.01    -0.00  -0.02  -0.01
  26   1    -0.05   0.12  -0.00    -0.05   0.42   0.04    -0.01  -0.11  -0.01
  27   1     0.04   0.08  -0.06    -0.00   0.41   0.02     0.02  -0.05  -0.02
  28   1    -0.02   0.03   0.02     0.04  -0.44  -0.03    -0.02   0.04   0.02
  29   1     0.06   0.01   0.00     0.03  -0.44  -0.02     0.02   0.03   0.00
  30   1    -0.03   0.01   0.03     0.02  -0.02  -0.03     0.21  -0.16  -0.25
  31   1    -0.05  -0.03   0.08     0.03  -0.01  -0.04     0.21  -0.20  -0.23
  32   1    -0.08   0.11   0.11     0.04  -0.04  -0.05     0.13  -0.10  -0.15
  33   1    -0.04   0.02   0.09     0.00   0.00  -0.02    -0.14   0.12   0.18
  34   1     0.02  -0.02  -0.05    -0.03   0.03   0.04    -0.33   0.27   0.40
                     37                     38                     39
                        a                      a                      a 
 Frequencies --   868.8879               879.2836               894.1994
 Red. masses --     9.2906                 6.0075                 3.4905
 Frc consts  --     0.0000                 0.0000                 0.0000
 IR Inten    --     5.7506                 3.6936                 2.9937
 Raman Activ --     0.0000                 0.0000                 0.0000
 Depolar     --     0.0000                 0.0000                 0.0000
 Atom AN      X      Y      Z        X      Y      Z        X      Y      Z
   1   7    -0.01   0.09   0.15     0.15   0.13   0.24     0.01   0.01  -0.01
   2   6     0.02   0.02  -0.15     0.01  -0.04  -0.19    -0.00   0.01   0.00
   3   6     0.07  -0.17  -0.19    -0.28  -0.20  -0.27    -0.01  -0.00   0.02
   4   6    -0.08   0.09   0.05     0.00   0.03  -0.00     0.01   0.01  -0.00
   5   6     0.14  -0.16   0.18    -0.05   0.01  -0.04    -0.02   0.11  -0.02
   6   6     0.03  -0.07   0.14    -0.05  -0.02  -0.12     0.01  -0.10  -0.01
   7   6    -0.00   0.00  -0.24     0.08  -0.00   0.16    -0.02   0.15   0.05
   8   6    -0.07  -0.06  -0.17     0.15   0.00   0.11     0.02  -0.13   0.00
   9   6     0.04   0.22  -0.02    -0.06  -0.02   0.01    -0.00  -0.03  -0.00
  10   7    -0.24  -0.21   0.25     0.08   0.04  -0.06     0.02   0.04  -0.05
  11   7     0.15   0.16  -0.17     0.01  -0.04   0.03    -0.06  -0.05   0.07
  12   6    -0.06   0.09   0.06     0.00  -0.01   0.00     0.06  -0.06  -0.07
  13   6    -0.05  -0.01   0.06     0.01   0.00  -0.02    -0.10   0.10   0.11
  14   6    -0.12  -0.07   0.03     0.02   0.02  -0.00    -0.02   0.06   0.06
  15   6     0.06   0.04  -0.10    -0.02  -0.00   0.03     0.10  -0.11  -0.11
  16   6     0.12  -0.06   0.01    -0.02   0.01  -0.01     0.06  -0.06  -0.11
  17   6    -0.01  -0.06  -0.02     0.01   0.00  -0.01    -0.09   0.10   0.12
  18  17    -0.00   0.00   0.00     0.01  -0.00   0.00    -0.00   0.00  -0.00
  19   1     0.02   0.01   0.01    -0.09   0.06   0.03     0.00   0.01   0.02
  20   1     0.04   0.08   0.10    -0.11  -0.06  -0.18    -0.00  -0.02  -0.01
  21   1     0.04   0.01  -0.02    -0.06   0.23   0.30    -0.01  -0.01  -0.00
  22   1     0.01   0.02  -0.04    -0.02   0.18   0.11     0.00  -0.00  -0.00
  23   1     0.03   0.09   0.00    -0.06  -0.04  -0.14    -0.00  -0.01   0.00
  24   1     0.10  -0.17   0.04     0.15  -0.34   0.13    -0.01   0.01  -0.00
  25   1    -0.00   0.07   0.05    -0.15   0.22   0.20    -0.00  -0.01  -0.00
  26   1     0.03   0.29   0.05    -0.03  -0.04   0.02     0.03  -0.28  -0.03
  27   1    -0.07   0.07   0.04     0.00   0.05  -0.03    -0.00   0.25   0.02
  28   1     0.07   0.06  -0.06     0.02  -0.02   0.04     0.03  -0.34  -0.02
  29   1    -0.05   0.05  -0.01     0.08   0.02  -0.01    -0.01   0.31   0.02
  30   1     0.10  -0.09  -0.11    -0.02   0.02   0.02     0.22  -0.16  -0.26
  31   1     0.04  -0.09  -0.04     0.00   0.01  -0.00     0.06  -0.04  -0.07
  32   1    -0.07   0.09   0.09     0.02  -0.03  -0.03    -0.16   0.13   0.18
  33   1    -0.10   0.08   0.15     0.01  -0.01  -0.03    -0.17   0.15   0.19
  34   1    -0.04   0.02   0.03    -0.01   0.01   0.02     0.18  -0.15  -0.21
                     40                     41                     42
                        a                      a                      a 
 Frequencies --   897.0581               909.4851               915.5684
 Red. masses --     3.7125                 4.2993                 3.7451
 Frc consts  --     0.0000                 0.0000                 0.0000
 IR Inten    --     3.0173                 0.9292                 1.2365
 Raman Activ --     0.0000                 0.0000                 0.0000
 Depolar     --     0.0000                 0.0000                 0.0000
 Atom AN      X      Y      Z        X      Y      Z        X      Y      Z
   1   7     0.01  -0.04  -0.01     0.00  -0.09  -0.03    -0.00  -0.05  -0.01
   2   6     0.00  -0.02   0.03     0.00  -0.03   0.06     0.00  -0.01   0.03
   3   6    -0.02   0.04  -0.02    -0.01   0.09  -0.03    -0.00   0.05  -0.02
   4   6     0.02  -0.03  -0.02     0.02  -0.02  -0.03     0.01  -0.00  -0.01
   5   6    -0.01  -0.05  -0.02    -0.01  -0.27  -0.04    -0.00  -0.01  -0.00
   6   6    -0.00   0.09   0.00    -0.03   0.31   0.02    -0.00   0.02   0.02
   7   6     0.02  -0.21   0.03    -0.02   0.20   0.08     0.00   0.01   0.01
   8   6    -0.01   0.22   0.04     0.02  -0.19   0.02    -0.01  -0.00  -0.01
   9   6    -0.01  -0.04   0.00     0.02  -0.05  -0.02     0.00  -0.00  -0.00
  10   7     0.05   0.08  -0.08     0.03   0.05  -0.04     0.00   0.01  -0.01
  11   7    -0.08  -0.05   0.07    -0.04  -0.03   0.03    -0.02  -0.02   0.02
  12   6     0.05  -0.05  -0.06     0.01  -0.02  -0.01     0.05  -0.02  -0.07
  13   6    -0.08   0.08   0.08    -0.00   0.01  -0.00    -0.10   0.09   0.15
  14   6    -0.00   0.06   0.05     0.01   0.03   0.01    -0.00  -0.02  -0.02
  15   6     0.07  -0.10  -0.07    -0.01  -0.01   0.01     0.15  -0.11  -0.19
  16   6     0.05  -0.05  -0.10     0.01  -0.02  -0.04    -0.17   0.15   0.22
  17   6    -0.06   0.09   0.11    -0.00   0.02   0.02     0.06  -0.07  -0.08
  18  17    -0.00   0.00   0.00    -0.00  -0.00   0.00    -0.00   0.00   0.00
  19   1    -0.02  -0.02  -0.05    -0.03  -0.04  -0.11    -0.02  -0.02  -0.07
  20   1    -0.02   0.01  -0.03    -0.02   0.02  -0.04    -0.01   0.02  -0.02
  21   1    -0.00   0.05   0.04     0.00   0.07   0.05     0.00   0.04   0.03
  22   1    -0.00   0.02   0.03    -0.00   0.02   0.04    -0.00   0.02   0.02
  23   1    -0.01  -0.01  -0.01    -0.01  -0.02  -0.00    -0.01  -0.01  -0.00
  24   1     0.01   0.00   0.00     0.04   0.03  -0.01     0.02   0.01  -0.00
  25   1    -0.01   0.03   0.01    -0.02   0.04   0.02    -0.00   0.03   0.01
  26   1    -0.02   0.17   0.01    -0.06   0.45   0.04    -0.00   0.02   0.00
  27   1     0.02  -0.23  -0.02     0.02  -0.53  -0.03     0.00  -0.03   0.00
  28   1    -0.05   0.43   0.04     0.01  -0.30  -0.01     0.00  -0.01   0.00
  29   1     0.04  -0.45  -0.02    -0.01   0.29   0.02    -0.00   0.01  -0.00
  30   1     0.17  -0.13  -0.21     0.01  -0.01  -0.02     0.16  -0.12  -0.18
  31   1     0.05  -0.03  -0.06     0.01  -0.00  -0.01     0.02  -0.02  -0.03
  32   1    -0.12   0.09   0.13     0.01  -0.02  -0.02    -0.28   0.25   0.33
  33   1    -0.14   0.12   0.16    -0.04   0.04   0.05     0.33  -0.28  -0.39
  34   1     0.16  -0.13  -0.18     0.03  -0.02  -0.03    -0.15   0.13   0.18
                     43                     44                     45
                        a                      a                      a 
 Frequencies --   920.6255               935.4064               988.8979
 Red. masses --     5.7777                 3.3914                10.8401
 Frc consts  --     0.0000                 0.0000                 0.0000
 IR Inten    --    32.0157                 0.7116                 4.5479
 Raman Activ --     0.0000                 0.0000                 0.0000
 Depolar     --     0.0000                 0.0000                 0.0000
 Atom AN      X      Y      Z        X      Y      Z        X      Y      Z
   1   7     0.02   0.35   0.09    -0.00  -0.02  -0.01     0.01   0.01  -0.00
   2   6    -0.02   0.09  -0.23     0.00  -0.00   0.02    -0.03  -0.01   0.01
   3   6    -0.06  -0.31   0.19     0.01   0.02  -0.01    -0.00  -0.00   0.00
   4   6    -0.04   0.01   0.02     0.00   0.00  -0.00     0.02   0.01  -0.01
   5   6    -0.02  -0.07  -0.08     0.00   0.01   0.01    -0.03  -0.00  -0.04
   6   6     0.01   0.09  -0.14     0.00  -0.01   0.01     0.01   0.00   0.03
   7   6     0.00   0.01   0.04    -0.00  -0.00  -0.00     0.01  -0.00   0.05
   8   6     0.08  -0.02   0.10    -0.01   0.00  -0.01    -0.02   0.01  -0.03
   9   6    -0.03  -0.02   0.02     0.01  -0.01  -0.00     0.02  -0.01  -0.01
  10   7     0.05   0.04  -0.06     0.00   0.00  -0.01     0.07  -0.02   0.00
  11   7    -0.01  -0.02   0.03    -0.01   0.00   0.00    -0.10  -0.14   0.11
  12   6     0.02  -0.02  -0.02     0.02  -0.05  -0.01     0.03   0.13  -0.11
  13   6    -0.02   0.01   0.01     0.12  -0.10  -0.17     0.44  -0.02   0.35
  14   6    -0.01   0.02   0.02    -0.18   0.21   0.25    -0.13  -0.04  -0.05
  15   6     0.03  -0.03  -0.02     0.06  -0.08  -0.07     0.02   0.30  -0.21
  16   6    -0.02   0.01   0.01    -0.00  -0.02  -0.05     0.13   0.01   0.10
  17   6     0.01   0.01   0.00    -0.02   0.05   0.05    -0.45  -0.26  -0.14
  18  17     0.00   0.00  -0.00     0.00  -0.00   0.00    -0.01  -0.00  -0.01
  19   1     0.09   0.17   0.50    -0.00  -0.01  -0.03    -0.00   0.01   0.02
  20   1     0.02  -0.14   0.06    -0.00   0.01  -0.00    -0.01  -0.02  -0.02
  21   1    -0.03  -0.28  -0.18     0.00   0.02   0.01    -0.01  -0.00   0.00
  22   1    -0.00  -0.11  -0.16    -0.00   0.00   0.01     0.01   0.01  -0.01
  23   1     0.02   0.01  -0.02    -0.00   0.00   0.00     0.00  -0.03   0.01
  24   1    -0.16  -0.06   0.02     0.01   0.00  -0.00     0.00   0.00  -0.00
  25   1    -0.02  -0.20  -0.03     0.00   0.01   0.00     0.00   0.01  -0.00
  26   1    -0.03   0.13   0.00     0.00  -0.01  -0.00    -0.00   0.01  -0.02
  27   1     0.05  -0.14  -0.05    -0.00   0.01   0.00     0.02  -0.00   0.01
  28   1    -0.03   0.00   0.01     0.00  -0.00  -0.00     0.01   0.00   0.01
  29   1     0.03   0.02   0.02    -0.00  -0.00  -0.00    -0.00  -0.01  -0.01
  30   1     0.02  -0.01  -0.02    -0.28   0.21   0.32     0.11   0.06   0.13
  31   1     0.03  -0.03  -0.04     0.41  -0.35  -0.45    -0.06   0.05  -0.12
  32   1    -0.05   0.04   0.06    -0.15   0.12   0.17    -0.00   0.08  -0.07
  33   1     0.03  -0.02  -0.04     0.00  -0.01  -0.02     0.07   0.09   0.01
  34   1    -0.00   0.01   0.01     0.01  -0.00  -0.00    -0.11  -0.07  -0.13
                     46                     47                     48
                        a                      a                      a 
 Frequencies --  1008.8596              1020.0902              1037.9915
 Red. masses --     7.8381                 8.4179                 5.9990
 Frc consts  --     0.0000                 0.0000                 0.0000
 IR Inten    --     3.8359                 6.3506                 4.7433
 Raman Activ --     0.0000                 0.0000                 0.0000
 Depolar     --     0.0000                 0.0000                 0.0000
 Atom AN      X      Y      Z        X      Y      Z        X      Y      Z
   1   7     0.12   0.07  -0.13    -0.01   0.04   0.36    -0.16  -0.06  -0.12
   2   6    -0.26  -0.01   0.21     0.03  -0.25  -0.45     0.35   0.19   0.08
   3   6     0.01  -0.07  -0.06     0.01   0.19   0.22    -0.24  -0.05  -0.05
   4   6     0.16   0.11  -0.08     0.07  -0.08   0.02    -0.06  -0.08  -0.03
   5   6    -0.13  -0.02  -0.21    -0.13   0.02  -0.23    -0.10   0.01  -0.14
   6   6     0.08  -0.03   0.33     0.08   0.01   0.12     0.07  -0.01   0.13
   7   6     0.09  -0.03   0.24     0.04   0.01   0.13     0.11  -0.01   0.27
   8   6    -0.20   0.00  -0.28    -0.12   0.01  -0.16     0.01   0.02  -0.12
   9   6     0.11   0.03  -0.05     0.07   0.00  -0.01     0.05   0.01  -0.05
  10   7    -0.09  -0.05   0.08    -0.05  -0.02   0.03    -0.04  -0.02   0.05
  11   7    -0.02   0.05  -0.03    -0.02   0.02  -0.01    -0.01   0.01  -0.01
  12   6    -0.01  -0.00   0.01    -0.00   0.00  -0.00    -0.01   0.00   0.00
  13   6    -0.04   0.00  -0.04    -0.01  -0.00  -0.01     0.00  -0.00   0.00
  14   6     0.01  -0.00   0.00     0.00  -0.00   0.00     0.00   0.00  -0.00
  15   6    -0.00  -0.03   0.02    -0.00  -0.00   0.00    -0.00   0.00  -0.00
  16   6    -0.01  -0.01  -0.00     0.00  -0.00   0.00     0.00  -0.00   0.00
  17   6     0.04   0.02   0.01     0.01   0.01   0.01     0.00   0.00   0.00
  18  17     0.01   0.00  -0.00    -0.00  -0.00   0.00    -0.01   0.00   0.00
  19   1    -0.03   0.08   0.19    -0.02  -0.03  -0.11     0.06  -0.05  -0.06
  20   1    -0.06  -0.20  -0.19     0.02   0.16   0.14     0.06   0.10   0.14
  21   1    -0.07  -0.07   0.03     0.05   0.17   0.13     0.04  -0.09  -0.17
  22   1     0.09   0.11  -0.08    -0.04  -0.06  -0.04    -0.12  -0.14   0.16
  23   1     0.01  -0.27   0.14    -0.01  -0.03  -0.14    -0.02   0.35  -0.12
  24   1     0.11   0.02  -0.04    -0.30   0.01   0.07     0.05  -0.06   0.02
  25   1     0.03   0.06   0.01     0.15   0.01  -0.15    -0.32  -0.15   0.20
  26   1     0.03   0.05  -0.14     0.03   0.01  -0.16     0.03   0.01  -0.13
  27   1     0.14   0.02   0.10     0.17  -0.01   0.04     0.12   0.00   0.04
  28   1     0.16   0.03   0.08     0.09  -0.01   0.04     0.17   0.00   0.09
  29   1     0.01   0.01  -0.17    -0.00  -0.00  -0.09     0.10   0.00  -0.17
  30   1    -0.02  -0.01  -0.01    -0.01  -0.01   0.00    -0.01  -0.01   0.00
  31   1     0.01  -0.01   0.02     0.00  -0.00   0.00    -0.00   0.00  -0.00
  32   1    -0.00  -0.01   0.00    -0.00  -0.00  -0.00    -0.00  -0.00  -0.00
  33   1    -0.01  -0.01   0.00    -0.00  -0.01   0.00    -0.00  -0.00   0.00
  34   1     0.01   0.01   0.01     0.00   0.00   0.00    -0.00   0.00   0.00
                     49                     50                     51
                        a                      a                      a 
 Frequencies --  1081.0833              1084.3236              1117.3285
 Red. masses --     6.8382                 6.3191                 4.1969
 Frc consts  --     0.0000                 0.0000                 0.0000
 IR Inten    --     7.5126                 1.3005                13.6354
 Raman Activ --     0.0000                 0.0000                 0.0000
 Depolar     --     0.0000                 0.0000                 0.0000
 Atom AN      X      Y      Z        X      Y      Z        X      Y      Z
   1   7     0.00  -0.18  -0.11    -0.00  -0.00  -0.00     0.00  -0.00  -0.01
   2   6    -0.02   0.48   0.04     0.00   0.00   0.00    -0.00   0.01   0.00
   3   6     0.05  -0.39   0.21     0.00  -0.00   0.00     0.00  -0.01   0.01
   4   6    -0.01   0.01   0.12     0.00   0.00   0.00     0.00   0.00  -0.01
   5   6    -0.07  -0.01  -0.11    -0.00  -0.00  -0.00    -0.01  -0.00  -0.01
   6   6     0.04   0.01  -0.08     0.00  -0.00  -0.00    -0.00  -0.00  -0.01
   7   6    -0.02   0.00  -0.05     0.00  -0.00   0.00    -0.01  -0.00   0.02
   8   6    -0.04  -0.01  -0.03    -0.00  -0.00   0.00     0.01   0.00   0.02
   9   6     0.01  -0.00   0.05     0.00   0.00  -0.00     0.04   0.02  -0.03
  10   7     0.00   0.00  -0.01     0.00  -0.01   0.00    -0.02  -0.02   0.00
  11   7    -0.00   0.00   0.01     0.00  -0.00   0.00     0.04   0.05  -0.02
  12   6     0.01   0.01  -0.01    -0.03  -0.01  -0.01    -0.15  -0.09  -0.04
  13   6    -0.00  -0.00  -0.00     0.02   0.09  -0.05     0.10  -0.15   0.21
  14   6    -0.00  -0.00   0.00    -0.26  -0.10  -0.13     0.22   0.16   0.06
  15   6     0.00   0.00  -0.00    -0.07  -0.37   0.22    -0.14   0.04  -0.15
  16   6    -0.00  -0.00  -0.00     0.30   0.02   0.23     0.02  -0.07   0.06
  17   6     0.00   0.00   0.00     0.06   0.17  -0.08     0.12   0.16  -0.03
  18  17    -0.00  -0.00   0.00    -0.00  -0.00  -0.00     0.00   0.00   0.00
  19   1    -0.04  -0.07  -0.20     0.00  -0.00  -0.00    -0.00   0.00   0.01
  20   1    -0.02   0.05  -0.06     0.00   0.00   0.00    -0.00   0.00  -0.00
  21   1     0.02   0.10   0.05    -0.00   0.00   0.00    -0.00   0.00   0.00
  22   1     0.12   0.36   0.01     0.00   0.00   0.00     0.00   0.01   0.00
  23   1     0.05   0.11   0.08     0.00   0.00   0.00    -0.00  -0.01  -0.00
  24   1    -0.29  -0.23   0.13    -0.00  -0.00   0.00    -0.00   0.00   0.00
  25   1     0.20  -0.02  -0.12     0.00   0.00  -0.00     0.00  -0.00  -0.00
  26   1    -0.02   0.01  -0.04     0.00   0.00  -0.00    -0.00  -0.00   0.00
  27   1     0.17   0.00  -0.01    -0.00  -0.00  -0.00    -0.03   0.00  -0.00
  28   1     0.07   0.01  -0.01     0.00  -0.00   0.00    -0.03  -0.00   0.00
  29   1    -0.05   0.00   0.05    -0.00   0.00   0.00    -0.01  -0.00   0.03
  30   1    -0.00  -0.01   0.00     0.08   0.18  -0.04    -0.14  -0.40   0.13
  31   1     0.00  -0.01   0.00    -0.20   0.19  -0.34     0.00   0.16  -0.12
  32   1     0.00   0.00  -0.00    -0.07  -0.12   0.04    -0.32  -0.08  -0.21
  33   1    -0.00  -0.00   0.00     0.19   0.19   0.02    -0.18  -0.35   0.11
  34   1     0.00  -0.01   0.00    -0.13   0.29  -0.30    -0.11   0.28  -0.26
                     52                     53                     54
                        a                      a                      a 
 Frequencies --  1133.4487              1172.1854              1176.0337
 Red. masses --     3.0746                 5.6880                 1.7290
 Frc consts  --     0.0000                 0.0000                 0.0000
 IR Inten    --     3.8604                14.6847                 5.3100
 Raman Activ --     0.0000                 0.0000                 0.0000
 Depolar     --     0.0000                 0.0000                 0.0000
 Atom AN      X      Y      Z        X      Y      Z        X      Y      Z
   1   7    -0.02   0.04  -0.01    -0.01   0.00  -0.01    -0.01   0.00  -0.01
   2   6     0.04  -0.10   0.04     0.02   0.01   0.00     0.01   0.00   0.00
   3   6    -0.03   0.08  -0.11    -0.03   0.00   0.01    -0.01  -0.00   0.00
   4   6     0.04  -0.01   0.13     0.08   0.00  -0.03     0.03   0.00  -0.01
   5   6    -0.13  -0.00   0.01    -0.10   0.00  -0.14    -0.03   0.00  -0.04
   6   6     0.04   0.03  -0.14    -0.01  -0.01  -0.09    -0.00  -0.00  -0.03
   7   6     0.06   0.02  -0.17     0.05  -0.01   0.11     0.02  -0.00   0.03
   8   6    -0.14  -0.01  -0.07     0.01   0.01   0.08     0.00   0.00   0.02
   9   6    -0.01  -0.02   0.17     0.42   0.02  -0.16     0.12   0.01  -0.05
  10   7     0.03   0.01  -0.04    -0.11  -0.06   0.12    -0.05  -0.00   0.03
  11   7     0.01  -0.01   0.02    -0.12  -0.05   0.04    -0.03   0.01  -0.01
  12   6     0.01   0.02  -0.02     0.01   0.21  -0.14    -0.05  -0.03  -0.03
  13   6    -0.01  -0.01  -0.00    -0.04  -0.03  -0.02    -0.02   0.06  -0.06
  14   6    -0.00  -0.00   0.00    -0.07  -0.04  -0.03    -0.02   0.02  -0.02
  15   6    -0.00  -0.00  -0.00    -0.02  -0.03   0.00     0.09   0.04   0.04
  16   6     0.01  -0.00   0.01     0.09   0.00   0.07    -0.03  -0.01  -0.01
  17   6     0.01   0.01   0.00     0.05   0.07   0.01    -0.00  -0.10   0.07
  18  17     0.00   0.00  -0.00     0.00   0.00   0.00     0.00   0.00   0.00
  19   1     0.02   0.02   0.04    -0.00   0.00   0.01    -0.00   0.00   0.01
  20   1     0.01  -0.02   0.02     0.00   0.01   0.02     0.00   0.00   0.01
  21   1    -0.01  -0.05  -0.03    -0.00  -0.01  -0.01    -0.00  -0.00  -0.00
  22   1    -0.03  -0.06   0.03    -0.00   0.02   0.02    -0.00   0.01   0.01
  23   1    -0.01  -0.00  -0.02    -0.01  -0.03  -0.03    -0.01  -0.02  -0.01
  24   1     0.07   0.01  -0.02    -0.03  -0.02   0.01    -0.01  -0.01   0.01
  25   1    -0.04   0.05   0.03    -0.03  -0.02   0.02    -0.00  -0.00   0.00
  26   1    -0.28  -0.07   0.35    -0.04  -0.01  -0.02    -0.01  -0.00  -0.01
  27   1     0.52   0.01   0.00    -0.41  -0.00  -0.07    -0.12  -0.00  -0.02
  28   1     0.42   0.04  -0.01     0.14   0.01   0.04     0.04   0.00   0.01
  29   1    -0.24  -0.02   0.27    -0.25  -0.06   0.40    -0.08  -0.02   0.12
  30   1    -0.02  -0.03   0.01    -0.08  -0.11   0.02    -0.09  -0.15   0.02
  31   1    -0.00   0.00  -0.00    -0.00  -0.05   0.03    -0.16   0.28  -0.36
  32   1    -0.01  -0.00  -0.01    -0.17  -0.06  -0.10     0.58   0.19   0.35
  33   1    -0.01  -0.02   0.01     0.10   0.13  -0.01    -0.17  -0.30   0.08
  34   1     0.00   0.01  -0.01     0.12  -0.14   0.18    -0.02  -0.01  -0.01
                     55                     56                     57
                        a                      a                      a 
 Frequencies --  1181.4196              1193.3184              1202.4252
 Red. masses --     3.7919                 4.2136                 4.0044
 Frc consts  --     0.0000                 0.0000                 0.0000
 IR Inten    --    18.4264                 6.2857                16.2409
 Raman Activ --     0.0000                 0.0000                 0.0000
 Depolar     --     0.0000                 0.0000                 0.0000
 Atom AN      X      Y      Z        X      Y      Z        X      Y      Z
   1   7     0.01  -0.01  -0.00     0.12  -0.12   0.14     0.02  -0.00  -0.00
   2   6    -0.01   0.01  -0.01    -0.21   0.21  -0.28    -0.02  -0.03   0.00
   3   6     0.01  -0.01   0.00     0.05  -0.15   0.16     0.09   0.01  -0.04
   4   6    -0.01   0.00  -0.00    -0.06   0.04  -0.09    -0.23  -0.01   0.10
   5   6     0.03  -0.00   0.08    -0.01  -0.00   0.05     0.07   0.00  -0.03
   6   6     0.02   0.00   0.04     0.04  -0.00   0.00    -0.09  -0.00  -0.05
   7   6    -0.04   0.00  -0.05     0.04  -0.01   0.04     0.04   0.00  -0.02
   8   6     0.01  -0.00  -0.05    -0.00  -0.00   0.03    -0.01  -0.02   0.11
   9   6    -0.14   0.01   0.05     0.01   0.00  -0.01    -0.30  -0.02   0.15
  10   7     0.08  -0.04   0.01    -0.00  -0.00   0.00     0.09   0.05  -0.09
  11   7     0.01  -0.12   0.07    -0.01  -0.00   0.00     0.09   0.00  -0.01
  12   6    -0.03   0.27  -0.19    -0.00   0.01  -0.01    -0.02  -0.09   0.05
  13   6    -0.09  -0.09  -0.03     0.00   0.01  -0.00    -0.02  -0.06   0.03
  14   6    -0.09  -0.02  -0.06    -0.00  -0.00   0.00     0.02   0.04  -0.01
  15   6    -0.01   0.00  -0.01     0.00  -0.00   0.00    -0.00   0.02  -0.02
  16   6     0.14   0.04   0.09     0.00  -0.00   0.00     0.00   0.04  -0.03
  17   6     0.09   0.06   0.05    -0.00   0.00  -0.00     0.01  -0.02   0.02
  18  17     0.00   0.00   0.00     0.00  -0.00   0.00     0.00   0.00   0.00
  19   1    -0.01   0.00   0.01    -0.07  -0.04  -0.14    -0.01   0.01   0.02
  20   1    -0.00   0.01  -0.00    -0.04   0.06  -0.09    -0.00  -0.01  -0.02
  21   1    -0.00   0.01   0.01     0.02   0.17   0.17    -0.00   0.00   0.01
  22   1     0.00   0.00  -0.00     0.04  -0.02  -0.25     0.01  -0.03  -0.03
  23   1    -0.00  -0.01  -0.00     0.05   0.03   0.07     0.01   0.04   0.03
  24   1     0.01   0.01  -0.01     0.27   0.37  -0.22     0.11   0.05  -0.04
  25   1     0.00  -0.00   0.00    -0.27  -0.39   0.14     0.08   0.04  -0.06
  26   1    -0.04  -0.01   0.09    -0.07  -0.02   0.12     0.31   0.07  -0.43
  27   1     0.20   0.00   0.03     0.00   0.01   0.00    -0.13  -0.02  -0.02
  28   1    -0.20  -0.01  -0.03     0.13   0.02   0.02     0.54   0.05   0.04
  29   1     0.15   0.03  -0.23     0.01   0.00  -0.01    -0.04   0.00   0.08
  30   1    -0.24  -0.41   0.09     0.00   0.01  -0.00    -0.04  -0.11   0.02
  31   1    -0.13   0.17  -0.24     0.00  -0.00   0.00    -0.05   0.11  -0.12
  32   1    -0.06  -0.02  -0.03     0.01   0.00   0.01    -0.04  -0.01  -0.03
  33   1     0.12   0.15  -0.01    -0.01  -0.02   0.00     0.07   0.13  -0.04
  34   1     0.20  -0.25   0.32    -0.00   0.00  -0.01     0.04  -0.07   0.09
                     58                     59                     60
                        a                      a                      a 
 Frequencies --  1207.8330              1225.3067              1250.6223
 Red. masses --     7.6972                 3.2726                 8.4264
 Frc consts  --     0.0000                 0.0000                 0.0000
 IR Inten    --     5.7622                11.8911                 5.2185
 Raman Activ --     0.0000                 0.0000                 0.0000
 Depolar     --     0.0000                 0.0000                 0.0000
 Atom AN      X      Y      Z        X      Y      Z        X      Y      Z
   1   7    -0.01  -0.00   0.00     0.22  -0.03   0.00    -0.05   0.02  -0.02
   2   6     0.01   0.02  -0.01    -0.16  -0.00   0.09     0.04  -0.08  -0.02
   3   6    -0.03  -0.01   0.02     0.03   0.11  -0.12     0.17  -0.06  -0.05
   4   6     0.08   0.00  -0.04    -0.13  -0.06   0.10    -0.48  -0.01   0.21
   5   6    -0.02   0.00  -0.01    -0.09  -0.00  -0.01    -0.22  -0.02   0.05
   6   6     0.03  -0.00   0.01     0.02   0.01  -0.07     0.08   0.01  -0.19
   7   6    -0.01  -0.00   0.02    -0.03  -0.01   0.06    -0.13  -0.03   0.16
   8   6    -0.00   0.01  -0.02     0.08   0.01   0.00     0.20   0.02   0.08
   9   6     0.14   0.01  -0.07     0.14   0.01  -0.08     0.32   0.02  -0.20
  10   7    -0.12   0.06  -0.02    -0.05  -0.01   0.04    -0.10  -0.02   0.08
  11   7     0.05   0.21  -0.13    -0.03   0.01  -0.01    -0.07   0.03  -0.01
  12   6    -0.04  -0.50   0.31    -0.01  -0.01  -0.00    -0.02  -0.02  -0.00
  13   6     0.00  -0.10   0.11    -0.00  -0.00   0.00     0.01   0.01   0.01
  14   6     0.11   0.13  -0.01     0.00   0.00  -0.00     0.00   0.00   0.00
  15   6     0.00   0.07  -0.05     0.00   0.00   0.00     0.00  -0.00   0.00
  16   6    -0.08   0.11  -0.15     0.00   0.00   0.00     0.00  -0.00   0.00
  17   6    -0.01  -0.14   0.06     0.00   0.00   0.00     0.00   0.00  -0.00
  18  17    -0.00   0.00   0.00     0.01   0.00  -0.00    -0.00   0.00   0.00
  19   1     0.00  -0.00  -0.01    -0.05   0.01  -0.04     0.01   0.01   0.04
  20   1     0.00   0.01   0.01    -0.05  -0.10  -0.19     0.02   0.02   0.05
  21   1     0.00   0.00  -0.00    -0.02   0.05   0.13    -0.00  -0.02  -0.03
  22   1     0.00   0.02   0.01    -0.04  -0.47  -0.30     0.03   0.15   0.09
  23   1    -0.01  -0.02  -0.02     0.13   0.45   0.33    -0.02  -0.06  -0.06
  24   1    -0.03  -0.01   0.01    -0.14  -0.17   0.10     0.26   0.17  -0.13
  25   1    -0.03  -0.02   0.02     0.03   0.09  -0.01     0.20   0.11  -0.12
  26   1    -0.10  -0.02   0.13    -0.01  -0.00  -0.03    -0.02   0.01  -0.06
  27   1     0.01   0.01   0.00     0.09   0.01  -0.01     0.23   0.03  -0.04
  28   1    -0.12  -0.01  -0.01    -0.07  -0.01   0.01    -0.03  -0.00   0.05
  29   1    -0.04  -0.01   0.05     0.02  -0.01   0.00     0.15   0.00  -0.10
  30   1     0.02  -0.06   0.01     0.01   0.00  -0.00     0.03   0.04  -0.01
  31   1    -0.07   0.22  -0.24    -0.01   0.01  -0.01     0.00  -0.00   0.00
  32   1    -0.07   0.00  -0.06     0.00   0.00   0.00     0.00   0.00   0.00
  33   1     0.18   0.40  -0.14     0.00  -0.00   0.00    -0.00  -0.01   0.00
  34   1     0.01  -0.09   0.11     0.01  -0.01   0.02     0.01  -0.01   0.01
                     61                     62                     63
                        a                      a                      a 
 Frequencies --  1274.0594              1277.3746              1327.9995
 Red. masses --     3.3816                 3.3879                 3.9208
 Frc consts  --     0.0000                 0.0000                 0.0000
 IR Inten    --     1.4272                10.9297                18.4067
 Raman Activ --     0.0000                 0.0000                 0.0000
 Depolar     --     0.0000                 0.0000                 0.0000
 Atom AN      X      Y      Z        X      Y      Z        X      Y      Z
   1   7    -0.01  -0.02   0.02     0.01  -0.01  -0.01    -0.04  -0.03   0.17
   2   6     0.01   0.05  -0.02    -0.00  -0.01  -0.00     0.07   0.39   0.11
   3   6    -0.06  -0.03  -0.01     0.01  -0.00  -0.00     0.12   0.03  -0.14
   4   6     0.13   0.01   0.12    -0.02  -0.00   0.01    -0.08  -0.02   0.06
   5   6    -0.03  -0.02   0.14    -0.02  -0.00   0.00    -0.02  -0.00   0.01
   6   6    -0.13  -0.01   0.02     0.00   0.00  -0.01    -0.02   0.00  -0.05
   7   6     0.17   0.01   0.04     0.00  -0.00   0.01    -0.07  -0.01  -0.00
   8   6     0.05   0.01  -0.07     0.01   0.00  -0.00     0.04   0.00   0.01
   9   6    -0.15   0.02  -0.27     0.02  -0.00  -0.01     0.06   0.00   0.02
  10   7     0.00  -0.00   0.04    -0.01   0.02   0.01    -0.01   0.00   0.00
  11   7     0.01  -0.01  -0.01    -0.04  -0.03  -0.00    -0.01  -0.00   0.00
  12   6    -0.01   0.00  -0.01     0.24   0.09   0.13     0.01   0.00   0.00
  13   6     0.01   0.01  -0.00     0.04   0.15  -0.07    -0.00  -0.00  -0.00
  14   6    -0.00  -0.00   0.00    -0.08   0.04  -0.10    -0.00   0.00  -0.00
  15   6    -0.00  -0.00   0.00    -0.14  -0.04  -0.09     0.00   0.00  -0.00
  16   6     0.01   0.00   0.00    -0.08  -0.08  -0.01    -0.00  -0.00  -0.00
  17   6     0.00   0.00   0.00     0.04  -0.14   0.13    -0.00  -0.00   0.00
  18  17    -0.00  -0.00   0.00     0.00   0.00   0.00     0.00  -0.00   0.00
  19   1    -0.00  -0.00  -0.00    -0.01   0.01   0.02     0.03  -0.07  -0.17
  20   1    -0.01   0.02  -0.01     0.00   0.01   0.00    -0.09  -0.00  -0.08
  21   1     0.02   0.01  -0.01    -0.01   0.01   0.01     0.09  -0.00  -0.08
  22   1    -0.01  -0.03  -0.02     0.00  -0.00  -0.00    -0.10  -0.43  -0.18
  23   1    -0.01  -0.05  -0.03     0.00   0.02   0.01    -0.11  -0.58  -0.24
  24   1     0.10   0.06  -0.04     0.01   0.01  -0.01    -0.07  -0.16   0.07
  25   1    -0.07  -0.03   0.05     0.01   0.01  -0.00    -0.03  -0.04   0.01
  26   1     0.27   0.06  -0.35     0.01  -0.00  -0.02     0.01   0.00  -0.02
  27   1     0.39   0.02   0.05    -0.00  -0.00  -0.00     0.02  -0.00  -0.01
  28   1    -0.39  -0.03  -0.03    -0.01   0.00   0.00     0.05   0.01   0.01
  29   1    -0.28  -0.04   0.41    -0.00  -0.00   0.01     0.05   0.00  -0.05
  30   1     0.00   0.01  -0.00    -0.25  -0.47   0.09    -0.00  -0.01   0.00
  31   1     0.00  -0.00   0.00     0.09  -0.19   0.23     0.00  -0.00   0.01
  32   1     0.00   0.00   0.00     0.21   0.07   0.13     0.00   0.00   0.00
  33   1    -0.00  -0.00   0.00     0.17   0.33  -0.10     0.00   0.01  -0.00
  34   1     0.01  -0.01   0.01    -0.16   0.24  -0.31    -0.00   0.01  -0.01
                     64                     65                     66
                        a                      a                      a 
 Frequencies --  1330.0379              1339.5658              1348.3046
 Red. masses --     6.2522                11.3119                10.8800
 Frc consts  --     0.0000                 0.0000                 0.0000
 IR Inten    --    13.8962                 0.8847                 0.7188
 Raman Activ --     0.0000                 0.0000                 0.0000
 Depolar     --     0.0000                 0.0000                 0.0000
 Atom AN      X      Y      Z        X      Y      Z        X      Y      Z
   1   7    -0.01   0.05  -0.03    -0.00   0.02  -0.00    -0.00   0.02  -0.01
   2   6    -0.14  -0.11   0.01    -0.05  -0.04  -0.01    -0.05  -0.06  -0.02
   3   6     0.38   0.27  -0.13     0.11   0.08  -0.05     0.11   0.08  -0.07
   4   6    -0.18  -0.07  -0.13     0.01  -0.03   0.12     0.12  -0.03   0.36
   5   6    -0.08  -0.02   0.17     0.03   0.01  -0.05     0.18   0.04  -0.25
   6   6     0.11   0.01  -0.01    -0.10  -0.00  -0.03    -0.37  -0.02  -0.05
   7   6     0.09   0.01   0.03    -0.09  -0.01   0.00    -0.34  -0.04  -0.01
   8   6    -0.03  -0.01   0.16     0.07   0.02  -0.09     0.23   0.03  -0.29
   9   6    -0.05   0.01  -0.20     0.07  -0.01   0.07     0.18  -0.01   0.30
  10   7    -0.01  -0.00   0.01    -0.00   0.01   0.01    -0.02   0.00  -0.01
  11   7     0.00  -0.01  -0.00    -0.02   0.01  -0.01     0.01  -0.00   0.02
  12   6    -0.07  -0.01  -0.04     0.34   0.09   0.21    -0.12  -0.04  -0.08
  13   6     0.04   0.06  -0.01    -0.19  -0.33   0.08     0.06   0.12  -0.03
  14   6     0.02  -0.03   0.04    -0.12   0.21  -0.26     0.05  -0.08   0.10
  15   6    -0.06  -0.02  -0.03     0.32   0.11   0.18    -0.11  -0.04  -0.07
  16   6     0.03   0.05  -0.01    -0.18  -0.30   0.07     0.06   0.11  -0.03
  17   6     0.03  -0.04   0.05    -0.13   0.21  -0.26     0.05  -0.08   0.10
  18  17     0.00  -0.00  -0.00     0.00   0.00   0.00    -0.00   0.00  -0.00
  19   1     0.02   0.01   0.00     0.01  -0.00  -0.00     0.01   0.00   0.00
  20   1     0.01  -0.06   0.01     0.00  -0.02   0.00     0.00  -0.02   0.00
  21   1    -0.03  -0.03  -0.00    -0.01  -0.01  -0.00    -0.01  -0.01   0.00
  22   1     0.07   0.27   0.07     0.03   0.10   0.02     0.03   0.12   0.02
  23   1    -0.00  -0.06   0.04     0.00  -0.00   0.02     0.00   0.01   0.02
  24   1    -0.29  -0.26   0.16    -0.04  -0.05   0.03     0.02  -0.01   0.01
  25   1    -0.29  -0.36   0.14    -0.12  -0.13   0.07    -0.19  -0.17   0.11
  26   1     0.03  -0.00  -0.02     0.03   0.00  -0.04     0.05   0.01  -0.06
  27   1     0.09   0.01   0.00     0.02  -0.00  -0.00     0.03  -0.01  -0.00
  28   1     0.07  -0.01   0.01    -0.03  -0.00   0.00    -0.05  -0.00   0.00
  29   1     0.02  -0.00   0.00     0.00  -0.00   0.01     0.01   0.00  -0.00
  30   1     0.00   0.00   0.00    -0.01  -0.02   0.00     0.00   0.01  -0.00
  31   1     0.01  -0.01   0.01    -0.02   0.03  -0.03     0.00  -0.01   0.01
  32   1     0.01   0.00   0.01    -0.02  -0.00  -0.01     0.00  -0.00   0.00
  33   1     0.00   0.01  -0.00    -0.01  -0.02   0.00     0.00   0.01  -0.00
  34   1     0.00  -0.00   0.01    -0.00   0.01  -0.04    -0.00  -0.00   0.01
                     67                     68                     69
                        a                      a                      a 
 Frequencies --  1373.9821              1409.1051              1412.6641
 Red. masses --     2.8066                 4.3753                 6.9777
 Frc consts  --     0.0000                 0.0000                 0.0000
 IR Inten    --   177.7464                39.5512                19.4400
 Raman Activ --     0.0000                 0.0000                 0.0000
 Depolar     --     0.0000                 0.0000                 0.0000
 Atom AN      X      Y      Z        X      Y      Z        X      Y      Z
   1   7    -0.11   0.22   0.25    -0.02   0.07  -0.14    -0.02   0.06  -0.09
   2   6    -0.01  -0.09  -0.03     0.01   0.09  -0.01    -0.01   0.05  -0.02
   3   6    -0.04  -0.02   0.05    -0.01  -0.02   0.04    -0.01   0.01  -0.06
   4   6     0.01   0.01  -0.03    -0.07   0.01  -0.17     0.09  -0.01   0.25
   5   6     0.01  -0.00  -0.01     0.21   0.02  -0.05    -0.30  -0.03   0.07
   6   6    -0.00  -0.00   0.02    -0.15  -0.02   0.15     0.21   0.03  -0.21
   7   6     0.01  -0.00   0.02    -0.17  -0.02   0.12     0.24   0.03  -0.16
   8   6     0.01   0.00  -0.01     0.19   0.02  -0.00    -0.26  -0.02  -0.01
   9   6    -0.02   0.00  -0.02    -0.09   0.02  -0.20     0.12  -0.02   0.28
  10   7     0.00  -0.01   0.00     0.00  -0.00   0.03     0.00   0.00  -0.04
  11   7    -0.00   0.00  -0.00     0.01  -0.01  -0.01    -0.02   0.01   0.01
  12   6    -0.01   0.00  -0.01    -0.02  -0.01  -0.01     0.05   0.02   0.01
  13   6     0.00  -0.00   0.00     0.02  -0.00   0.02    -0.03   0.01  -0.03
  14   6     0.00   0.01  -0.00    -0.01   0.03  -0.03     0.01  -0.06   0.06
  15   6    -0.01  -0.00  -0.01    -0.01  -0.01  -0.00     0.02   0.02   0.00
  16   6     0.00  -0.01   0.01     0.00  -0.03   0.02    -0.01   0.05  -0.04
  17   6     0.01   0.00   0.01     0.00   0.03  -0.02    -0.01  -0.05   0.03
  18  17     0.01   0.00  -0.00    -0.00   0.00  -0.01    -0.00   0.00  -0.00
  19   1     0.39  -0.19  -0.43     0.15  -0.06  -0.13     0.14  -0.05  -0.10
  20   1    -0.19  -0.50  -0.24     0.25  -0.35   0.40     0.17  -0.28   0.27
  21   1     0.15  -0.11  -0.26    -0.30   0.02   0.36    -0.20   0.02   0.25
  22   1     0.05   0.11   0.01    -0.04  -0.09  -0.02    -0.02  -0.03  -0.01
  23   1    -0.00   0.14   0.01     0.00  -0.07  -0.01     0.01  -0.04   0.00
  24   1     0.04   0.05  -0.02    -0.02  -0.02   0.02     0.08   0.01  -0.02
  25   1     0.03   0.02  -0.02     0.07   0.02  -0.05    -0.08  -0.06   0.05
  26   1    -0.00  -0.00   0.01    -0.03  -0.00   0.12     0.06   0.02  -0.18
  27   1    -0.01  -0.00   0.00     0.10   0.00   0.06    -0.13  -0.01  -0.08
  28   1    -0.00   0.00   0.01     0.12   0.01   0.05    -0.18  -0.01  -0.07
  29   1    -0.01  -0.00   0.02    -0.01  -0.01   0.10     0.01   0.01  -0.13
  30   1    -0.01  -0.02   0.00     0.00  -0.00   0.00    -0.01   0.01  -0.01
  31   1     0.00   0.00   0.00     0.01  -0.01   0.02    -0.02   0.03  -0.04
  32   1     0.01   0.00   0.01     0.02   0.01   0.02    -0.05  -0.01  -0.03
  33   1     0.01   0.01  -0.00     0.01   0.01   0.00    -0.02  -0.01  -0.00
  34   1     0.00   0.00  -0.00     0.01  -0.01   0.02    -0.02   0.01  -0.03
                     70                     71                     72
                        a                      a                      a 
 Frequencies --  1433.5884              1448.6254              1450.9987
 Red. masses --     9.0621                 2.2073                 8.8175
 Frc consts  --     0.0000                 0.0000                 0.0000
 IR Inten    --     3.4413                91.9215                12.7078
 Raman Activ --     0.0000                 0.0000                 0.0000
 Depolar     --     0.0000                 0.0000                 0.0000
[...]
  34   1    -0.00  -0.03   0.02     0.00  -0.02   0.01     0.00   0.06  -0.04
                     79                     80                     81
                        a                      a                      a 
 Frequencies --  1596.6058              1605.3903              2911.2163
 Red. masses --    11.5458                11.8002                 1.9472
 Frc consts  --     0.0000                 0.0000                 0.0000
 IR Inten    --     1.6369                36.5234              1048.6474
 Raman Activ --     0.0000                 0.0000                 0.0000
 Depolar     --     0.0000                 0.0000                 0.0000
 Atom AN      X      Y      Z        X      Y      Z        X      Y      Z
   1   7    -0.00   0.00   0.00     0.00   0.00   0.00     0.22   0.00  -0.12
   2   6     0.00   0.01  -0.00    -0.00  -0.01   0.00    -0.08  -0.00   0.03
   3   6     0.03  -0.00  -0.01    -0.03   0.00   0.01     0.00  -0.00   0.01
   4   6    -0.19  -0.02   0.06     0.21   0.02  -0.09    -0.00  -0.00   0.00
   5   6     0.22   0.03  -0.19    -0.26  -0.04   0.23     0.00  -0.00   0.00
   6   6    -0.26  -0.03   0.04     0.32   0.03  -0.06     0.00   0.00  -0.00
   7   6     0.32   0.03  -0.02    -0.36  -0.03   0.04     0.00   0.00  -0.00
   8   6    -0.21  -0.02   0.14     0.25   0.04  -0.20     0.00  -0.00   0.00
   9   6     0.11   0.00  -0.01    -0.12  -0.01   0.04    -0.00   0.00   0.00
  10   7    -0.05   0.06  -0.03    -0.19   0.13  -0.03     0.00  -0.00  -0.00
  11   7     0.03  -0.06   0.03     0.17  -0.15   0.05    -0.00   0.00  -0.00
  12   6     0.06  -0.10   0.11    -0.02  -0.09   0.05     0.00  -0.00   0.00
  13   6     0.05   0.26  -0.15     0.08   0.23  -0.10     0.00  -0.00   0.00
  14   6     0.10  -0.26   0.28     0.04  -0.20   0.18    -0.00  -0.00  -0.00
  15   6    -0.06   0.12  -0.14     0.02   0.11  -0.06     0.00   0.00  -0.00
  16   6    -0.07  -0.29   0.15    -0.09  -0.25   0.11    -0.00   0.00  -0.00
  17   6    -0.08   0.26  -0.26    -0.03   0.20  -0.18    -0.00  -0.00  -0.00
  18  17    -0.00   0.00   0.00    -0.00   0.00  -0.00    -0.01   0.00   0.01
  19   1     0.00  -0.00  -0.00     0.00   0.00   0.00     0.01  -0.04   0.00
  20   1    -0.00  -0.00  -0.00    -0.00   0.00  -0.00    -0.78   0.00   0.46
  21   1     0.00   0.00  -0.00     0.00  -0.00  -0.00    -0.01   0.02  -0.03
  22   1    -0.00  -0.00   0.00     0.00   0.00  -0.00     0.03  -0.03   0.04
  23   1     0.00  -0.01   0.00    -0.00   0.01  -0.00     0.26   0.02  -0.16
  24   1     0.01   0.00  -0.00    -0.01  -0.01   0.00     0.00  -0.01  -0.01
  25   1     0.01   0.00  -0.00    -0.01  -0.00   0.00    -0.02   0.01  -0.02
  26   1    -0.03  -0.01   0.07     0.03   0.01  -0.07    -0.00  -0.00  -0.00
  27   1     0.04   0.00   0.02    -0.06  -0.00  -0.03     0.00   0.00   0.00
  28   1    -0.08  -0.01  -0.02     0.08   0.00   0.02    -0.00  -0.00   0.01
  29   1     0.00  -0.00  -0.05    -0.01  -0.01   0.07    -0.00   0.00  -0.00
  30   1    -0.04  -0.04  -0.02    -0.04  -0.04  -0.00    -0.01   0.01  -0.01
  31   1    -0.04   0.04  -0.07    -0.03   0.02  -0.04     0.00   0.00   0.00
  32   1     0.02   0.04  -0.01     0.00   0.03  -0.02    -0.00  -0.00   0.00
  33   1     0.05   0.06   0.00     0.04   0.05  -0.00     0.00  -0.00   0.00
  34   1     0.04  -0.03   0.06     0.03  -0.02   0.04     0.00   0.00   0.00
                     82                     83                     84
                        a                      a                      a 
 Frequencies --  2939.0466              2939.8805              2965.4940
 Red. masses --     1.8979                 1.9363                 1.5115
 Frc consts  --     0.0000                 0.0000                 0.0000
 IR Inten    --    19.1118                22.6179                26.3295
 Raman Activ --     0.0000                 0.0000                 0.0000
 Depolar     --     0.0000                 0.0000                 0.0000
 Atom AN      X      Y      Z        X      Y      Z        X      Y      Z
   1   7     0.05  -0.00  -0.03    -0.06   0.00   0.03    -0.01  -0.00   0.01
   2   6     0.17  -0.01  -0.06    -0.19   0.02   0.05    -0.02  -0.01   0.04
   3   6     0.07   0.06   0.19     0.08   0.02   0.18    -0.14   0.16   0.01
   4   6    -0.00   0.00   0.01     0.00  -0.00   0.01    -0.01   0.00   0.00
   5   6    -0.00   0.00  -0.00    -0.00   0.00  -0.00     0.00   0.00   0.00
   6   6     0.00  -0.00  -0.00     0.00  -0.00   0.00    -0.00  -0.00  -0.00
   7   6     0.00  -0.00  -0.00     0.00  -0.00  -0.00     0.00   0.00  -0.00
   8   6    -0.00  -0.00   0.00    -0.00   0.00   0.00     0.00  -0.00   0.00
   9   6    -0.00   0.00  -0.00     0.00  -0.00  -0.00     0.00   0.00  -0.00
  10   7     0.00   0.00  -0.00    -0.00  -0.00   0.00    -0.00  -0.00   0.00
  11   7    -0.00  -0.00  -0.00     0.00  -0.00   0.00    -0.00   0.00   0.00
  12   6    -0.00  -0.00   0.00    -0.00   0.00  -0.00    -0.00  -0.00  -0.00
  13   6     0.00  -0.00   0.00    -0.00   0.00  -0.00    -0.00   0.00  -0.00
  14   6    -0.00  -0.00  -0.00     0.00   0.00   0.00     0.00   0.00  -0.00
  15   6     0.00   0.00  -0.00    -0.00  -0.00   0.00     0.00   0.00  -0.00
  16   6    -0.00   0.00  -0.00     0.00   0.00   0.00    -0.00   0.00  -0.00
  17   6    -0.00  -0.00  -0.00     0.00   0.00   0.00    -0.00  -0.00  -0.00
  18  17    -0.00   0.00   0.00     0.00  -0.00  -0.00     0.00  -0.00  -0.00
  19   1     0.00  -0.01  -0.00    -0.00   0.01  -0.00     0.00   0.01  -0.00
  20   1    -0.17  -0.00   0.10     0.20  -0.00  -0.12     0.04   0.00  -0.02
  21   1    -0.00   0.00  -0.01    -0.00  -0.00   0.00     0.01  -0.00   0.01
  22   1    -0.08   0.05  -0.09     0.20  -0.12   0.17    -0.09   0.05  -0.06
  23   1    -0.52  -0.03   0.34     0.48   0.03  -0.32     0.16   0.01  -0.10
  24   1     0.02  -0.33  -0.51     0.02  -0.26  -0.38    -0.01  -0.31  -0.51
  25   1    -0.24   0.14  -0.19    -0.34   0.19  -0.28     0.51  -0.26   0.47
  26   1     0.00   0.00   0.00     0.01   0.00   0.00    -0.01   0.00  -0.00
  27   1    -0.00   0.00   0.00    -0.00   0.00  -0.00    -0.00   0.00   0.00
  28   1    -0.00  -0.00   0.01    -0.00  -0.00   0.00    -0.00  -0.00   0.00
  29   1    -0.00   0.00  -0.00    -0.00  -0.00  -0.00    -0.00   0.00  -0.00
  30   1    -0.00   0.00  -0.00     0.00  -0.00   0.00     0.00  -0.00   0.00
  31   1     0.00   0.00   0.00    -0.00  -0.00  -0.00    -0.00  -0.00  -0.00
  32   1    -0.00  -0.00   0.00    -0.00   0.00  -0.00    -0.00  -0.00   0.00
  33   1     0.00  -0.00   0.00    -0.00  -0.00  -0.00     0.00  -0.00   0.00
  34   1     0.00   0.00  -0.00    -0.00  -0.00   0.00     0.00   0.00   0.00
                     85                     86                     87
                        a                      a                      a 
 Frequencies --  2982.5818              3087.6745              3097.7680
 Red. masses --     1.6307                 1.7567                 1.8224
 Frc consts  --     0.0000                 0.0000                 0.0000
 IR Inten    --     6.2909                10.4350                58.7280
 Raman Activ --     0.0000                 0.0000                 0.0000
 Depolar     --     0.0000                 0.0000                 0.0000
 Atom AN      X      Y      Z        X      Y      Z        X      Y      Z
   1   7    -0.01   0.00   0.01    -0.00  -0.00   0.00     0.00  -0.00  -0.00
   2   6     0.12  -0.10   0.17     0.00  -0.00   0.00    -0.00  -0.00   0.00
   3   6     0.04  -0.03   0.03     0.00   0.00   0.00    -0.00   0.00   0.00
   4   6     0.00  -0.00   0.00     0.00  -0.00  -0.00     0.00   0.00  -0.00
   5   6    -0.00  -0.00  -0.00     0.00  -0.00   0.00    -0.00  -0.00  -0.00
   6   6     0.00   0.00  -0.00     0.00  -0.00   0.00    -0.00   0.00  -0.00
   7   6    -0.00   0.00  -0.00     0.00  -0.00  -0.00     0.00   0.00  -0.02
   8   6     0.00  -0.00   0.00     0.00  -0.00   0.00     0.00   0.00   0.00
   9   6    -0.00  -0.00  -0.00    -0.00   0.00   0.00     0.00   0.00   0.00
  10   7    -0.00  -0.00   0.00    -0.00  -0.00  -0.00    -0.00  -0.00  -0.00
  11   7     0.00   0.00  -0.00     0.00  -0.00   0.00     0.00   0.00   0.00
  12   6    -0.00  -0.00  -0.00    -0.00  -0.00  -0.00    -0.00  -0.00  -0.00
  13   6    -0.00   0.00  -0.00     0.00  -0.00   0.00    -0.01   0.01  -0.01
  14   6     0.00  -0.00  -0.00    -0.03  -0.03  -0.01     0.10   0.09   0.02
  15   6    -0.00  -0.00   0.00     0.01   0.14  -0.10    -0.01  -0.13   0.09
  16   6    -0.00   0.00  -0.00     0.13  -0.03   0.13     0.11  -0.03   0.12
  17   6     0.00   0.00   0.00    -0.02  -0.02  -0.00    -0.04  -0.03  -0.01
  18  17     0.00  -0.00  -0.00    -0.00   0.00   0.00    -0.00  -0.00   0.00
  19   1    -0.00   0.00   0.00     0.00   0.00  -0.00     0.00   0.00  -0.00
  20   1     0.04   0.00  -0.02     0.00  -0.00  -0.00    -0.01   0.00   0.00
  21   1     0.02  -0.01   0.02     0.00  -0.00   0.00    -0.00   0.00  -0.00
  22   1    -0.68   0.34  -0.49    -0.00   0.00  -0.00    -0.00  -0.00   0.00
  23   1     0.26  -0.00  -0.14    -0.00   0.00   0.00     0.00   0.00  -0.00
  24   1     0.01   0.01   0.02    -0.00   0.00  -0.00    -0.00  -0.00  -0.00
  25   1    -0.14   0.07  -0.13    -0.00   0.00  -0.00     0.00  -0.00   0.00
  26   1     0.01   0.00   0.00    -0.00  -0.00  -0.00     0.00   0.00   0.00
  27   1     0.00   0.00  -0.00     0.00   0.00  -0.00    -0.00  -0.00   0.00
  28   1    -0.00  -0.00   0.00     0.00  -0.00   0.00    -0.01  -0.01   0.07
  29   1    -0.00  -0.00  -0.00    -0.00  -0.00  -0.00    -0.01  -0.00  -0.01
  30   1    -0.00  -0.00   0.00    -0.01   0.00  -0.01     0.05  -0.02   0.05
  31   1    -0.00   0.00  -0.00     0.13   0.11   0.03    -0.37  -0.31  -0.08
  32   1     0.00   0.00  -0.00    -0.05  -0.53   0.35     0.04   0.44  -0.30
  33   1     0.00  -0.00   0.00    -0.47   0.13  -0.49    -0.40   0.11  -0.42
  34   1    -0.00  -0.00  -0.00     0.09   0.08   0.02     0.15   0.14   0.03
                     88                     89                     90
                        a                      a                      a 
 Frequencies --  3099.0368              3101.5199              3108.1672
 Red. masses --     1.8056                 1.7987                 1.8765
 Frc consts  --     0.0000                 0.0000                 0.0000
 IR Inten    --    42.7334                25.7220                45.1904
 Raman Activ --     0.0000                 0.0000                 0.0000
 Depolar     --     0.0000                 0.0000                 0.0000
 Atom AN      X      Y      Z        X      Y      Z        X      Y      Z
   1   7     0.00  -0.00   0.00     0.00  -0.00  -0.00    -0.00   0.00   0.00
   2   6    -0.00   0.00  -0.00     0.00  -0.00   0.00     0.00  -0.00  -0.00
   3   6    -0.00   0.00  -0.00    -0.00   0.00   0.00    -0.00   0.00   0.00
   4   6    -0.00  -0.00  -0.00    -0.01  -0.00   0.01    -0.00  -0.00   0.00
   5   6    -0.18  -0.01  -0.12    -0.12  -0.00  -0.09    -0.01  -0.00  -0.01
   6   6    -0.00  -0.00   0.04    -0.00  -0.00   0.02    -0.00  -0.00   0.00
   7   6     0.01   0.01  -0.14    -0.01  -0.02   0.21    -0.00  -0.00   0.02
   8   6     0.03   0.00   0.02    -0.05  -0.00  -0.03    -0.00  -0.00  -0.00
   9   6     0.00  -0.00   0.00    -0.00  -0.00  -0.00    -0.00   0.00  -0.00
  10   7     0.00   0.00  -0.00    -0.00   0.00   0.00    -0.00   0.00  -0.00
  11   7    -0.00   0.00   0.00     0.00  -0.00   0.00    -0.00  -0.00   0.00
  12   6     0.00   0.00  -0.00    -0.00   0.00  -0.00     0.00  -0.00   0.00
  13   6    -0.00   0.00  -0.00    -0.01   0.00  -0.01     0.01  -0.00   0.01
  14   6    -0.01  -0.00  -0.00     0.02   0.02   0.00    -0.17  -0.15  -0.04
  15   6     0.00   0.01  -0.00     0.00   0.00  -0.00    -0.01  -0.12   0.08
  16   6    -0.00   0.00  -0.01     0.00  -0.00   0.00     0.04  -0.01   0.04
  17   6     0.00   0.00   0.00    -0.00  -0.00  -0.00    -0.03  -0.03  -0.01
  18  17     0.00  -0.00   0.00     0.00  -0.00   0.00     0.00   0.00   0.00
  19   1     0.00   0.00  -0.00     0.00   0.00  -0.00    -0.00  -0.00   0.00
  20   1    -0.00   0.00  -0.00    -0.01   0.00   0.00     0.00   0.00  -0.00
  21   1    -0.00   0.00  -0.00    -0.00   0.00  -0.00     0.00  -0.00   0.00
  22   1     0.00  -0.00   0.00    -0.00   0.00  -0.00    -0.00   0.00  -0.00
  23   1    -0.00  -0.00   0.00    -0.00   0.00  -0.00     0.00   0.00  -0.00
  24   1    -0.00   0.00   0.01     0.00  -0.00  -0.01     0.00  -0.00  -0.00
  25   1     0.01  -0.00   0.01     0.01  -0.00   0.00     0.00  -0.00   0.00
  26   1     0.63   0.03   0.45     0.43   0.02   0.31     0.03   0.00   0.02
  27   1     0.02   0.01  -0.16     0.01   0.01  -0.11     0.00   0.00  -0.02
  28   1    -0.04  -0.04   0.52     0.06   0.06  -0.75     0.01   0.01  -0.07
  29   1    -0.13  -0.00  -0.09     0.20   0.01   0.14     0.01   0.00   0.01
  30   1     0.00  -0.00   0.00     0.02  -0.01   0.02    -0.07   0.02  -0.07
  31   1     0.02   0.02   0.00    -0.07  -0.06  -0.02     0.59   0.51   0.13
  32   1    -0.00  -0.02   0.01    -0.00  -0.01   0.01     0.03   0.38  -0.26
  33   1     0.02  -0.00   0.02    -0.01   0.00  -0.01    -0.13   0.04  -0.14
  34   1    -0.01  -0.01  -0.00     0.02   0.01   0.00     0.12   0.11   0.03
                     91                     92                     93
                        a                      a                      a 
 Frequencies --  3118.8318              3121.3575              3126.8361
 Red. masses --     1.8578                 1.8552                 1.8560
 Frc consts  --     0.0000                 0.0000                 0.0000
 IR Inten    --    62.9177                18.7738                 4.8413
 Raman Activ --     0.0000                 0.0000                 0.0000
 Depolar     --     0.0000                 0.0000                 0.0000
 Atom AN      X      Y      Z        X      Y      Z        X      Y      Z
   1   7     0.00  -0.00  -0.00    -0.00   0.00  -0.00    -0.00   0.00  -0.00
   2   6    -0.00  -0.00   0.00    -0.00  -0.00   0.00     0.00   0.00   0.00
   3   6    -0.00   0.00   0.00     0.00   0.00   0.00    -0.00  -0.00   0.00
   4   6    -0.00  -0.00   0.00    -0.00  -0.00  -0.00     0.00   0.00  -0.00
   5   6    -0.00  -0.00  -0.00     0.00   0.00   0.00     0.05   0.00   0.03
   6   6    -0.00  -0.00   0.00    -0.00  -0.00   0.02    -0.02  -0.02   0.25
   7   6    -0.00  -0.00   0.01    -0.01  -0.01   0.09     0.00   0.00  -0.01
   8   6     0.01   0.00   0.01     0.22   0.01   0.15    -0.02  -0.00  -0.01
   9   6     0.00   0.00   0.00     0.01   0.00  -0.00    -0.01  -0.00   0.00
  10   7     0.00  -0.00   0.00     0.00  -0.00  -0.00    -0.00   0.00  -0.00
  11   7    -0.00   0.00  -0.00    -0.00   0.00   0.00     0.00  -0.00   0.00
  12   6     0.00   0.01  -0.00    -0.00  -0.00   0.00     0.00  -0.00   0.00
  13   6    -0.01   0.00  -0.01     0.02  -0.00   0.02     0.06  -0.02   0.06
  14   6    -0.01  -0.01  -0.00     0.01   0.00   0.00     0.01   0.01   0.00
  15   6    -0.01  -0.03   0.02     0.00   0.00  -0.00    -0.00   0.00  -0.00
  16   6     0.06  -0.01   0.06    -0.00   0.00  -0.00     0.00  -0.00   0.00
  17   6     0.19   0.17   0.04    -0.01  -0.01  -0.00     0.00   0.00   0.00
  18  17     0.00   0.00   0.00     0.00   0.00   0.00     0.00   0.00   0.00
  19   1     0.00   0.00  -0.00     0.00   0.00  -0.00    -0.00  -0.00   0.00
  20   1    -0.00  -0.00   0.00    -0.00  -0.00   0.00     0.00  -0.00  -0.00
  21   1     0.00  -0.00   0.00     0.00  -0.00   0.00    -0.00   0.00  -0.00
  22   1    -0.00   0.00   0.00     0.00   0.00   0.00    -0.00   0.00  -0.00
  23   1     0.00   0.00  -0.00     0.00   0.00  -0.00     0.00  -0.00  -0.00
  24   1     0.00  -0.00  -0.00     0.00  -0.00  -0.00    -0.00  -0.00  -0.00
  25   1     0.00  -0.00   0.00    -0.00   0.00  -0.00    -0.00   0.00  -0.00
  26   1     0.01   0.00   0.01    -0.01  -0.00  -0.00    -0.14  -0.01  -0.10
  27   1     0.00   0.00  -0.00     0.01   0.00  -0.06     0.08   0.06  -0.88
  28   1     0.00   0.00  -0.04     0.02   0.02  -0.28    -0.00  -0.00   0.02
  29   1    -0.05  -0.00  -0.03    -0.75  -0.02  -0.52     0.07   0.00   0.05
  30   1     0.03  -0.01   0.04    -0.06   0.02  -0.06    -0.21   0.06  -0.22
  31   1     0.04   0.04   0.01    -0.02  -0.01  -0.00    -0.03  -0.03  -0.01
  32   1     0.01   0.10  -0.06    -0.00  -0.01   0.00     0.00   0.00  -0.00
  33   1    -0.17   0.05  -0.18     0.01  -0.00   0.01    -0.01   0.00  -0.01
  34   1    -0.68  -0.59  -0.14     0.04   0.04   0.01    -0.02  -0.02  -0.00
                     94                     95                     96
                        a                      a                      a 
 Frequencies --  3130.2268              3190.8127              3212.2028
 Red. masses --     1.8487                 1.8893                 1.6312
 Frc consts  --     0.0000                 0.0000                 0.0000
 IR Inten    --    50.0427                46.7762                28.9729
 Raman Activ --     0.0000                 0.0000                 0.0000
 Depolar     --     0.0000                 0.0000                 0.0000
 Atom AN      X      Y      Z        X      Y      Z        X      Y      Z
   1   7    -0.00  -0.00   0.00     0.01   0.25  -0.08    -0.17   0.04  -0.13
   2   6    -0.00  -0.00  -0.00    -0.00   0.00  -0.00    -0.01   0.00  -0.01
   3   6    -0.00   0.00  -0.00    -0.00  -0.00   0.00     0.00  -0.00   0.00
   4   6    -0.00  -0.00   0.00    -0.00  -0.00  -0.00    -0.00   0.00  -0.00
   5   6    -0.02  -0.00  -0.01    -0.00  -0.00  -0.00    -0.00   0.00  -0.00
   6   6     0.01   0.01  -0.09    -0.00   0.00  -0.00     0.00  -0.00   0.00
   7   6     0.00   0.00  -0.00    -0.00  -0.00   0.00     0.00   0.00  -0.00
   8   6    -0.01  -0.00  -0.01     0.00   0.00   0.00    -0.00  -0.00  -0.00
   9   6     0.00   0.00  -0.00     0.00  -0.00  -0.00     0.00   0.00   0.00
  10   7     0.00   0.00  -0.00     0.00   0.00   0.00    -0.00   0.00  -0.00
  11   7    -0.00   0.00  -0.00    -0.00  -0.00   0.00     0.00  -0.00  -0.00
  12   6     0.00  -0.01   0.00    -0.00   0.00  -0.00     0.00  -0.00   0.00
  13   6     0.17  -0.05   0.18     0.00  -0.00   0.00     0.00  -0.00   0.00
  14   6     0.03   0.03   0.00     0.00   0.00   0.00     0.00   0.00   0.00
  15   6    -0.00  -0.00   0.00    -0.00  -0.00   0.00     0.00   0.00  -0.00
  16   6     0.01  -0.00   0.01     0.00  -0.00   0.00    -0.00   0.00  -0.00
  17   6     0.01   0.01   0.00     0.00   0.00   0.00    -0.00  -0.00  -0.00
  18  17     0.00   0.00   0.00     0.00   0.00  -0.00     0.00   0.00  -0.00
  19   1     0.00   0.00  -0.00    -0.24  -0.88   0.21     0.04   0.22  -0.07
  20   1     0.01  -0.00  -0.01     0.04   0.02  -0.03    -0.07   0.01   0.02
  21   1    -0.00   0.00  -0.00     0.17  -0.07   0.12     0.67  -0.38   0.55
  22   1     0.00  -0.00   0.00     0.01  -0.00   0.00     0.02  -0.01   0.01
  23   1    -0.00   0.00   0.00    -0.00  -0.00  -0.00    -0.01   0.00   0.01
  24   1     0.00   0.00   0.00     0.00  -0.00  -0.00     0.00   0.00   0.00
  25   1     0.00  -0.00   0.00     0.00  -0.00   0.00    -0.00   0.00  -0.00
  26   1     0.06   0.00   0.05     0.00   0.00   0.00     0.00  -0.00   0.00
  27   1    -0.03  -0.02   0.30    -0.00  -0.00   0.00     0.00   0.00  -0.00
  28   1    -0.00  -0.00   0.01     0.00   0.00  -0.00    -0.00  -0.00   0.00
  29   1     0.05   0.00   0.03    -0.00  -0.00  -0.00     0.00   0.00   0.00
  30   1    -0.61   0.17  -0.63    -0.00   0.00  -0.00    -0.00   0.00  -0.00
  31   1    -0.08  -0.07  -0.02    -0.00  -0.00  -0.00    -0.00  -0.00  -0.00
  32   1     0.00   0.01  -0.01    -0.00   0.00  -0.00    -0.00  -0.00   0.00
  33   1    -0.02   0.01  -0.02    -0.00   0.00  -0.00     0.00  -0.00   0.00
  34   1    -0.04  -0.03  -0.01    -0.00  -0.00  -0.00     0.00   0.00   0.00
