      -----------------------------------------------------------      
     |                   =====================                   |     
     |                           x T B                           |     
     |                   =====================                   |     
     |                         S. Grimme                         |     
     |          Mulliken Center for Theoretical Chemistry        |     
     |                    University of Bonn                     |     
      -----------------------------------------------------------      

   * xtb version 6.5.1 (fef0646) compiled by 'conda@b96dff2e9fd6' on 2023-01-04

   xtb is free software: you can redistribute it and/or modify it under
   the terms of the GNU Lesser General Public License as published by
   the Free Software Foundation, either version 3 of the License, or
   (at your option) any later version.
   
   xtb is distributed in the hope that it will be useful,
   but WITHOUT ANY WARRANTY; without even the implied warranty of
   MERCHANTABILITY or FITNESS FOR A PARTICULAR PURPOSE.  See the
   GNU Lesser General Public License for more details.
   
   Cite this work as:
   * C. Bannwarth, E. Caldeweyher, S. Ehlert, A. Hansen, P. Pracht,
     J. Seibert, S. Spicher, S. Grimme, WIREs Comput. Mol. Sci., 2020, 11,
     e01493. DOI: 10.1002/wcms.1493
   
   for GFN2-xTB:
   * C. Bannwarth, S. Ehlert and S. Grimme., J. Chem. Theory Comput., 2019,
     15, 1652-1671. DOI: 10.1021/acs.jctc.8b01176
   for GFN1-xTB:
   * S. Grimme, C. Bannwarth, P. Shushkov, J. Chem. Theory Comput., 2017,
     13, 1989-2009. DOI: 10.1021/acs.jctc.7b00118
   for GFN0-xTB:
   * P. Pracht, E. Caldeweyher, S. Ehlert, S. Grimme, ChemRxiv, 2019, preprint.
     DOI: 10.26434/chemrxiv.8326202.v1
   for GFN-FF:
   * S. Spicher and S. Grimme, Angew. Chem. Int. Ed., 2020, 59, 15665-15673.
     DOI: 10.1002/anie.202004239
   
   for ALPB and GBSA implicit solvation:
   * S. Ehlert, M. Stahn, S. Spicher, S. Grimme, J. Chem. Theory Comput.,
     2021, 17, 4250-4261. DOI: 10.1021/acs.jctc.1c00471
   
   for DFT-D4:
   * E. Caldeweyher, C. Bannwarth and S. Grimme, J. Chem. Phys., 2017,
     147, 034112. DOI: 10.1063/1.4993215
   * E. Caldeweyher, S. Ehlert, A. Hansen, H. Neugebauer, S. Spicher,
     C. Bannwarth and S. Grimme, J. Chem. Phys., 2019, 150, 154122.
     DOI: 10.1063/1.5090222
   * E. Caldeweyher, J.-M. Mewes, S. Ehlert and S. Grimme, Phys. Chem. Chem. Phys.
     2020, 22, 8499-8512. DOI: 10.1039/D0CP00502A
   
   for sTDA-xTB:
   * S. Grimme and C. Bannwarth, J. Chem. Phys., 2016, 145, 054103.
     DOI: 10.1063/1.4959605
   
   in the mass-spec context:
   * V. Asgeirsson, C. Bauer and S. Grimme, Chem. Sci., 2017, 8, 4879.
     DOI: 10.1039/c7sc00601b
   * J. Koopman and S. Grimme, ACS Omega 2019, 4, 12, 15120-15133.
     DOI: 10.1021/acsomega.9b02011
   
   for metadynamics refer to:
   * S. Grimme, J. Chem. Theory Comput., 2019, 155, 2847-2862
     DOI: 10.1021/acs.jctc.9b00143
   
   for SPH calculations refer to:
   * S. Spicher and S. Grimme, J. Chem. Theory Comput., 2021, 17, 1701-1714
     DOI: 10.1021/acs.jctc.0c01306
   
   with help from (in alphabetical order)
   P. Atkinson, C. Bannwarth, F. Bohle, G. Brandenburg, E. Caldeweyher
   M. Checinski, S. Dohm, S. Ehlert, S. Ehrlich, I. Gerasimov, C. Hölzer
   A. Katbashev, J. Koopman, C. Lavigne, S. Lehtola, F. März, M. Müller,
   F. Musil, H. Neugebauer, J. Pisarek, C. Plett, P. Pracht, F. Pultar,
   J. Seibert, P. Shushkov, S. Spicher, M. Stahn, M. Steiner, T. Strunk,
   J. Stückrath, T. Rose, and J. Unsleber
   
 * started run on 2023/01/23 at 14:05:35.988     

           -------------------------------------------------
          |                Calculation Setup                |
           -------------------------------------------------

          program call               : xtb init.xyz --opt -c 0 -u 0 -P 16
          hostname                   : gpg-woodward
          coordinate file            : init.xyz
          omp threads                :                    16

   ID    Z sym.   atoms
    1    7 N      1
    2    6 C      2-11
    3   16 S      12, 13
    4   17 Cl     14
    5    1 H      15-26

molecular fragmentation (1/2 indicates fragments):
11111111111112111111111111
# atoms in fragment 1/2:    25     1
 fragment masses (1/2) :      210.34       35.45
CMA distance (Bohr)    :  15.283
constraining FC (au)   :  0.0500

           -------------------------------------------------
          |                 G F N 2 - x T B                 |
           -------------------------------------------------

        Reference                      10.1021/acs.jctc.8b01176
      * Hamiltonian:
        H0-scaling (s, p, d)           1.850000    2.230000    2.230000
        zeta-weighting                 0.500000
      * Dispersion:
        s8                             2.700000
        a1                             0.520000
        a2                             5.000000
        s9                             5.000000
      * Repulsion:
        kExp                           1.500000    1.000000
        rExp                           1.000000
      * Coulomb:
        alpha                          2.000000
        third order                    shell-resolved
        anisotropic                    true
        a3                             3.000000
        a5                             4.000000
        cn-shift                       1.200000
        cn-exp                         4.000000
        max-rad                        5.000000


          ...................................................
          :                      SETUP                      :
          :.................................................:
          :  # basis functions                  86          :
          :  # atomic orbitals                  83          :
          :  # shells                           43          :
          :  # electrons                        76          :
          :  max. iterations                   250          :
          :  Hamiltonian                  GFN2-xTB          :
          :  restarted?                      false          :
          :  GBSA solvation                  false          :
          :  PC potential                    false          :
          :  electronic temp.          300.0000000     K    :
          :  accuracy                    1.0000000          :
          :  -> integral cutoff          0.2500000E+02      :
          :  -> integral neglect         0.1000000E-07      :
          :  -> SCF convergence          0.1000000E-05 Eh   :
          :  -> wf. convergence          0.1000000E-03 e    :
          :  Broyden damping             0.4000000          :
          ...................................................

 iter      E             dE          RMSdq      gap      omega  full diag
   1    -41.8225838 -0.418226E+02  0.433E+00    2.76       0.0  T
   2    -41.9424663 -0.119882E+00  0.254E+00    2.54       1.0  T
   3    -41.9420695  0.396758E-03  0.133E+00    1.90       1.0  T
   4    -41.9434005 -0.133097E-02  0.916E-01    1.54       1.0  T
   5    -41.9538728 -0.104723E-01  0.313E-01    1.41       1.0  T
   6    -41.9543030 -0.430145E-03  0.238E-01    1.42       1.0  T
   7    -41.9548125 -0.509494E-03  0.136E-01    1.42       1.0  T
   8    -41.9549418 -0.129318E-03  0.815E-02    1.42       1.0  T
   9    -41.9549907 -0.488807E-04  0.356E-02    1.41       1.0  T
  10    -41.9550133 -0.226435E-04  0.132E-02    1.41       1.5  T
  11    -41.9550144 -0.110540E-05  0.695E-03    1.42       2.8  T
  12    -41.9550147 -0.265937E-06  0.195E-03    1.41      10.1  T
  13    -41.9550147 -0.172059E-07  0.997E-04    1.41      19.7  T
  14    -41.9550147 -0.413610E-08  0.597E-04    1.41      32.9  T

   *** convergence criteria satisfied after 14 iterations ***

         #    Occupation            Energy/Eh            Energy/eV
      -------------------------------------------------------------
         1        2.0000           -0.9460361             -25.7430
       ...           ...                  ...                  ...
        32        2.0000           -0.4301286             -11.7044
        33        2.0000           -0.4196974             -11.4205
        34        2.0000           -0.4120417             -11.2122
        35        2.0000           -0.3886806             -10.5765
        36        2.0000           -0.3458004              -9.4097
        37        2.0000           -0.3389241              -9.2226
        38        2.0000           -0.3381887              -9.2026 (HOMO)
        39                         -0.2862236              -7.7885 (LUMO)
        40                         -0.2460937              -6.6966
        41                         -0.2253335              -6.1316
        42                         -0.2146837              -5.8418
        43                         -0.1999677              -5.4414
       ...                                ...                  ...
        83                          0.6765644              18.4103
      -------------------------------------------------------------
                  HL-Gap            0.0519651 Eh            1.4140 eV
             Fermi-level           -0.3120283 Eh           -8.4907 eV

 SCC (total)                   0 d,  0 h,  0 min,  0.081 sec
 SCC setup                      ...        0 min,  0.000 sec (  0.304%)
 Dispersion                     ...        0 min,  0.000 sec (  0.599%)
 classical contributions        ...        0 min,  0.000 sec (  0.244%)
 integral evaluation            ...        0 min,  0.003 sec (  3.439%)
 iterations                     ...        0 min,  0.071 sec ( 87.439%)
 molecular gradient             ...        0 min,  0.005 sec (  6.657%)
 printout                       ...        0 min,  0.001 sec (  0.909%)

         :::::::::::::::::::::::::::::::::::::::::::::::::::::
         ::                     SUMMARY                     ::
         :::::::::::::::::::::::::::::::::::::::::::::::::::::
         :: total energy             -41.436344802965 Eh    ::
         :: gradient norm              0.062905559916 Eh/a0 ::
         :: HOMO-LUMO gap              1.414042848260 eV    ::
         ::.................................................::
         :: SCC energy               -41.955014697637 Eh    ::
         :: -> isotropic ES            0.100314770251 Eh    ::
         :: -> anisotropic ES         -0.024198441809 Eh    ::
         :: -> anisotropic XC          0.010306834142 Eh    ::
         :: -> dispersion             -0.025839145433 Eh    ::
         :: repulsion energy           0.518869528038 Eh    ::
         :: add. restraining           0.000000000000 Eh    ::
         :: total charge               0.000000000001 e     ::
         :::::::::::::::::::::::::::::::::::::::::::::::::::::

      ----------------------------------------------------------- 
     |                   =====================                   |
     |                        A N C O P T                        |
     |                   =====================                   |
     |               Approximate Normal Coordinate               |
     |                Rational Function Optimizer                |
      ----------------------------------------------------------- 

          ...................................................
          :                      SETUP                      :
          :.................................................:
          :   optimization level            normal          :
          :   max. optcycles                   200          :
          :   ANC micro-cycles                  20          :
          :   degrees of freedom                72          :
          :.................................................:
          :   RF solver                   davidson          :
          :   write xtbopt.log                true          :
          :   linear?                        false          :
          :   energy convergence         0.5000000E-05 Eh   :
          :   grad. convergence          0.1000000E-02 Eh/α :
          :   maximium RF displ.         1.0000000          :
          :   Hlow (freq-cutoff)         0.1000000E-01      :
          :   Hmax (freq-cutoff)         5.0000000          :
          :   S6 in model hess.         20.0000000          :
          ...................................................

generating ANC from model Hessian ...
Using Lindh-Hessian (1995)
 Shifting diagonal of input Hessian by    9.8079401035978866E-003
 Lowest  eigenvalues of input Hessian
    0.000000    0.000000    0.000000    0.000000    0.000000    0.000000
    0.010000    0.010282    0.010663    0.011457    0.012446    0.013315
    0.014445    0.015229    0.019035    0.023177    0.024996    0.025818
 Highest eigenvalues
    1.632029    1.682601    1.743444    1.800602    1.831134    1.925778


........................................................................
.............................. CYCLE    1 ..............................
........................................................................
   1    -41.9550147 -0.419550E+02  0.318E-04    1.41       0.0  T
   2    -41.9550147 -0.282924E-09  0.247E-04    1.41      79.5  T
   3    -41.9550147 -0.916600E-10  0.205E-04    1.41      95.9  T
     SCC iter.                  ...        0 min,  0.015 sec
     gradient                   ...        0 min,  0.005 sec
 * total energy  :   -41.4363448 Eh     change       -0.3823303E-08 Eh
   gradient norm :     0.0629073 Eh/α   predicted     0.0000000E+00 (-100.00%)
   displ. norm   :     0.4033054 α      lambda       -0.1283822E-01
   maximum displ.:     0.1849354 α      in ANC's #9, #15, #12, ...

........................................................................
.............................. CYCLE    2 ..............................
........................................................................
   1    -41.9772529 -0.419773E+02  0.355E-01    1.66       0.0  T
   2    -41.9775967 -0.343838E-03  0.213E-01    1.73       1.0  T
   3    -41.9775850  0.117442E-04  0.756E-02    1.82       1.0  T
   4    -41.9776051 -0.201525E-04  0.419E-02    1.85       1.0  T
   5    -41.9776354 -0.302831E-04  0.163E-02    1.85       1.2  T
   6    -41.9776363 -0.862433E-06  0.122E-02    1.85       1.6  T
   7    -41.9776371 -0.811809E-06  0.887E-03    1.85       2.2  T
   8    -41.9776379 -0.783406E-06  0.502E-03    1.85       3.9  T
   9    -41.9776381 -0.237910E-06  0.171E-03    1.85      11.5  T
  10    -41.9776381 -0.357650E-07  0.869E-04    1.85      22.6  T
  11    -41.9776382 -0.681762E-08  0.455E-04    1.85      43.1  T
     SCC iter.                  ...        0 min,  0.051 sec
     gradient                   ...        0 min,  0.004 sec
 * total energy  :   -41.4429208 Eh     change       -0.6575986E-02 Eh
   gradient norm :     0.0430790 Eh/α   predicted    -0.7463285E-02 (  13.49%)
   displ. norm   :     0.5046496 α      lambda       -0.9287832E-02
   maximum displ.:     0.1946089 α      in ANC's #2, #3, #4, ...

........................................................................
.............................. CYCLE    3 ..............................
........................................................................
   1    -41.9991670 -0.419992E+02  0.263E-01    1.75       0.0  T
   2    -41.9992955 -0.128429E-03  0.159E-01    1.75       1.0  T
   3    -41.9992680  0.274916E-04  0.686E-02    1.78       1.0  T
   4    -41.9993168 -0.487918E-04  0.336E-02    1.80       1.0  T
   5    -41.9993310 -0.142548E-04  0.156E-02    1.80       1.3  T
   6    -41.9993315 -0.526178E-06  0.113E-02    1.80       1.7  T
   7    -41.9993326 -0.103950E-05  0.733E-03    1.80       2.7  T
   8    -41.9993330 -0.401886E-06  0.346E-03    1.80       5.7  T
   9    -41.9993331 -0.862791E-07  0.133E-03    1.80      14.7  T
  10    -41.9993331 -0.878980E-08  0.601E-04    1.80      32.6  T
  11    -41.9993331 -0.131779E-08  0.355E-04    1.80      55.3  T
     SCC iter.                  ...        0 min,  0.051 sec
     gradient                   ...        0 min,  0.003 sec
 * total energy  :   -41.4489114 Eh     change       -0.5990594E-02 Eh
   gradient norm :     0.0372000 Eh/α   predicted    -0.5826605E-02 (  -2.74%)
   displ. norm   :     0.5484178 α      lambda       -0.6674161E-02
   maximum displ.:     0.2157257 α      in ANC's #3, #4, #2, ...

........................................................................
.............................. CYCLE    4 ..............................
........................................................................
   1    -42.0026509 -0.420027E+02  0.278E-01    1.79       0.0  T
   2    -42.0030165 -0.365594E-03  0.163E-01    1.88       1.0  T
   3    -42.0030455 -0.290737E-04  0.742E-02    1.97       1.0  T
   4    -42.0030556 -0.100888E-04  0.452E-02    2.01       1.0  T
   5    -42.0030764 -0.207256E-04  0.299E-02    2.02       1.0  T
   6    -42.0030818 -0.543187E-05  0.187E-02    2.02       1.0  T
   7    -42.0030848 -0.304216E-05  0.853E-03    2.02       2.3  T
   8    -42.0030852 -0.381727E-06  0.531E-03    2.02       3.7  T
   9    -42.0030856 -0.412794E-06  0.178E-03    2.02      11.0  T
  10    -42.0030857 -0.315429E-07  0.110E-03    2.02      17.8  T
  11    -42.0030857 -0.560227E-08  0.834E-04    2.02      23.5  T
  12    -42.0030857 -0.609281E-08  0.561E-04    2.02      35.0  T
     SCC iter.                  ...        0 min,  0.055 sec
     gradient                   ...        0 min,  0.004 sec
 * total energy  :   -41.4543841 Eh     change       -0.5472751E-02 Eh
   gradient norm :     0.0431355 Eh/α   predicted    -0.4340760E-02 ( -20.68%)
   displ. norm   :     0.5235851 α      lambda       -0.7471450E-02
   maximum displ.:     0.2100452 α      in ANC's #4, #6, #15, ...

........................................................................
.............................. CYCLE    5 ..............................
........................................................................
   1    -41.9944820 -0.419945E+02  0.382E-01    2.06       0.0  T
   2    -41.9951705 -0.688537E-03  0.216E-01    2.22       1.0  T
   3    -41.9952491 -0.785848E-04  0.946E-02    2.38       1.0  T
   4    -41.9952711 -0.219975E-04  0.579E-02    2.45       1.0  T
   5    -41.9952919 -0.208037E-04  0.448E-02    2.45       1.0  T
   6    -41.9953073 -0.153957E-04  0.282E-02    2.46       1.0  T
   7    -41.9953163 -0.899165E-05  0.133E-02    2.45       1.5  T
   8    -41.9953174 -0.113917E-05  0.843E-03    2.45       2.3  T
   9    -41.9953185 -0.110274E-05  0.294E-03    2.45       6.7  T
  10    -41.9953186 -0.486466E-07  0.210E-03    2.45       9.4  T
  11    -41.9953186 -0.196807E-07  0.140E-03    2.45      14.1  T
  12    -41.9953186 -0.155520E-07  0.933E-04    2.45      21.0  T
  13    -41.9953186 -0.927808E-08  0.407E-04    2.45      48.1  T
     SCC iter.                  ...        0 min,  0.062 sec
     gradient                   ...        0 min,  0.004 sec
 * total energy  :   -41.4596743 Eh     change       -0.5290141E-02 Eh
   gradient norm :     0.0374865 Eh/α   predicted    -0.4759840E-02 ( -10.02%)
   displ. norm   :     0.3526336 α      lambda       -0.3725402E-02
   maximum displ.:     0.1605262 α      in ANC's #4, #6, #15, ...

........................................................................
.............................. CYCLE    6 ..............................
........................................................................
   1    -41.9918645 -0.419919E+02  0.290E-01    2.51       0.0  T
   2    -41.9922763 -0.411826E-03  0.166E-01    2.66       1.0  T
   3    -41.9923281 -0.517193E-04  0.754E-02    2.71       1.0  T
   4    -41.9923439 -0.158350E-04  0.461E-02    2.72       1.0  T
   5    -41.9923564 -0.125523E-04  0.365E-02    2.71       1.0  T
   6    -41.9923677 -0.112620E-04  0.235E-02    2.71       1.0  T
   7    -41.9923747 -0.697774E-05  0.119E-02    2.71       1.6  T
   8    -41.9923759 -0.122007E-05  0.752E-03    2.71       2.6  T
   9    -41.9923768 -0.921593E-06  0.248E-03    2.71       7.9  T
  10    -41.9923769 -0.383370E-07  0.181E-03    2.72      10.9  T
  11    -41.9923769 -0.172681E-07  0.120E-03    2.71      16.3  T
  12    -41.9923769 -0.115648E-07  0.754E-04    2.71      26.0  T
  13    -41.9923769 -0.511214E-08  0.356E-04    2.71      55.0  T
     SCC iter.                  ...        0 min,  0.057 sec
     gradient                   ...        0 min,  0.003 sec
 * total energy  :   -41.4623193 Eh     change       -0.2644981E-02 Eh
   gradient norm :     0.0306573 Eh/α   predicted    -0.2094329E-02 ( -20.82%)
   displ. norm   :     0.3610036 α      lambda       -0.2867791E-02
   maximum displ.:     0.1981391 α      in ANC's #4, #6, #5, ...

........................................................................
.............................. CYCLE    7 ..............................
........................................................................
   1    -41.9918067 -0.419918E+02  0.221E-01    2.70       0.0  T
   2    -41.9919468 -0.140092E-03  0.127E-01    2.70       1.0  T
   3    -41.9919557 -0.888914E-05  0.435E-02    2.70       1.0  T
   4    -41.9919543  0.142193E-05  0.283E-02    2.70       1.0  T
   5    -41.9919661 -0.118313E-04  0.150E-02    2.70       1.3  T
   6    -41.9919669 -0.755675E-06  0.109E-02    2.70       1.8  T
   7    -41.9919679 -0.100060E-05  0.683E-03    2.70       2.9  T
   8    -41.9919683 -0.382975E-06  0.383E-03    2.70       5.1  T
   9    -41.9919684 -0.156089E-06  0.140E-03    2.70      14.0  T
  10    -41.9919684 -0.250318E-07  0.925E-04    2.70      21.2  T
  11    -41.9919684 -0.539910E-08  0.672E-04    2.70      29.2  T
     SCC iter.                  ...        0 min,  0.050 sec
     gradient                   ...        0 min,  0.003 sec
 * total energy  :   -41.4642145 Eh     change       -0.1895210E-02 Eh
   gradient norm :     0.0220901 Eh/α   predicted    -0.1620770E-02 ( -14.48%)
   displ. norm   :     0.2746450 α      lambda       -0.2707384E-02
   maximum displ.:     0.1534657 α      in ANC's #4, #40, #8, ...

........................................................................
.............................. CYCLE    8 ..............................
........................................................................
   1    -41.9976040 -0.419976E+02  0.217E-01    2.70       0.0  T
   2    -41.9977834 -0.179366E-03  0.123E-01    2.69       1.0  T
   3    -41.9978037 -0.202938E-04  0.573E-02    2.69       1.0  T
   4    -41.9978081 -0.444840E-05  0.393E-02    2.69       1.0  T
   5    -41.9978247 -0.166089E-04  0.270E-02    2.69       1.0  T
   6    -41.9978303 -0.560315E-05  0.191E-02    2.69       1.0  T
   7    -41.9978350 -0.468975E-05  0.108E-02    2.69       1.8  T
   8    -41.9978368 -0.177748E-05  0.516E-03    2.69       3.8  T
   9    -41.9978371 -0.292538E-06  0.178E-03    2.69      11.0  T
  10    -41.9978371 -0.368296E-07  0.107E-03    2.69      18.4  T
  11    -41.9978371 -0.679508E-08  0.741E-04    2.69      26.5  T
  12    -41.9978371 -0.401992E-08  0.425E-04    2.69      46.1  T
     SCC iter.                  ...        0 min,  0.053 sec
     gradient                   ...        0 min,  0.003 sec
 * total energy  :   -41.4654079 Eh     change       -0.1193457E-02 Eh
   gradient norm :     0.0218890 Eh/α   predicted    -0.1455791E-02 (  21.98%)
   displ. norm   :     0.2262292 α      lambda       -0.2361796E-02
   maximum displ.:     0.1304781 α      in ANC's #4, #2, #35, ...

........................................................................
.............................. CYCLE    9 ..............................
........................................................................
   1    -42.0026917 -0.420027E+02  0.131E-01    2.70       0.0  T
   2    -42.0027112 -0.195110E-04  0.779E-02    2.70       1.0  T
   3    -42.0027185 -0.731377E-05  0.289E-02    2.70       1.0  T
   4    -42.0027226 -0.402736E-05  0.220E-02    2.70       1.0  T
   5    -42.0027263 -0.376834E-05  0.169E-02    2.70       1.2  T
   6    -42.0027293 -0.300430E-05  0.115E-02    2.70       1.7  T
   7    -42.0027305 -0.119745E-05  0.750E-03    2.70       2.6  T
   8    -42.0027315 -0.963247E-06  0.194E-03    2.70      10.1  T
   9    -42.0027315 -0.313301E-07  0.115E-03    2.70      17.1  T
  10    -42.0027315 -0.822756E-08  0.764E-04    2.70      25.7  T
  11    -42.0027315 -0.486224E-08  0.466E-04    2.70      42.1  T
     SCC iter.                  ...        0 min,  0.054 sec
     gradient                   ...        0 min,  0.004 sec
 * total energy  :   -41.4667602 Eh     change       -0.1352258E-02 Eh
   gradient norm :     0.0144912 Eh/α   predicted    -0.1241341E-02 (  -8.20%)
   displ. norm   :     0.1804110 α      lambda       -0.6633765E-03
   maximum displ.:     0.1193463 α      in ANC's #4, #7, #9, ...

........................................................................
.............................. CYCLE   10 ..............................
........................................................................
   1    -42.0043842 -0.420044E+02  0.898E-02    2.69       0.0  T
   2    -42.0043869 -0.265813E-05  0.517E-02    2.69       1.0  T
   3    -42.0043821  0.482734E-05  0.179E-02    2.69       1.1  T
   4    -42.0043881 -0.608335E-05  0.759E-03    2.69       2.6  T
   5    -42.0043885 -0.364433E-06  0.474E-03    2.69       4.1  T
   6    -42.0043886 -0.136194E-06  0.337E-03    2.69       5.8  T
   7    -42.0043887 -0.789850E-07  0.220E-03    2.69       8.9  T
   8    -42.0043888 -0.426789E-07  0.644E-04    2.69      30.5  T
   9    -42.0043888 -0.337145E-08  0.245E-04    2.69      80.0  T
     SCC iter.                  ...        0 min,  0.048 sec
     gradient                   ...        0 min,  0.005 sec
 * total energy  :   -41.4672731 Eh     change       -0.5129504E-03 Eh
   gradient norm :     0.0115122 Eh/α   predicted    -0.3424847E-03 ( -33.23%)
   displ. norm   :     0.2854063 α      lambda       -0.7339701E-03
   maximum displ.:     0.1823142 α      in ANC's #4, #7, #3, ...

........................................................................
.............................. CYCLE   11 ..............................
........................................................................
   1    -42.0055334 -0.420055E+02  0.141E-01    2.66       0.0  T
   2    -42.0055436 -0.101966E-04  0.795E-02    2.66       1.0  T
   3    -42.0055336  0.996579E-05  0.274E-02    2.66       1.0  T
   4    -42.0055454 -0.117135E-04  0.121E-02    2.66       1.6  T
   5    -42.0055470 -0.165862E-05  0.631E-03    2.66       3.1  T
   6    -42.0055472 -0.179575E-06  0.440E-03    2.66       4.5  T
   7    -42.0055473 -0.154968E-06  0.312E-03    2.66       6.3  T
   8    -42.0055474 -0.866481E-07  0.128E-03    2.66      15.3  T
   9    -42.0055474 -0.128148E-07  0.662E-04    2.66      29.6  T
  10    -42.0055474 -0.490923E-08  0.400E-04    2.66      49.0  T
     SCC iter.                  ...        0 min,  0.067 sec
     gradient                   ...        0 min,  0.004 sec
 * total energy  :   -41.4677691 Eh     change       -0.4959920E-03 Eh
   gradient norm :     0.0085802 Eh/α   predicted    -0.3968794E-03 ( -19.98%)
   displ. norm   :     0.2384781 α      lambda       -0.3582077E-03
   maximum displ.:     0.1522746 α      in ANC's #4, #2, #1, ...

........................................................................
.............................. CYCLE   12 ..............................
........................................................................
   1    -42.0052343 -0.420052E+02  0.111E-01    2.65       0.0  T
   2    -42.0052416 -0.725774E-05  0.629E-02    2.65       1.0  T
   3    -42.0052386  0.302497E-05  0.174E-02    2.65       1.1  T
   4    -42.0052420 -0.341952E-05  0.884E-03    2.65       2.2  T
   5    -42.0052431 -0.108833E-05  0.409E-03    2.65       4.8  T
   6    -42.0052432 -0.909705E-07  0.282E-03    2.65       6.9  T
   7    -42.0052432 -0.667906E-07  0.216E-03    2.65       9.1  T
   8    -42.0052433 -0.499615E-07  0.138E-03    2.65      14.3  T
   9    -42.0052433 -0.264491E-07  0.664E-04    2.65      29.5  T
  10    -42.0052433 -0.565549E-08  0.369E-04    2.65      53.2  T
     SCC iter.                  ...        0 min,  0.057 sec
     gradient                   ...        0 min,  0.005 sec
 * total energy  :   -41.4680421 Eh     change       -0.2730195E-03 Eh
   gradient norm :     0.0086810 Eh/α   predicted    -0.1892947E-03 ( -30.67%)
   displ. norm   :     0.3211656 α      lambda       -0.4256621E-03
   maximum displ.:     0.1766838 α      in ANC's #4, #2, #1, ...

........................................................................
.............................. CYCLE   13 ..............................
........................................................................
   1    -42.0050870 -0.420051E+02  0.133E-01    2.64       0.0  T
   2    -42.0050937 -0.663924E-05  0.747E-02    2.64       1.0  T
   3    -42.0050910  0.266140E-05  0.170E-02    2.64       1.2  T
   4    -42.0050939 -0.291176E-05  0.875E-03    2.64       2.2  T
   5    -42.0050950 -0.104051E-05  0.379E-03    2.64       5.2  T
   6    -42.0050951 -0.816731E-07  0.219E-03    2.64       8.9  T
   7    -42.0050951 -0.362293E-07  0.165E-03    2.64      11.9  T
   8    -42.0050951 -0.213190E-07  0.103E-03    2.64      19.0  T
   9    -42.0050951 -0.107486E-07  0.570E-04    2.64      34.4  T
  10    -42.0050951 -0.313834E-08  0.362E-04    2.64      54.2  T
     SCC iter.                  ...        0 min,  0.054 sec
     gradient                   ...        0 min,  0.004 sec
 * total energy  :   -41.4683689 Eh     change       -0.3267505E-03 Eh
   gradient norm :     0.0096190 Eh/α   predicted    -0.2347850E-03 ( -28.15%)
   displ. norm   :     0.3969912 α      lambda       -0.4717153E-03
   maximum displ.:     0.2043512 α      in ANC's #4, #2, #1, ...

........................................................................
.............................. CYCLE   14 ..............................
........................................................................
   1    -42.0036561 -0.420037E+02  0.154E-01    2.63       0.0  T
   2    -42.0036603 -0.423726E-05  0.881E-02    2.63       1.0  T
   3    -42.0036598  0.513396E-06  0.146E-02    2.63       1.3  T
   4    -42.0036612 -0.141626E-05  0.920E-03    2.63       2.1  T
   5    -42.0036620 -0.821799E-06  0.521E-03    2.63       3.8  T
   6    -42.0036622 -0.167647E-06  0.363E-03    2.63       5.4  T
   7    -42.0036622 -0.495321E-07  0.263E-03    2.63       7.4  T
   8    -42.0036623 -0.777858E-07  0.830E-04    2.63      23.6  T
   9    -42.0036623 -0.609354E-08  0.364E-04    2.63      53.9  T
     SCC iter.                  ...        0 min,  0.061 sec
     gradient                   ...        0 min,  0.004 sec
 * total energy  :   -41.4687369 Eh     change       -0.3680206E-03 Eh
   gradient norm :     0.0104703 Eh/α   predicted    -0.2730307E-03 ( -25.81%)
   displ. norm   :     0.4300553 α      lambda       -0.5525185E-03
   maximum displ.:     0.2341603 α      in ANC's #2, #4, #1, ...

........................................................................
.............................. CYCLE   15 ..............................
........................................................................
   1    -42.0048341 -0.420048E+02  0.148E-01    2.64       0.0  T
   2    -42.0048379 -0.377439E-05  0.854E-02    2.64       1.0  T
   3    -42.0048336  0.428242E-05  0.213E-02    2.64       1.0  T
   4    -42.0048404 -0.687387E-05  0.110E-02    2.64       1.8  T
   5    -42.0048410 -0.581194E-06  0.713E-03    2.64       2.7  T
   6    -42.0048413 -0.325195E-06  0.539E-03    2.64       3.6  T
   7    -42.0048416 -0.217796E-06  0.293E-03    2.64       6.7  T
   8    -42.0048417 -0.100726E-06  0.101E-03    2.64      19.3  T
   9    -42.0048417 -0.922716E-08  0.629E-04    2.64      31.2  T
  10    -42.0048417 -0.257609E-08  0.440E-04    2.64      44.6  T
     SCC iter.                  ...        0 min,  0.067 sec
     gradient                   ...        0 min,  0.005 sec
 * total energy  :   -41.4691308 Eh     change       -0.3938934E-03 Eh
   gradient norm :     0.0114614 Eh/α   predicted    -0.3273550E-03 ( -16.89%)
   displ. norm   :     0.4677962 α      lambda       -0.5307734E-03
   maximum displ.:     0.2397954 α      in ANC's #2, #4, #9, ...

........................................................................
.............................. CYCLE   16 ..............................
........................................................................
   1    -42.0013732 -0.420014E+02  0.170E-01    2.62       0.0  T
   2    -42.0013812 -0.797684E-05  0.979E-02    2.62       1.0  T
   3    -42.0013785  0.272605E-05  0.212E-02    2.62       1.0  T
   4    -42.0013831 -0.463012E-05  0.128E-02    2.62       1.5  T
   5    -42.0013846 -0.150357E-05  0.787E-03    2.62       2.5  T
   6    -42.0013849 -0.365699E-06  0.537E-03    2.62       3.6  T
   7    -42.0013851 -0.153931E-06  0.380E-03    2.62       5.2  T
   8    -42.0013852 -0.133842E-06  0.151E-03    2.62      13.0  T
   9    -42.0013853 -0.354474E-07  0.652E-04    2.62      30.1  T
  10    -42.0013853 -0.135176E-08  0.459E-04    2.62      42.7  T
     SCC iter.                  ...        0 min,  0.089 sec
     gradient                   ...        0 min,  0.005 sec
 * total energy  :   -41.4694594 Eh     change       -0.3285908E-03 Eh
   gradient norm :     0.0135311 Eh/α   predicted    -0.3234659E-03 (  -1.56%)
   displ. norm   :     0.2920271 α      lambda       -0.6577176E-03
   maximum displ.:     0.1506008 α      in ANC's #2, #9, #5, ...

........................................................................
.............................. CYCLE   17 ..............................
........................................................................
   1    -42.0072591 -0.420073E+02  0.110E-01    2.64       0.0  T
   2    -42.0072786 -0.195278E-04  0.631E-02    2.64       1.0  T
   3    -42.0072726  0.608205E-05  0.286E-02    2.64       1.0  T
   4    -42.0072819 -0.934857E-05  0.129E-02    2.64       1.5  T
   5    -42.0072837 -0.179764E-05  0.675E-03    2.64       2.9  T
   6    -42.0072839 -0.197239E-06  0.487E-03    2.64       4.0  T
   7    -42.0072841 -0.170619E-06  0.323E-03    2.64       6.1  T
   8    -42.0072841 -0.805100E-07  0.164E-03    2.64      11.9  T
   9    -42.0072842 -0.166191E-07  0.806E-04    2.64      24.3  T
  10    -42.0072842 -0.923013E-08  0.369E-04    2.64      53.2  T
     SCC iter.                  ...        0 min,  0.090 sec
     gradient                   ...        0 min,  0.005 sec
 * total energy  :   -41.4698262 Eh     change       -0.3668440E-03 Eh
   gradient norm :     0.0127443 Eh/α   predicted    -0.3569074E-03 (  -2.71%)
   displ. norm   :     0.3528129 α      lambda       -0.4421028E-03
   maximum displ.:     0.1986194 α      in ANC's #2, #4, #9, ...

........................................................................
.............................. CYCLE   18 ..............................
........................................................................
   1    -42.0062601 -0.420063E+02  0.125E-01    2.62       0.0  T
   2    -42.0062647 -0.462698E-05  0.717E-02    2.62       1.0  T
   3    -42.0062637  0.969674E-06  0.176E-02    2.62       1.1  T
   4    -42.0062666 -0.284478E-05  0.118E-02    2.62       1.7  T
   5    -42.0062678 -0.125515E-05  0.755E-03    2.62       2.6  T
   6    -42.0062682 -0.323605E-06  0.564E-03    2.62       3.5  T
   7    -42.0062684 -0.247233E-06  0.342E-03    2.62       5.7  T
   8    -42.0062685 -0.134567E-06  0.139E-03    2.62      14.1  T
   9    -42.0062686 -0.207996E-07  0.789E-04    2.62      24.9  T
  10    -42.0062686 -0.355372E-08  0.598E-04    2.62      32.8  T
     SCC iter.                  ...        0 min,  0.090 sec
     gradient                   ...        0 min,  0.005 sec
 * total energy  :   -41.4701018 Eh     change       -0.2755116E-03 Eh
   gradient norm :     0.0115332 Eh/α   predicted    -0.2485721E-03 (  -9.78%)
   displ. norm   :     0.2690263 α      lambda       -0.4385658E-03
   maximum displ.:     0.1532910 α      in ANC's #2, #9, #5, ...

........................................................................
.............................. CYCLE   19 ..............................
........................................................................
   1    -42.0076760 -0.420077E+02  0.912E-02    2.61       0.0  T
   2    -42.0076806 -0.454758E-05  0.543E-02    2.61       1.0  T
   3    -42.0076672  0.134067E-04  0.278E-02    2.61       1.0  T
   4    -42.0076834 -0.162186E-04  0.797E-03    2.61       2.5  T
   5    -42.0076838 -0.384594E-06  0.501E-03    2.61       3.9  T
   6    -42.0076839 -0.123194E-06  0.345E-03    2.61       5.7  T
   7    -42.0076839 -0.645665E-07  0.246E-03    2.61       8.0  T
   8    -42.0076840 -0.536247E-07  0.134E-03    2.61      14.6  T
   9    -42.0076840 -0.199339E-07  0.569E-04    2.61      34.4  T
  10    -42.0076840 -0.300991E-08  0.360E-04    2.61      54.4  T
     SCC iter.                  ...        0 min,  0.044 sec
     gradient                   ...        0 min,  0.004 sec
 * total energy  :   -41.4703690 Eh     change       -0.2672842E-03 Eh
   gradient norm :     0.0088310 Eh/α   predicted    -0.2351569E-03 ( -12.02%)
   displ. norm   :     0.2838118 α      lambda       -0.2803809E-03
   maximum displ.:     0.1598426 α      in ANC's #2, #5, #9, ...

........................................................................
.............................. CYCLE   20 ..............................
........................................................................
   1    -42.0068868 -0.420069E+02  0.905E-02    2.61       0.0  T
   2    -42.0068899 -0.313720E-05  0.520E-02    2.61       1.0  T
   3    -42.0068871  0.281037E-05  0.151E-02    2.61       1.3  T
   4    -42.0068908 -0.365860E-05  0.644E-03    2.61       3.0  T
   5    -42.0068911 -0.370342E-06  0.375E-03    2.61       5.2  T
   6    -42.0068912 -0.662874E-07  0.271E-03    2.61       7.2  T
   7    -42.0068912 -0.568438E-07  0.184E-03    2.61      10.6  T
   8    -42.0068913 -0.281367E-07  0.912E-04    2.61      21.5  T
   9    -42.0068913 -0.680656E-08  0.416E-04    2.61      47.1  T
     SCC iter.                  ...        0 min,  0.038 sec
     gradient                   ...        0 min,  0.004 sec
 * total energy  :   -41.4705489 Eh     change       -0.1798196E-03 Eh
   gradient norm :     0.0089661 Eh/α   predicted    -0.1514854E-03 ( -15.76%)
   displ. norm   :     0.3662755 α      lambda       -0.3591522E-03
   maximum displ.:     0.2189835 α      in ANC's #2, #5, #9, ...
 * RMSD in coord.:     0.9855003 α      energy gain  -0.3420406E-01 Eh

generating ANC from model Hessian ...
Using Lindh-Hessian (1995)
 Shifting diagonal of input Hessian by    1.0106584485534042E-002
 Lowest  eigenvalues of input Hessian
    0.010000    0.000000    0.000000    0.000000    0.000000    0.000000
    0.000000    0.010602    0.010917    0.011646    0.012596    0.013592
    0.014997    0.016092    0.016821    0.023440    0.024226    0.024956
 Highest eigenvalues
    1.657261    1.706077    1.823814    1.891695    1.918465    2.012070


........................................................................
.............................. CYCLE   21 ..............................
........................................................................
   1    -42.0064483 -0.420064E+02  0.120E-01    2.60       0.0  T
   2    -42.0064554 -0.710486E-05  0.678E-02    2.60       1.0  T
   3    -42.0064522  0.316614E-05  0.191E-02    2.60       1.0  T
   4    -42.0064569 -0.471060E-05  0.983E-03    2.60       2.0  T
   5    -42.0064579 -0.101056E-05  0.577E-03    2.60       3.4  T
   6    -42.0064581 -0.146216E-06  0.417E-03    2.60       4.7  T
   7    -42.0064582 -0.101125E-06  0.302E-03    2.60       6.5  T
   8    -42.0064583 -0.792518E-07  0.137E-03    2.60      14.3  T
   9    -42.0064583 -0.261920E-07  0.556E-04    2.60      35.3  T
  10    -42.0064583 -0.190587E-08  0.343E-04    2.60      57.1  T
     SCC iter.                  ...        0 min,  0.042 sec
     gradient                   ...        0 min,  0.004 sec
 * total energy  :   -41.4707355 Eh     change       -0.1866370E-03 Eh
   gradient norm :     0.0087568 Eh/α   predicted     0.0000000E+00 (-100.00%)
   displ. norm   :     0.0559931 α      lambda       -0.1711868E-03
   maximum displ.:     0.0253197 α      in ANC's #2, #4, #17, ...

........................................................................
.............................. CYCLE   22 ..............................
........................................................................
   1    -42.0076672 -0.420077E+02  0.327E-02    2.61       0.0  T
   2    -42.0076677 -0.446158E-06  0.194E-02    2.61       1.0  T
   3    -42.0076672  0.467241E-06  0.623E-03    2.61       3.1  T
   4    -42.0076679 -0.677529E-06  0.300E-03    2.61       6.5  T
   5    -42.0076680 -0.564098E-07  0.214E-03    2.61       9.2  T
   6    -42.0076680 -0.223304E-07  0.149E-03    2.61      13.1  T
   7    -42.0076680 -0.182694E-07  0.930E-04    2.61      21.1  T
   8    -42.0076680 -0.824165E-08  0.328E-04    2.61      59.8  T
     SCC iter.                  ...        0 min,  0.034 sec
     gradient                   ...        0 min,  0.004 sec
 * total energy  :   -41.4708521 Eh     change       -0.1165883E-03 Eh
   gradient norm :     0.0040754 Eh/α   predicted    -0.8635995E-04 ( -25.93%)
   displ. norm   :     0.0903138 α      lambda       -0.1062977E-03
   maximum displ.:     0.0507328 α      in ANC's #4, #2, #3, ...

........................................................................
.............................. CYCLE   23 ..............................
........................................................................
   1    -42.0084317 -0.420084E+02  0.380E-02    2.61       0.0  T
   2    -42.0084323 -0.631787E-06  0.224E-02    2.61       1.0  T
   3    -42.0084310  0.129777E-05  0.930E-03    2.61       2.1  T
   4    -42.0084327 -0.168020E-05  0.356E-03    2.61       5.5  T
   5    -42.0084327 -0.700774E-07  0.260E-03    2.61       7.6  T
   6    -42.0084328 -0.366538E-07  0.185E-03    2.61      10.6  T
   7    -42.0084328 -0.286068E-07  0.111E-03    2.61      17.7  T
   8    -42.0084328 -0.117282E-07  0.415E-04    2.61      47.3  T
   9    -42.0084328 -0.150481E-08  0.198E-04    2.61      98.9  T
     SCC iter.                  ...        0 min,  0.038 sec
     gradient                   ...        0 min,  0.004 sec
 * total energy  :   -41.4709171 Eh     change       -0.6497965E-04 Eh
   gradient norm :     0.0021841 Eh/α   predicted    -0.5360830E-04 ( -17.50%)
   displ. norm   :     0.0830407 α      lambda       -0.4709080E-04
   maximum displ.:     0.0518813 α      in ANC's #2, #4, #1, ...

........................................................................
.............................. CYCLE   24 ..............................
........................................................................
   1    -42.0083755 -0.420084E+02  0.313E-02    2.61       0.0  T
   2    -42.0083760 -0.420478E-06  0.182E-02    2.61       1.1  T
   3    -42.0083758  0.115345E-06  0.529E-03    2.61       3.7  T
   4    -42.0083762 -0.337381E-06  0.330E-03    2.61       5.9  T
   5    -42.0083762 -0.668883E-07  0.225E-03    2.61       8.7  T
   6    -42.0083763 -0.225823E-07  0.163E-03    2.61      12.0  T
   7    -42.0083763 -0.243112E-07  0.863E-04    2.61      22.7  T
   8    -42.0083763 -0.699846E-08  0.308E-04    2.61      63.7  T
     SCC iter.                  ...        0 min,  0.034 sec
     gradient                   ...        0 min,  0.004 sec
 * total energy  :   -41.4709498 Eh     change       -0.3274191E-04 Eh
   gradient norm :     0.0026068 Eh/α   predicted    -0.2371509E-04 ( -27.57%)
   displ. norm   :     0.1122532 α      lambda       -0.4557391E-04
   maximum displ.:     0.0692355 α      in ANC's #4, #2, #1, ...

........................................................................
.............................. CYCLE   25 ..............................
........................................................................
   1    -42.0080745 -0.420081E+02  0.380E-02    2.61       0.0  T
   2    -42.0080749 -0.410017E-06  0.219E-02    2.61       1.0  T
   3    -42.0080747  0.187926E-06  0.480E-03    2.61       4.1  T
   4    -42.0080750 -0.294893E-06  0.278E-03    2.61       7.1  T
   5    -42.0080750 -0.683011E-07  0.159E-03    2.61      12.4  T
   6    -42.0080751 -0.130406E-07  0.116E-03    2.61      17.0  T
   7    -42.0080751 -0.779455E-08  0.769E-04    2.61      25.5  T
   8    -42.0080751 -0.544001E-08  0.349E-04    2.61      56.2  T
     SCC iter.                  ...        0 min,  0.034 sec
     gradient                   ...        0 min,  0.004 sec
 * total energy  :   -41.4709850 Eh     change       -0.3515912E-04 Eh
   gradient norm :     0.0024970 Eh/α   predicted    -0.2308116E-04 ( -34.35%)
   displ. norm   :     0.1236945 α      lambda       -0.4406342E-04
   maximum displ.:     0.0751232 α      in ANC's #2, #4, #1, ...

........................................................................
.............................. CYCLE   26 ..............................
........................................................................
   1    -42.0079553 -0.420080E+02  0.406E-02    2.61       0.0  T
   2    -42.0079557 -0.411514E-06  0.233E-02    2.61       1.0  T
   3    -42.0079558 -0.786902E-07  0.416E-03    2.61       4.7  T
   4    -42.0079559 -0.748491E-07  0.286E-03    2.61       6.8  T
   5    -42.0079559 -0.599308E-07  0.187E-03    2.61      10.5  T
   6    -42.0079559 -0.214462E-07  0.134E-03    2.61      14.6  T
   7    -42.0079560 -0.105265E-07  0.725E-04    2.61      27.1  T
   8    -42.0079560 -0.555948E-08  0.302E-04    2.61      64.9  T
     SCC iter.                  ...        0 min,  0.034 sec
     gradient                   ...        0 min,  0.004 sec
 * total energy  :   -41.4710204 Eh     change       -0.3546097E-04 Eh
   gradient norm :     0.0022032 Eh/α   predicted    -0.2236902E-04 ( -36.92%)
   displ. norm   :     0.1612861 α      lambda       -0.4818426E-04
   maximum displ.:     0.0962204 α      in ANC's #2, #4, #1, ...

........................................................................
.............................. CYCLE   27 ..............................
........................................................................
   1    -42.0079506 -0.420080E+02  0.530E-02    2.61       0.0  T
   2    -42.0079512 -0.555755E-06  0.305E-02    2.61       1.0  T
   3    -42.0079512 -0.964185E-08  0.576E-03    2.61       3.4  T
   4    -42.0079514 -0.261592E-06  0.383E-03    2.61       5.1  T
   5    -42.0079515 -0.102203E-06  0.242E-03    2.61       8.1  T
   6    -42.0079516 -0.305844E-07  0.176E-03    2.61      11.1  T
   7    -42.0079516 -0.148841E-07  0.110E-03    2.61      17.8  T
   8    -42.0079516 -0.171262E-07  0.293E-04    2.61      66.9  T
   9    -42.0079516 -0.788724E-09  0.130E-04    2.61     150.3  T
     SCC iter.                  ...        0 min,  0.038 sec
     gradient                   ...        0 min,  0.004 sec
 * total energy  :   -41.4710585 Eh     change       -0.3808283E-04 Eh
   gradient norm :     0.0022385 Eh/α   predicted    -0.2472062E-04 ( -35.09%)
   displ. norm   :     0.1810043 α      lambda       -0.4431542E-04
   maximum displ.:     0.1067685 α      in ANC's #2, #4, #1, ...

........................................................................
.............................. CYCLE   28 ..............................
........................................................................
   1    -42.0080138 -0.420080E+02  0.598E-02    2.61       0.0  T
   2    -42.0080144 -0.624923E-06  0.344E-02    2.61       1.0  T
   3    -42.0080143  0.104054E-06  0.705E-03    2.61       2.8  T
   4    -42.0080148 -0.510648E-06  0.448E-03    2.61       4.4  T
   5    -42.0080150 -0.129620E-06  0.276E-03    2.61       7.1  T
   6    -42.0080150 -0.313768E-07  0.207E-03    2.61       9.5  T
   7    -42.0080150 -0.269859E-07  0.121E-03    2.61      16.2  T
   8    -42.0080150 -0.206691E-07  0.270E-04    2.61      72.7  T
   9    -42.0080150 -0.535856E-09  0.144E-04    2.61     136.1  T
     SCC iter.                  ...        0 min,  0.039 sec
     gradient                   ...        0 min,  0.004 sec
 * total energy  :   -41.4710938 Eh     change       -0.3525845E-04 Eh
   gradient norm :     0.0022196 Eh/α   predicted    -0.2288389E-04 ( -35.10%)
   displ. norm   :     0.1936930 α      lambda       -0.4229930E-04
   maximum displ.:     0.1131761 α      in ANC's #2, #1, #4, ...

........................................................................
.............................. CYCLE   29 ..............................
........................................................................
   1    -42.0081007 -0.420081E+02  0.640E-02    2.60       0.0  T
   2    -42.0081013 -0.676086E-06  0.369E-02    2.60       1.0  T
   3    -42.0081012  0.184060E-06  0.779E-03    2.60       2.5  T
   4    -42.0081018 -0.675130E-06  0.485E-03    2.60       4.0  T
   5    -42.0081020 -0.149335E-06  0.290E-03    2.60       6.8  T
   6    -42.0081020 -0.240475E-07  0.226E-03    2.60       8.7  T
   7    -42.0081021 -0.501417E-07  0.100E-03    2.60      19.6  T
   8    -42.0081021 -0.122192E-07  0.275E-04    2.60      71.2  T
   9    -42.0081021 -0.528502E-09  0.157E-04    2.60     124.9  T
     SCC iter.                  ...        0 min,  0.038 sec
     gradient                   ...        0 min,  0.004 sec
 * total energy  :   -41.4711277 Eh     change       -0.3395383E-04 Eh
   gradient norm :     0.0020864 Eh/α   predicted    -0.2194595E-04 ( -35.37%)
   displ. norm   :     0.2223771 α      lambda       -0.4406301E-04
   maximum displ.:     0.1280242 α      in ANC's #2, #1, #4, ...

........................................................................
.............................. CYCLE   30 ..............................
........................................................................
   1    -42.0081127 -0.420081E+02  0.726E-02    2.60       0.0  T
   2    -42.0081136 -0.918487E-06  0.419E-02    2.60       1.0  T
   3    -42.0081135  0.140295E-06  0.871E-03    2.60       2.3  T
   4    -42.0081142 -0.768045E-06  0.559E-03    2.60       3.5  T
   5    -42.0081145 -0.213929E-06  0.331E-03    2.60       5.9  T
   6    -42.0081145 -0.255878E-07  0.260E-03    2.60       7.5  T
   7    -42.0081146 -0.765696E-07  0.922E-04    2.60      21.3  T
   8    -42.0081146 -0.922507E-08  0.317E-04    2.60      61.9  T
     SCC iter.                  ...        0 min,  0.034 sec
     gradient                   ...        0 min,  0.004 sec
 * total energy  :   -41.4711616 Eh     change       -0.3387022E-04 Eh
   gradient norm :     0.0019930 Eh/α   predicted    -0.2312241E-04 ( -31.73%)
   displ. norm   :     0.3306044 α      lambda       -0.3636293E-04
   maximum displ.:     0.1899244 α      in ANC's #1, #2, #4, ...

........................................................................
.............................. CYCLE   31 ..............................
........................................................................
   1    -42.0078596 -0.420079E+02  0.105E-01    2.60       0.0  T
   2    -42.0078617 -0.210938E-05  0.603E-02    2.60       1.0  T
   3    -42.0078618 -0.946582E-07  0.119E-02    2.60       1.6  T
   4    -42.0078629 -0.111009E-05  0.810E-03    2.60       2.4  T
   5    -42.0078634 -0.510663E-06  0.480E-03    2.60       4.1  T
   6    -42.0078635 -0.791259E-07  0.372E-03    2.60       5.3  T
   7    -42.0078636 -0.119934E-06  0.177E-03    2.60      11.1  T
   8    -42.0078637 -0.404694E-07  0.473E-04    2.60      41.4  T
   9    -42.0078637 -0.868276E-09  0.276E-04    2.60      71.1  T
     SCC iter.                  ...        0 min,  0.038 sec
     gradient                   ...        0 min,  0.004 sec
 * total energy  :   -41.4711929 Eh     change       -0.3132141E-04 Eh
   gradient norm :     0.0019616 Eh/α   predicted    -0.1906592E-04 ( -39.13%)
   displ. norm   :     0.0660742 α      lambda       -0.1233661E-04
   maximum displ.:     0.0324794 α      in ANC's #1, #5, #3, ...

........................................................................
.............................. CYCLE   32 ..............................
........................................................................
   1    -42.0088468 -0.420088E+02  0.199E-02    2.61       0.0  T
   2    -42.0088470 -0.181415E-06  0.115E-02    2.61       1.7  T
   3    -42.0088467  0.266181E-06  0.428E-03    2.61       4.6  T
   4    -42.0088471 -0.364915E-06  0.125E-03    2.61      15.7  T
   5    -42.0088471 -0.461681E-08  0.755E-04    2.61      26.0  T
   6    -42.0088471 -0.325628E-08  0.567E-04    2.61      34.6  T
     SCC iter.                  ...        0 min,  0.026 sec
     gradient                   ...        0 min,  0.004 sec
 * total energy  :   -41.4712031 Eh     change       -0.1013601E-04 Eh
   gradient norm :     0.0014620 Eh/α   predicted    -0.6180711E-05 ( -39.02%)
   displ. norm   :     0.2028663 α      lambda       -0.1452503E-04
   maximum displ.:     0.1120097 α      in ANC's #1, #2, #4, ...

........................................................................
.............................. CYCLE   33 ..............................
........................................................................
   1    -42.0079979 -0.420080E+02  0.614E-02    2.61       0.0  T
   2    -42.0079987 -0.833329E-06  0.355E-02    2.61       1.0  T
   3    -42.0079990 -0.294389E-06  0.639E-03    2.61       3.1  T
   4    -42.0079992 -0.182060E-06  0.465E-03    2.61       4.2  T
   5    -42.0079994 -0.153077E-06  0.302E-03    2.61       6.5  T
   6    -42.0079994 -0.549744E-07  0.214E-03    2.61       9.2  T
   7    -42.0079994 -0.229858E-07  0.115E-03    2.61      17.0  T
   8    -42.0079995 -0.218824E-07  0.342E-04    2.61      57.4  T
   9    -42.0079995 -0.982944E-09  0.199E-04    2.61      98.8  T
     SCC iter.                  ...        0 min,  0.038 sec
     gradient                   ...        0 min,  0.004 sec
 * total energy  :   -41.4712131 Eh     change       -0.1001369E-04 Eh
   gradient norm :     0.0016902 Eh/α   predicted    -0.7397396E-05 ( -26.13%)
   displ. norm   :     0.0400191 α      lambda       -0.7456360E-05
   maximum displ.:     0.0277001 α      in ANC's #3, #9, #7, ...

........................................................................
.............................. CYCLE   34 ..............................
........................................................................
   1    -42.0084759 -0.420085E+02  0.103E-02    2.61       0.0  T
   2    -42.0084759 -0.441304E-07  0.591E-03    2.61       3.3  T
   3    -42.0084759  0.121068E-07  0.133E-03    2.61      14.8  T
   4    -42.0084759 -0.244876E-07  0.708E-04    2.61      27.7  T
   5    -42.0084759 -0.410817E-08  0.433E-04    2.61      45.3  T
     SCC iter.                  ...        0 min,  0.021 sec
     gradient                   ...        0 min,  0.004 sec
 * total energy  :   -41.4712216 Eh     change       -0.8536280E-05 Eh
   gradient norm :     0.0012073 Eh/α   predicted    -0.3732369E-05 ( -56.28%)
   displ. norm   :     0.0719127 α      lambda       -0.8738362E-05
   maximum displ.:     0.0531917 α      in ANC's #3, #9, #2, ...

........................................................................
.............................. CYCLE   35 ..............................
........................................................................
   1    -42.0087146 -0.420087E+02  0.175E-02    2.61       0.0  T
   2    -42.0087147 -0.121623E-06  0.101E-02    2.61       1.9  T
   3    -42.0087147 -0.138356E-08  0.197E-03    2.61      10.0  T
   4    -42.0087147 -0.313847E-07  0.137E-03    2.61      14.3  T
   5    -42.0087148 -0.212855E-07  0.809E-04    2.61      24.2  T
   6    -42.0087148 -0.352151E-08  0.567E-04    2.61      34.6  T
     SCC iter.                  ...        0 min,  0.025 sec
     gradient                   ...        0 min,  0.004 sec
 * total energy  :   -41.4712303 Eh     change       -0.8744198E-05 Eh
   gradient norm :     0.0008257 Eh/α   predicted    -0.4382921E-05 ( -49.88%)
   displ. norm   :     0.0802567 α      lambda       -0.4841205E-05
   maximum displ.:     0.0508750 α      in ANC's #3, #1, #9, ...

........................................................................
.............................. CYCLE   36 ..............................
........................................................................
   1    -42.0086913 -0.420087E+02  0.187E-02    2.61       0.0  T
   2    -42.0086914 -0.989638E-07  0.108E-02    2.61       1.8  T
   3    -42.0086914  0.387730E-07  0.244E-03    2.61       8.0  T
   4    -42.0086915 -0.902497E-07  0.136E-03    2.61      14.4  T
   5    -42.0086915 -0.103915E-07  0.909E-04    2.61      21.6  T
   6    -42.0086915 -0.485585E-08  0.665E-04    2.61      29.5  T
     SCC iter.                  ...        0 min,  0.026 sec
     gradient                   ...        0 min,  0.004 sec
 * total energy  :   -41.4712351 Eh     change       -0.4770355E-05 Eh
   gradient norm :     0.0007686 Eh/α   predicted    -0.2428157E-05 ( -49.10%)
   displ. norm   :     0.0779168 α      lambda       -0.3948579E-05
   maximum displ.:     0.0515839 α      in ANC's #3, #1, #4, ...

   *** GEOMETRY OPTIMIZATION CONVERGED AFTER 36 ITERATIONS ***

------------------------------------------------------------------------
 total energy gain   :        -0.0348903 Eh      -21.8940 kcal/mol
 total RMSD          :         1.1993509 a0        0.6347 Å
 total power (kW/mol):        -2.5445695 (step)  -45.9814 (real)
------------------------------------------------------------------------

 ANCopt (total)                0 d,  0 h,  0 min,  1.992 sec
 optimizer setup                ...        0 min,  0.000 sec (  0.009%)
 model hessian                  ...        0 min,  0.009 sec (  0.446%)
 ANC generation                 ...        0 min,  0.005 sec (  0.230%)
 coordinate transformation      ...        0 min,  0.001 sec (  0.050%)
 single point calculation       ...        0 min,  1.961 sec ( 98.442%)
 optimization log               ...        0 min,  0.004 sec (  0.201%)
 hessian update                 ...        0 min,  0.001 sec (  0.063%)
 rational function              ...        0 min,  0.007 sec (  0.353%)

================
 final structure:
================
26
 xtb: 6.5.1 (fef0646)
N            1.18449995402687        0.51284914387409        0.07413545803713
C            2.64345766115851        0.45724337740286        0.09267825290550
C            3.12523787751223       -0.07466268547586        1.44848913237550
C            4.60713886507232       -0.21020014988375        1.47225560266035
C            5.35626409587012       -1.33521423794789        1.31210450803682
C            6.74268673254134       -1.09732363418390        1.35421688569626
C            7.05990963418455        0.22116570419711        1.54219480570416
C            8.35290191273606        0.81836936347437        1.64545642156364
C            8.67168769124500        2.13755468001662        1.83482215919345
C           10.05887654881732        2.36715539253521        1.89909247739656
C           10.78630969861128        1.22907909256363        1.75845679533054
S            9.79227316866575       -0.15660574086662        1.54373923232000
S            5.61707539257242        1.18950358920184        1.66747195498449
Cl           0.10731169518684       -2.15556313058670        0.67345875474215
H            0.83846814209121        0.80772246150973       -0.83177427337747
H            0.83925843254662        1.15501523603500        0.77974779463262
H            0.60672141949700       -0.91239761457952        0.38888429526133
H            3.10434551252040        1.43771311933213       -0.09548947854407
H            2.96120287626935       -0.22767341478468       -0.69697114806405
H            2.66764021273807       -1.04838873321462        1.62582470058638
H            2.80008738963411        0.61072912706890        2.23503326863827
H            4.92480547121539       -2.31073162106280        1.17634679724074
H            7.48984003012863       -1.86431900522338        1.25281607643793
H            7.92758038993095        2.90866493096407        1.92465780697832
H           10.49669018692923        3.33850533601837        2.04457601988285
H           11.85135900830470        1.11162941362043        1.76809569938219

 Bond Distances (Angstroems)
 ---------------------------
N1-C2=1.4601         N1-H15=1.0136        N1-H16=1.0146        C2-N1=1.4601         C2-C3=1.5340         C2-H18=1.0996        
C2-H19=1.0925        C3-C2=1.5340         C3-C4=1.4883         C3-H20=1.0904        C3-H21=1.0928        C4-C3=1.4883         
C4-C5=1.3611         C4-S13=1.7370        C5-C4=1.3611         C5-C6=1.4073         C5-H22=1.0753        C6-C5=1.4073         
C6-C7=1.3691         C6-H23=1.0755        C7-C6=1.3691         C7-C8=1.4280         C7-S13=1.7422        C8-C7=1.4280         
C8-C9=1.3703         C8-S12=1.7415        C9-C8=1.3703         C9-C10=1.4075        C9-H24=1.0753        C10-C9=1.4075        
C10-C11=1.3580       C10-H25=1.0753       C11-C10=1.3580       C11-S12=1.7188       C11-H26=1.0715       S12-C8=1.7415        
S12-C11=1.7188       S13-C4=1.7370        S13-C7=1.7422        Cl14-H17=1.3696      H15-N1=1.0136        H16-N1=1.0146        
H17-Cl14=1.3696      H18-C2=1.0996        H19-C2=1.0925        H20-C3=1.0904        H21-C3=1.0928        H22-C5=1.0753        
H23-C6=1.0755        H24-C9=1.0753        H25-C10=1.0753       H26-C11=1.0715       
 C  H  Rav=1.0832 sigma=0.0099  Rmin=1.0715  Rmax=1.0996     9
 C  C  Rav=1.4137 sigma=0.0578  Rmin=1.3580  Rmax=1.5340     9
 N  H  Rav=1.0141 sigma=0.0005  Rmin=1.0136  Rmax=1.0146     2
 N  C  Rav=1.4601 sigma=0.0000  Rmin=1.4601  Rmax=1.4601     1
 S  C  Rav=1.7349 sigma=0.0095  Rmin=1.7188  Rmax=1.7422     4
 Cl H  Rav=1.3696 sigma=0.0000  Rmin=1.3696  Rmax=1.3696     1

 selected bond angles (degree)
 --------------------
H15-N1-C2=111.32               H16-N1-C2=110.81               H16-N1-H15=108.74              C3-C2-N1=109.77                
H18-C2-N1=112.50               H18-C2-C3=109.19               H19-C2-N1=107.78               H19-C2-C3=109.27               
H19-C2-H18=108.26              C4-C3-C2=111.00                H20-C3-C2=108.76               H20-C3-C4=109.51               
H21-C3-C2=108.98               H21-C3-C4=109.99               H21-C3-H20=108.55              C5-C4-C3=128.42                
S13-C4-C3=120.49               S13-C4-C5=111.06               C6-C5-C4=113.51                H22-C5-C4=122.95               
H22-C5-C6=123.53               C7-C6-C5=113.28                H23-C6-C5=124.12               H23-C6-C7=122.60               
C8-C7-C6=128.50                S13-C7-C6=110.69               S13-C7-C8=120.81               C9-C8-C7=128.55                
S12-C8-C7=120.67               S12-C8-C9=110.78               C10-C9-C8=113.12               H24-C9-C8=122.74               
H24-C9-C10=124.14              C11-C10-C9=112.74              H25-C10-C9=123.70              H25-C10-C11=123.57             

 selected dihedral angles (degree)
 ---------------------------------
C3-C2-N1-H15=183.48           C3-C2-N1-H16= 62.33           H18-C2-N1-H15= 61.67          H18-C2-N1-H16=300.53          
H19-C2-N1-H15=302.40          H19-C2-N1-H16=181.25          C4-C3-C2-N1=177.03            C4-C3-C2-H18=300.78           
C4-C3-C2-H19= 59.03           H20-C3-C2-N1= 56.48           H20-C3-C2-H18=180.24          H20-C3-C2-H19=298.49          
H21-C3-C2-N1=298.31           H21-C3-C2-H18= 62.07          H21-C3-C2-H19=180.32          C5-C4-C3-C2=259.54            
C5-C4-C3-H20= 19.64           C5-C4-C3-H21=138.85           S13-C4-C3-C2= 77.12           S13-C4-C3-H20=197.22          
S13-C4-C3-H21=316.43          C6-C5-C4-C3=178.27            C6-C5-C4-S13=  0.50           H22-C5-C4-C3=357.71           
H22-C5-C4-S13=179.95          C7-C6-C5-C4=359.73            C7-C6-C5-H22=180.29           H23-C6-C5-C4=179.58           
H23-C6-C5-H22=  0.15          C8-C7-C6-C5=179.44            C8-C7-C6-H23=359.58           S13-C7-C6-C5=359.91           
S13-C7-C6-H23=180.05          C9-C8-C7-C6=180.07            C9-C8-C7-S13=359.55           S12-C8-C7-C6=359.59           
S12-C8-C7-S13=179.07          C10-C9-C8-C7=179.52           C10-C9-C8-S12=359.96          H24-C9-C8-C7=359.58           
H24-C9-C8-S12=180.02          C11-C10-C9-C8=  0.04          C11-C10-C9-H24=179.97         H25-C10-C9-C8=180.08          
H25-C10-C9-H24=  0.00         

 CMA Distance (Angstroems)
 ---------------------------
R(CMA):  6.9910
           -------------------------------------------------
          |                Final Singlepoint                |
           -------------------------------------------------

          ...................................................
          :                      SETUP                      :
          :.................................................:
          :  # basis functions                  86          :
          :  # atomic orbitals                  83          :
          :  # shells                           43          :
          :  # electrons                        76          :
          :  max. iterations                   250          :
          :  Hamiltonian                  GFN2-xTB          :
          :  restarted?                      false          :
          :  GBSA solvation                  false          :
          :  PC potential                    false          :
          :  electronic temp.          300.0000000     K    :
          :  accuracy                    1.0000000          :
          :  -> integral cutoff          0.2500000E+02      :
          :  -> integral neglect         0.1000000E-07      :
          :  -> SCF convergence          0.1000000E-05 Eh   :
          :  -> wf. convergence          0.1000000E-03 e    :
          :  Broyden damping             0.4000000          :
          ...................................................

 iter      E             dE          RMSdq      gap      omega  full diag
   1    -42.0086915 -0.420087E+02  0.416E-04    2.61       0.0  T
   2    -42.0086915 -0.536566E-09  0.343E-04    2.61      57.3  T
   3    -42.0086915 -0.344436E-09  0.290E-04    2.61      67.7  T

   *** convergence criteria satisfied after 3 iterations ***

         #    Occupation            Energy/Eh            Energy/eV
      -------------------------------------------------------------
         1        2.0000           -1.0217615             -27.8035
       ...           ...                  ...                  ...
        32        2.0000           -0.4211275             -11.4595
        33        2.0000           -0.4049131             -11.0182
        34        2.0000           -0.4013893             -10.9224
        35        2.0000           -0.3995976             -10.8736
        36        2.0000           -0.3986892             -10.8489
        37        2.0000           -0.3986268             -10.8472
        38        2.0000           -0.3699046             -10.0656 (HOMO)
        39                         -0.2741153              -7.4591 (LUMO)
        40                         -0.2217220              -6.0334
        41                         -0.2155166              -5.8645
        42                         -0.2015962              -5.4857
        43                         -0.1780439              -4.8448
       ...                                ...                  ...
        83                          0.7011504              19.0793
      -------------------------------------------------------------
                  HL-Gap            0.0957893 Eh            2.6066 eV
             Fermi-level           -0.3220100 Eh           -8.7623 eV

 SCC (total)                   0 d,  0 h,  0 min,  0.020 sec
 SCC setup                      ...        0 min,  0.000 sec (  0.508%)
 Dispersion                     ...        0 min,  0.000 sec (  1.877%)
 classical contributions        ...        0 min,  0.000 sec (  0.247%)
 integral evaluation            ...        0 min,  0.002 sec (  8.601%)
 iterations                     ...        0 min,  0.013 sec ( 66.228%)
 molecular gradient             ...        0 min,  0.004 sec ( 19.061%)
 printout                       ...        0 min,  0.001 sec (  2.690%)

         :::::::::::::::::::::::::::::::::::::::::::::::::::::
         ::                     SUMMARY                     ::
         :::::::::::::::::::::::::::::::::::::::::::::::::::::
         :: total energy             -41.471235118878 Eh    ::
         :: gradient norm              0.000767192284 Eh/a0 ::
         :: HOMO-LUMO gap              2.606558837517 eV    ::
         ::.................................................::
         :: SCC energy               -42.008691486750 Eh    ::
         :: -> isotropic ES            0.028609555714 Eh    ::
         :: -> anisotropic ES         -0.005920990718 Eh    ::
         :: -> anisotropic XC          0.016500534300 Eh    ::
         :: -> dispersion             -0.027095673052 Eh    ::
         :: repulsion energy           0.537637602432 Eh    ::
         :: add. restraining           0.000000000000 Eh    ::
         :: total charge               0.000000000000 e     ::
         :::::::::::::::::::::::::::::::::::::::::::::::::::::

           -------------------------------------------------
          |                Property Printout                |
           -------------------------------------------------

    * Orbital Energies and Occupations

         #    Occupation            Energy/Eh            Energy/eV
      -------------------------------------------------------------
         1        2.0000           -1.0217615             -27.8035
       ...           ...                  ...                  ...
        26        2.0000           -0.4691742             -12.7669
        27        2.0000           -0.4670669             -12.7095
        28        2.0000           -0.4596546             -12.5078
        29        2.0000           -0.4541836             -12.3590
        30        2.0000           -0.4508154             -12.2673
        31        2.0000           -0.4470805             -12.1657
        32        2.0000           -0.4211275             -11.4595
        33        2.0000           -0.4049131             -11.0182
        34        2.0000           -0.4013893             -10.9224
        35        2.0000           -0.3995976             -10.8736
        36        2.0000           -0.3986892             -10.8489
        37        2.0000           -0.3986268             -10.8472
        38        2.0000           -0.3699046             -10.0656 (HOMO)
        39                         -0.2741153              -7.4591 (LUMO)
        40                         -0.2217220              -6.0334
        41                         -0.2155166              -5.8645
        42                         -0.2015962              -5.4857
        43                         -0.1780439              -4.8448
        44                         -0.1500751              -4.0838
        45                         -0.1390179              -3.7829
        46                         -0.1060247              -2.8851
        47                         -0.0605138              -1.6467
        48                         -0.0164460              -0.4475
        49                          0.0010976               0.0299
       ...                                ...                  ...
        83                          0.7011504              19.0793
      -------------------------------------------------------------
                  HL-Gap            0.0957893 Eh            2.6066 eV
             Fermi-level           -0.3220100 Eh           -8.7623 eV

     #   Z          covCN         q      C6AA      α(0)
     1   7 N        2.686    -0.305    27.861     7.839
     2   6 C        3.733     0.010    20.492     6.461
     3   6 C        3.827    -0.076    21.921     6.662
     4   6 C        2.987     0.022    27.515     8.604
     5   6 C        3.109    -0.053    29.168     8.848
     6   6 C        3.107    -0.051    29.130     8.843
     7   6 C        3.022     0.019    27.556     8.611
     8   6 C        3.023     0.020    27.543     8.609
     9   6 C        3.111    -0.051    29.116     8.840
    10   6 C        3.109    -0.042    28.894     8.807
    11   6 C        2.941    -0.020    28.499     8.756
    12  16 S        2.330    -0.032   142.396    20.084
    13  16 S        2.353    -0.058   143.466    20.159
    14  17 Cl       0.838    -0.481   114.998    16.405
    15   1 H        0.860     0.168     1.285     1.776
    16   1 H        0.860     0.169     1.279     1.772
    17   1 H        0.893     0.333     0.621     1.233
    18   1 H        0.923     0.032     2.553     2.499
    19   1 H        0.924     0.055     2.255     2.348
    20   1 H        0.924     0.077     2.014     2.219
    21   1 H        0.924     0.054     2.274     2.358
    22   1 H        0.926     0.044     2.396     2.420
    23   1 H        0.926     0.044     2.396     2.421
    24   1 H        0.926     0.041     2.433     2.439
    25   1 H        0.926     0.038     2.474     2.460
    26   1 H        0.926     0.045     2.385     2.415

 Mol. C6AA /au·bohr⁶  :      11769.192223
 Mol. C8AA /au·bohr⁸  :     357747.979795
 Mol. α(0) /au        :        173.888732


Wiberg/Mayer (AO) data.
largest (>0.10) Wiberg bond orders for each atom

 ---------------------------------------------------------------------------
     #   Z sym  total        # sym  WBO       # sym  WBO       # sym  WBO
 ---------------------------------------------------------------------------
     1   7 N    3.233 --     2 C    1.008    15 H    0.958    16 H    0.957
                            17 H    0.200
     2   6 C    3.972 --     1 N    1.008     3 C    0.986    19 H    0.975
                            18 H    0.972
     3   6 C    3.992 --     4 C    1.026     2 C    0.986    21 H    0.967
                            20 H    0.963
     4   6 C    3.935 --     5 C    1.582    13 S    1.151     3 C    1.026
     5   6 C    3.985 --     4 C    1.582     6 C    1.293    22 H    0.963
     6   6 C    3.986 --     7 C    1.520     5 C    1.293    23 H    0.961
     7   6 C    3.950 --     6 C    1.520     8 C    1.152    13 S    1.116
     8   6 C    3.952 --     9 C    1.516     7 C    1.152    12 S    1.127
                            11 C    0.101
     9   6 C    3.984 --     8 C    1.516    10 C    1.296    24 H    0.962
    10   6 C    3.988 --    11 C    1.608     9 C    1.296    25 H    0.965
    11   6 C    3.933 --    10 C    1.608    12 S    1.191    26 H    0.970
                             8 C    0.101
    12  16 S    2.604 --    11 C    1.191     8 C    1.127
    13  16 S    2.569 --     4 C    1.151     7 C    1.116
    14  17 Cl   0.772 --    17 H    0.685
    15   1 H    0.971 --     1 N    0.958
    16   1 H    0.971 --     1 N    0.957
    17   1 H    0.889 --    14 Cl   0.685     1 N    0.200
    18   1 H    0.999 --     2 C    0.972
    19   1 H    0.997 --     2 C    0.975
    20   1 H    0.994 --     3 C    0.963
    21   1 H    0.996 --     3 C    0.967
    22   1 H    0.998 --     5 C    0.963
    23   1 H    0.998 --     6 C    0.961
    24   1 H    0.998 --     9 C    0.962
    25   1 H    0.998 --    10 C    0.965
    26   1 H    0.997 --    11 C    0.970
 ---------------------------------------------------------------------------

Topologies differ in total number of bonds
Writing topology from bond orders to xtbtopo.mol

molecular dipole:
                 x           y           z       tot (Debye)
 q only:        0.618       1.631      -0.357
   full:        0.503       1.578      -0.371       4.314
molecular quadrupole (traceless):
                xx          xy          yy          xz          yz          zz
 q only:        5.608       0.771      -6.403       0.113       3.081       0.795
  q+dip:        5.534       5.927      -1.705       0.054       3.095      -3.829
   full:        5.593       6.129      -3.416       0.183       2.399      -2.177

           -------------------------------------------------
          |                Geometry Summary                 |
           -------------------------------------------------

      molecular mass/u    :      245.7918636
   center of mass at/Å    :        5.6186851       0.0941228       1.2694331
  moments of inertia/u·Å² :        0.3065597E+03   0.3328250E+04   0.3566367E+04
rotational constants/cm⁻¹ :        0.5498972E-01   0.5065013E-02   0.4726836E-02

 * 25 selected distances

     #   Z          #   Z                                           value/Å
     1   7 N        2   6 C                                       1.4601349
     2   6 C        3   6 C                                       1.5340338
     3   6 C        4   6 C                                       1.4882763
     4   6 C        5   6 C                                       1.3610636
     5   6 C        6   6 C                                       1.4073143
     6   6 C        7   6 C                                       1.3690802
     7   6 C        8   6 C                                       1.4279862
     8   6 C        9   6 C                                       1.3703043
     9   6 C       10   6 C                                       1.4075299
    10   6 C       11   6 C                                       1.3579968
     8   6 C       12  16 S                                       1.7414686
    11   6 C       12  16 S                                       1.7188180
     4   6 C       13  16 S                                       1.7370240
     7   6 C       13  16 S                                       1.7421664 (max)
     1   7 N       15   1 H                                       1.0135881 (min)
     1   7 N       16   1 H                                       1.0146221
     2   6 C       18   1 H                                       1.0996117
     2   6 C       19   1 H                                       1.0925289
     3   6 C       20   1 H                                       1.0904064
     3   6 C       21   1 H                                       1.0927656
     5   6 C       22   1 H                                       1.0752772
     6   6 C       23   1 H                                       1.0755474
     9   6 C       24   1 H                                       1.0753499
    10   6 C       25   1 H                                       1.0753451
    11   6 C       26   1 H                                       1.0715491

 * 5 distinct bonds (by element types)

   Z      Z             #   av. dist./Å        max./Å        min./Å
   1 H    6 C           9     1.0831535     1.0996117     1.0715491
   6 C    6 C           9     1.4137317     1.5340338     1.3579968
   1 H    7 N           2     1.0141051     1.0146221     1.0135881
   6 C    7 N           1     1.4601349     1.4601349     1.4601349
   6 C   16 S           4     1.7348693     1.7421664     1.7188180


optimized geometry written to: xtbopt.xyz


           -------------------------------------------------
          | TOTAL ENERGY              -41.471235118878 Eh   |
          | GRADIENT NORM               0.000767192284 Eh/α |
          | HOMO-LUMO GAP               2.606558837517 eV   |
           -------------------------------------------------

------------------------------------------------------------------------
 * finished run on 2023/01/23 at 14:05:38.104     
------------------------------------------------------------------------
 total:
 * wall-time:     0 d,  0 h,  0 min,  2.115 sec
 *  cpu-time:     0 d,  0 h,  3 min, 31.719 sec
 * ratio c/w:   100.089 speedup
 SCF:
 * wall-time:     0 d,  0 h,  0 min,  0.082 sec
 *  cpu-time:     0 d,  0 h,  0 min, 11.400 sec
 * ratio c/w:   139.637 speedup
 ANC optimizer:
 * wall-time:     0 d,  0 h,  0 min,  2.013 sec
 *  cpu-time:     0 d,  0 h,  3 min, 17.716 sec
 * ratio c/w:    98.217 speedup

