37
 energy: -58.306978542333 gnorm: 0.000434743353 xtb: 6.5.1 (fef0646)
N            0.81570503746609        1.74907839272505       -0.40487638312426
C            1.94489800169022        1.39482869040378       -1.28235764853316
C            3.27359060264963        1.57684154156623       -0.53606066468329
O            4.35263798059038        1.01729026165337       -1.25829604193373
C            4.91077763430821        1.70003627743894       -2.29908702447735
C            5.94306984291534        1.02353702849211       -2.98474007707778
C            6.35406704525753       -0.28872608556267       -2.61225025964552
C            7.34327301431850       -0.92900088228415       -3.27873651153097
C            6.58846220055338        1.66014615406410       -4.06952820128147
C            6.20494526364196        2.96616864067336       -4.46370285889749
C            5.18248318217092        3.59886966764987       -3.76038523904100
C            4.54448334193360        2.97920854387939       -2.70223884898470
C            6.87699345385121        3.58156995406577       -5.55956883890438
C            7.86664192244224        2.94125034569073       -6.22366951736742
C            8.27487569193382        1.62519021973210       -5.85273465586273
C            9.29193503987630        0.94590551783770       -6.52473335413035
C            9.66389120241905       -0.32976994694816       -6.13947700709328
C            9.03580350149627       -0.95716015071909       -5.07978431490331
C            8.01307945038913       -0.31591417059969       -4.37726435559288
C            7.62431094989087        0.98986175934801       -4.76533390936554
Cl           1.14773946955957        0.31596685308567        2.25781856936680
H           -0.07829626115221        1.50607662056050       -0.83853798836801
H            0.82358060771148        2.74386648232573       -0.16667156116725
H            0.88849418718040        1.22034681480567        0.50566818230537
H            1.92436655506648        2.00451580824290       -2.18728223609035
H            1.86720068879754        0.34381600078637       -1.56201535893870
H            3.23077134606341        1.00792632271859        0.39711354053276
H            3.46794875667033        2.62644554693361       -0.29518601566290
H            5.85095867346546       -0.75554984408277       -1.77946880508139
H            7.64748066731335       -1.92454641267843       -2.98885472294047
H            4.88223200940461        4.59463312545728       -4.05049584324515
H            3.76635084550871        3.51971567266311       -2.18984660978975
H            6.57501094816909        4.57830175821102       -5.84710577487627
H            8.37267002387946        3.41400268263086       -7.05315822981336
H            9.78956561746248        1.42791704355885       -7.35377412804683
H           10.45323452247245       -0.84032945290704       -6.67172666672599
H            9.33285698265898       -1.95323678142501       -4.78497063901177
