12
 energy: -20.044989632594 gnorm: 0.000341702295 xtb: 6.5.1 (fef0646)
N            1.03141045354538        0.31147279691721        0.34697053436294
C            2.48104744809355        0.17626771226100        0.35300500763714
C            3.16173792788205        0.92193238524928        1.50105669648242
F            2.74148956751143        0.40365438377033        2.70382138080360
Cl          -0.02672534002356       -0.97761256340674       -2.09741080786248
H            0.43592237978977       -0.41316825470848       -0.96006213235622
H            0.75669812778225        1.28709114065602        0.29029881204715
H            0.63741299130064       -0.08351652774885        1.19544678682200
H            2.87094676891713        0.55840020286975       -0.59224234155561
H            2.71620375861225       -0.88761164023953        0.42529364597663
H            2.89283433469775        1.98418477521509        1.50864208537264
H            4.24859158189182        0.80811558916481        1.46480033226955
