 Entering Gaussian System
 *********************************************
 Gaussian 98:
 frequency output generated by the xtb code
 *********************************************
                         Standard orientation:
 --------------------------------------------------------------------
  Center     Atomic     Atomic              Coordinates (Angstroms)
  Number     Number      Type              X           Y           Z
 --------------------------------------------------------------------
    1          7             0       -3.782556    0.196681    0.881413
    2          6             0       -3.261631    0.140816   -0.514649
    3          6             0       -1.727602    0.057508   -0.618264
    4          6             0       -1.148696   -1.228604    0.020696
    5          6             0        0.373902   -1.317452   -0.184689
    6          6             0        1.099971   -0.069215    0.362016
    7          6             0        2.585890   -0.155583    0.098351
    8          8             0        3.298086    0.978563    0.227077
    9          8             0        3.078713   -1.217047   -0.203629
   10          6             0        0.508556    1.222227   -0.241754
   11          6             0       -1.014553    1.300775   -0.032919
   12          1             0       -3.429000    1.020400    1.389930
   13          1             0       -3.523159   -0.642209    1.420804
   14          1             0       -4.812466    0.255097    0.894466
   15          1             0       -3.617099    1.023597   -1.059289
   16          1             0       -3.709538   -0.720982   -1.023686
   17          1             0       -1.466056    0.020915   -1.688855
   18          1             0       -1.652073   -2.115742   -0.383181
   19          1             0       -1.367833   -1.226941    1.093167
   20          1             0        0.609088   -1.417686   -1.250690
   21          1             0        0.793789   -2.219704    0.280981
   22          1             0        0.967025   -0.038023    1.453517
   23          1             0        4.233165    0.775698    0.053274
   24          1             0        0.743902    1.248654   -1.311715
   25          1             0        1.018562    2.096085    0.185673
   26          1             0       -1.424890    2.218277   -0.472219
   27          1             0       -1.227789    1.365278    1.038752
 --------------------------------------------------------------------
     1 basis functions        1 primitive gaussians
     1 alpha electrons        1 beta electrons

 Harmonic frequencies (cm**-1), IR intensities (km*mol⁻¹),
 Raman scattering activities (A**4/amu), Raman depolarization ratios,
 reduced masses (AMU), force constants (mDyne/A) and normal coordinates:
                      1                      2                      3
                        a                      a                      a 
 Frequencies --    65.3161               101.5538               108.6203
 Red. masses --    12.2431                12.9703                 9.7212
 Frc consts  --     0.0000                 0.0000                 0.0000
 IR Inten    --     2.4347                 8.3122                14.4653
 Raman Activ --     0.0000                 0.0000                 0.0000
 Depolar     --     0.0000                 0.0000                 0.0000
 Atom AN      X      Y      Z        X      Y      Z        X      Y      Z
   1   7    -0.20   0.08  -0.30     0.18   0.20   0.18     0.01   0.57  -0.03
   2   6     0.06  -0.04  -0.18    -0.03  -0.06   0.11    -0.00  -0.13  -0.01
   3   6     0.08  -0.05   0.09    -0.05  -0.10  -0.07    -0.00  -0.12   0.01
   4   6     0.00   0.00   0.27    -0.01  -0.06  -0.01     0.05  -0.19  -0.16
   5   6     0.01  -0.05   0.34    -0.00  -0.05  -0.00     0.06  -0.10  -0.16
   6   6     0.06  -0.01   0.19    -0.04  -0.01  -0.06    -0.00  -0.13   0.00
   7   6     0.01   0.02  -0.13    -0.02   0.04   0.03     0.01   0.03  -0.00
   8   8     0.06  -0.03   0.02    -0.02  -0.03   0.64    -0.15   0.15  -0.11
   9   8    -0.08   0.11  -0.59    -0.02   0.17  -0.36     0.16   0.09   0.07
  10   6     0.01  -0.02   0.19    -0.01  -0.09  -0.25    -0.06  -0.08   0.19
  11   6     0.01  -0.03   0.13    -0.00  -0.04  -0.26    -0.06  -0.18   0.21
  12   1    -0.07   0.03  -0.08     0.09   0.06   0.00    -0.02   0.24  -0.13
  13   1    -0.09   0.03  -0.05     0.04   0.07   0.07     0.03   0.24   0.12
  14   1    -0.05   0.03  -0.13     0.05   0.09   0.09     0.00   0.12  -0.01
  15   1     0.05  -0.02  -0.09    -0.02  -0.04   0.00    -0.01  -0.11  -0.11
  16   1     0.04  -0.02  -0.05    -0.04  -0.04   0.09     0.00  -0.10   0.11
  17   1     0.07  -0.04   0.04    -0.04  -0.06  -0.03     0.00   0.01   0.00
  18   1     0.00  -0.01   0.10     0.00  -0.02   0.01     0.03  -0.04  -0.09
  19   1    -0.02   0.04   0.07    -0.00  -0.01  -0.00     0.00  -0.11  -0.05
  20   1     0.01  -0.05   0.10     0.00  -0.03   0.00     0.02   0.01  -0.05
  21   1    -0.01  -0.00   0.13    -0.00  -0.01   0.01     0.03  -0.04  -0.08
  22   1     0.07   0.02   0.06    -0.03   0.03  -0.02     0.00  -0.09   0.00
  23   1     0.01  -0.00  -0.05     0.00   0.01   0.18    -0.03   0.07  -0.03
  24   1     0.01  -0.00   0.06    -0.00  -0.07  -0.07    -0.02   0.02   0.05
  25   1    -0.00  -0.00   0.06    -0.00  -0.01  -0.11    -0.03  -0.03   0.09
  26   1     0.01  -0.01   0.03    -0.00  -0.03  -0.11    -0.03  -0.04   0.11
  27   1    -0.02  -0.01   0.03     0.01   0.03  -0.08    -0.01  -0.11   0.07
                      4                      5                      6
                        a                      a                      a 
 Frequencies --   143.8186               177.4253               189.3182
 Red. masses --     2.2733                10.6538                10.5059
 Frc consts  --     0.0000                 0.0000                 0.0000
 IR Inten    --     0.9141                23.0275                 6.0486
 Raman Activ --     0.0000                 0.0000                 0.0000
 Depolar     --     0.0000                 0.0000                 0.0000
 Atom AN      X      Y      Z        X      Y      Z        X      Y      Z
   1   7    -0.00   0.04  -0.01     0.54  -0.06   0.05    -0.16  -0.06  -0.01
   2   6     0.01   0.11  -0.00     0.11   0.09  -0.09     0.01   0.31   0.03
   3   6     0.00  -0.06   0.01     0.08   0.02  -0.20     0.00   0.08   0.07
   4   6    -0.01  -0.07   0.01    -0.09  -0.02  -0.14    -0.11   0.01   0.08
   5   6    -0.00  -0.08   0.01    -0.06  -0.08   0.22    -0.10  -0.22   0.02
   6   6    -0.00  -0.07   0.01    -0.10  -0.07   0.26     0.02  -0.25  -0.06
   7   6     0.00   0.03   0.00    -0.15  -0.00   0.05     0.04  -0.02  -0.01
   8   8    -0.12   0.12  -0.06    -0.28   0.09  -0.17    -0.33   0.22   0.02
   9   8     0.11   0.08   0.03    -0.16   0.05  -0.08     0.39   0.14  -0.01
  10   6     0.00  -0.08   0.01     0.02  -0.04   0.21     0.13  -0.24  -0.14
  11   6     0.01  -0.07   0.00     0.00   0.01  -0.10     0.18  -0.01   0.01
  12   1     0.43  -0.27   0.16     0.15  -0.00  -0.01    -0.22   0.04   0.03
  13   1    -0.46  -0.23  -0.15     0.25  -0.01  -0.03     0.09   0.02  -0.01
  14   1     0.03   0.55  -0.01     0.14  -0.07   0.11    -0.05  -0.20  -0.03
  15   1     0.06   0.08   0.04     0.01   0.05   0.02     0.05   0.15   0.07
  16   1    -0.05   0.08  -0.04    -0.00   0.04  -0.03    -0.02   0.15  -0.08
  17   1     0.00  -0.02   0.00     0.04   0.01  -0.05    -0.00   0.01   0.02
  18   1    -0.01  -0.02   0.00    -0.01   0.00  -0.08    -0.07   0.02   0.04
  19   1    -0.01  -0.01   0.00    -0.09  -0.02  -0.05    -0.01   0.02   0.03
  20   1    -0.00  -0.02   0.00     0.05  -0.05   0.08    -0.04  -0.09   0.01
  21   1    -0.00  -0.02   0.01    -0.05  -0.02   0.11    -0.06  -0.07   0.02
  22   1    -0.00  -0.02   0.00    -0.02  -0.02   0.07     0.00  -0.05  -0.02
  23   1    -0.03   0.05  -0.02    -0.08   0.05  -0.10    -0.06   0.13   0.02
  24   1     0.00  -0.02   0.00     0.07  -0.00   0.07     0.01  -0.11  -0.05
  25   1     0.00  -0.02  -0.00    -0.01  -0.02   0.09     0.08  -0.08  -0.08
  26   1     0.01  -0.02   0.00     0.03   0.00  -0.06     0.07   0.01   0.01
  27   1     0.01  -0.02   0.00    -0.06   0.02  -0.04     0.07   0.01   0.01
                      7                      8                      9
                        a                      a                      a 
 Frequencies --   246.0242               263.9274               307.8071
 Red. masses --     6.9680                 9.3443                10.7965
 Frc consts  --     0.0000                 0.0000                 0.0000
 IR Inten    --     0.2875                10.1346                 2.0803
 Raman Activ --     0.0000                 0.0000                 0.0000
 Depolar     --     0.0000                 0.0000                 0.0000
 Atom AN      X      Y      Z        X      Y      Z        X      Y      Z
   1   7     0.06  -0.01  -0.03    -0.33   0.02   0.17    -0.20  -0.00   0.03
   2   6     0.04  -0.13  -0.03    -0.18   0.02   0.17     0.24  -0.12   0.16
   3   6     0.03  -0.03   0.03    -0.14  -0.01  -0.15     0.24   0.06   0.18
   4   6     0.05   0.14   0.35     0.00  -0.01  -0.26     0.20  -0.10  -0.11
   5   6    -0.08   0.02  -0.32     0.08   0.03   0.08     0.15  -0.02  -0.07
   6   6    -0.03  -0.15  -0.05     0.11  -0.06   0.28    -0.11   0.02   0.08
   7   6    -0.03  -0.08  -0.02     0.12  -0.00   0.08    -0.20  -0.03   0.09
   8   8    -0.20   0.00   0.03     0.18   0.01  -0.10    -0.34   0.02  -0.03
   9   8     0.09  -0.03  -0.02     0.13   0.04  -0.07    -0.36  -0.04  -0.05
  10   6     0.07   0.06   0.28     0.11  -0.07   0.23     0.19   0.04  -0.12
  11   6    -0.02   0.14  -0.24     0.01   0.02  -0.37     0.24   0.18  -0.04
  12   1     0.04   0.00  -0.03    -0.12   0.01   0.06    -0.09  -0.00   0.03
  13   1     0.00   0.00   0.01    -0.11   0.01   0.06    -0.15   0.01   0.06
  14   1     0.02   0.02  -0.00    -0.09  -0.00  -0.00    -0.05   0.03  -0.11
  15   1    -0.01  -0.07  -0.04    -0.06   0.01   0.05     0.05  -0.07  -0.00
  16   1     0.03  -0.07   0.02    -0.06   0.01   0.05     0.13  -0.08   0.06
  17   1     0.02  -0.08   0.01    -0.12  -0.01  -0.06     0.04   0.03   0.04
  18   1    -0.07   0.01   0.26     0.05  -0.00  -0.14     0.05   0.02  -0.12
  19   1     0.16   0.18   0.13    -0.07  -0.06  -0.09     0.03  -0.12  -0.04
  20   1    -0.14   0.12  -0.13     0.09   0.03   0.03     0.07   0.03  -0.02
  21   1     0.03  -0.04  -0.22    -0.03  -0.01   0.02     0.07  -0.00  -0.04
  22   1    -0.01  -0.13  -0.01     0.04  -0.04   0.08    -0.09   0.02   0.01
  23   1    -0.04   0.04   0.02     0.03  -0.00  -0.09    -0.09   0.04  -0.05
  24   1     0.12   0.13   0.11     0.14  -0.00   0.09     0.05  -0.05  -0.04
  25   1    -0.02  -0.03   0.21    -0.03  -0.01   0.12     0.10   0.00  -0.07
  26   1     0.05  -0.00  -0.20     0.08  -0.02  -0.23     0.06   0.02  -0.07
  27   1    -0.11   0.17  -0.10    -0.11   0.12  -0.13     0.08   0.12  -0.01
                     10                     11                     12
                        a                      a                      a 
 Frequencies --   321.3168               388.8597               432.9045
 Red. masses --     8.1118                 7.8717                10.3672
 Frc consts  --     0.0000                 0.0000                 0.0000
 IR Inten    --     0.1201                 2.6956                 4.8614
 Raman Activ --     0.0000                 0.0000                 0.0000
 Depolar     --     0.0000                 0.0000                 0.0000
 Atom AN      X      Y      Z        X      Y      Z        X      Y      Z
   1   7    -0.02   0.07  -0.01    -0.05   0.01   0.04    -0.05  -0.00   0.05
   2   6     0.09   0.40   0.02     0.11   0.03   0.08    -0.09  -0.04   0.01
   3   6     0.04  -0.35   0.06     0.10  -0.04   0.04    -0.06  -0.12  -0.18
   4   6     0.09  -0.31   0.13    -0.03  -0.16  -0.07    -0.06   0.05   0.02
   5   6     0.09   0.06  -0.13    -0.00  -0.20   0.19    -0.05   0.37   0.10
   6   6    -0.04   0.10   0.02    -0.02   0.07  -0.38     0.14   0.21   0.05
   7   6    -0.06   0.09   0.05    -0.01  -0.06  -0.27     0.05  -0.21  -0.04
   8   8     0.09   0.02  -0.02    -0.12  -0.05   0.08    -0.39  -0.03   0.05
   9   8    -0.23   0.04   0.02     0.15  -0.10   0.07     0.11  -0.20  -0.06
  10   6    -0.04   0.07   0.03    -0.03   0.35   0.12     0.25   0.21  -0.05
  11   6    -0.03  -0.24  -0.12    -0.07   0.13  -0.08     0.20  -0.30  -0.02
  12   1    -0.11   0.03   0.05    -0.05   0.00   0.03    -0.01  -0.00   0.01
  13   1     0.07   0.02  -0.04    -0.03   0.00   0.02    -0.02  -0.00   0.01
  14   1    -0.01  -0.09  -0.02    -0.01  -0.00  -0.04    -0.01   0.00   0.02
  15   1     0.20   0.25   0.11     0.05   0.02   0.03    -0.04  -0.01   0.00
  16   1    -0.12   0.26  -0.12     0.02   0.03   0.01    -0.04  -0.01   0.02
  17   1     0.01  -0.15   0.02     0.03  -0.01   0.01    -0.05  -0.05  -0.06
  18   1     0.05  -0.11   0.06     0.00  -0.02  -0.10     0.05  -0.04   0.03
  19   1     0.07  -0.09   0.04    -0.08  -0.11  -0.03    -0.05   0.06  -0.00
  20   1    -0.02   0.10  -0.06     0.05  -0.26   0.08    -0.03   0.14   0.02
  21   1     0.11   0.02  -0.12    -0.01   0.04   0.24     0.01   0.10  -0.01
  22   1    -0.04   0.00   0.00     0.07   0.03  -0.10     0.06   0.11   0.01
  23   1     0.01  -0.03  -0.03     0.00   0.00   0.18    -0.07   0.13   0.02
  24   1     0.03   0.05   0.02     0.05   0.30   0.05     0.12   0.10  -0.00
  25   1    -0.06   0.03   0.05    -0.05   0.03   0.22    -0.02   0.08   0.04
  26   1    -0.05  -0.11  -0.07    -0.05  -0.01  -0.09    -0.01  -0.04   0.15
  27   1    -0.03  -0.03  -0.04    -0.07   0.09  -0.04     0.12  -0.25   0.02
                     13                     14                     15
                        a                      a                      a 
 Frequencies --   453.2769               477.8662               569.9278
 Red. masses --     9.3204                 8.9945                10.0606
 Frc consts  --     0.0000                 0.0000                 0.0000
 IR Inten    --     3.4837                 7.6545                43.7588
 Raman Activ --     0.0000                 0.0000                 0.0000
 Depolar     --     0.0000                 0.0000                 0.0000
 Atom AN      X      Y      Z        X      Y      Z        X      Y      Z
   1   7     0.06  -0.04  -0.07     0.09   0.01  -0.10    -0.02   0.01   0.09
   2   6     0.03  -0.11  -0.04    -0.05   0.05  -0.09     0.40  -0.01   0.16
   3   6     0.01  -0.05   0.22    -0.07  -0.00   0.29     0.23  -0.03  -0.22
   4   6    -0.43  -0.28   0.05     0.07  -0.13   0.01    -0.07   0.06  -0.03
   5   6    -0.39   0.10  -0.02     0.10   0.24   0.05    -0.15   0.06   0.00
   6   6    -0.08   0.03   0.01     0.07   0.10   0.16    -0.19   0.04   0.09
   7   6     0.00   0.09   0.05     0.09  -0.22  -0.03    -0.09  -0.11   0.18
   8   8     0.22   0.03  -0.04    -0.21  -0.13   0.01     0.03  -0.24  -0.04
   9   8     0.08   0.16   0.01     0.31  -0.16  -0.08     0.36   0.16  -0.07
  10   6     0.23   0.11  -0.03    -0.21  -0.02  -0.04    -0.21   0.09  -0.06
  11   6     0.22   0.03  -0.02    -0.24   0.22   0.02    -0.16  -0.03  -0.03
  12   1     0.05  -0.01  -0.04     0.06  -0.00  -0.04    -0.12   0.01   0.09
  13   1     0.02  -0.01  -0.01     0.07  -0.00  -0.06    -0.12   0.01   0.09
  14   1     0.02   0.01   0.01     0.02  -0.00   0.05    -0.01  -0.00  -0.19
  15   1    -0.02  -0.07  -0.05     0.03   0.04  -0.02     0.11   0.00   0.06
  16   1     0.06  -0.07   0.02    -0.03   0.04  -0.05     0.10   0.00   0.05
  17   1     0.04  -0.04   0.07     0.03   0.00   0.09     0.05  -0.01  -0.07
  18   1    -0.08  -0.03  -0.16     0.09  -0.01  -0.16    -0.05   0.01   0.04
  19   1    -0.20  -0.25  -0.00    -0.03  -0.22  -0.01    -0.04   0.10  -0.01
  20   1    -0.19   0.11  -0.03     0.01   0.18  -0.00    -0.05   0.06  -0.00
  21   1    -0.05   0.01  -0.11     0.07   0.04  -0.08    -0.02   0.01  -0.03
  22   1    -0.04   0.01   0.00     0.06   0.06   0.05    -0.11   0.04   0.02
  23   1     0.04  -0.06  -0.04    -0.03   0.06  -0.01    -0.04  -0.12  -0.22
  24   1     0.10   0.04  -0.00    -0.14  -0.14  -0.03    -0.08  -0.01  -0.02
  25   1     0.06   0.02   0.02    -0.03   0.05  -0.16    -0.06   0.04  -0.05
  26   1     0.04  -0.03  -0.06    -0.03  -0.00  -0.16    -0.10  -0.00   0.06
  27   1     0.09   0.09  -0.00    -0.10   0.25  -0.01    -0.06  -0.11  -0.01
                     16                     17                     18
                        a                      a                      a 
 Frequencies --   592.0100               649.5906               714.6984
 Red. masses --     7.3870                 7.8675                 9.1070
 Frc consts  --     0.0000                 0.0000                 0.0000
 IR Inten    --    12.3388                82.5784               132.5590
 Raman Activ --     0.0000                 0.0000                 0.0000
 Depolar     --     0.0000                 0.0000                 0.0000
 Atom AN      X      Y      Z        X      Y      Z        X      Y      Z
   1   7     0.00  -0.01   0.04    -0.02  -0.00  -0.01     0.01   0.00   0.01
   2   6     0.28  -0.01   0.11    -0.15   0.01  -0.05     0.04  -0.00   0.01
   3   6     0.14  -0.00  -0.11    -0.05  -0.00   0.02     0.01  -0.01  -0.01
   4   6    -0.12   0.06  -0.03     0.13  -0.01  -0.00    -0.06  -0.03   0.00
   5   6    -0.14   0.17   0.05     0.11   0.02   0.02    -0.04  -0.10  -0.05
   6   6     0.12  -0.02   0.08    -0.18   0.01   0.13     0.01  -0.00   0.02
   7   6     0.04   0.11  -0.40    -0.33   0.04  -0.09     0.28  -0.17   0.53
   8   8     0.01   0.15  -0.00    -0.07  -0.29  -0.22     0.02   0.23  -0.27
   9   8    -0.14  -0.12   0.11     0.21   0.31   0.02    -0.05  -0.15  -0.25
  10   6    -0.11  -0.24   0.11     0.10   0.02   0.00    -0.04   0.13  -0.07
  11   6    -0.04  -0.08  -0.02     0.11   0.00   0.01    -0.10   0.05   0.01
  12   1    -0.08   0.00   0.06     0.04  -0.00  -0.03    -0.01   0.00   0.01
  13   1    -0.08   0.00   0.06     0.03  -0.00  -0.03    -0.01   0.00   0.01
  14   1     0.00  -0.00  -0.13    -0.00   0.00   0.07     0.00  -0.00  -0.02
  15   1     0.07  -0.01   0.03    -0.04   0.01  -0.01     0.02   0.00   0.01
  16   1     0.08  -0.01   0.03    -0.04   0.01  -0.02     0.00   0.00   0.00
  17   1     0.04  -0.00  -0.03    -0.02   0.00   0.00     0.01   0.00   0.00
  18   1    -0.00   0.02  -0.05     0.04  -0.02   0.03    -0.05   0.00   0.02
  19   1    -0.10   0.01  -0.02     0.07   0.01   0.01     0.00   0.02   0.00
  20   1    -0.09   0.15  -0.01     0.07   0.04   0.01    -0.00  -0.05  -0.01
  21   1    -0.04  -0.00  -0.10     0.05   0.01   0.01    -0.03  -0.02   0.01
  22   1     0.20  -0.03   0.04    -0.04   0.01   0.04    -0.16   0.02  -0.01
  23   1     0.08   0.00   0.48     0.03  -0.39   0.53     0.11   0.07   0.53
  24   1    -0.08  -0.18   0.02     0.06  -0.02   0.01    -0.01   0.06  -0.02
  25   1    -0.01  -0.02  -0.09     0.04  -0.00  -0.00    -0.02   0.03  -0.00
  26   1     0.04  -0.03  -0.06     0.02   0.01   0.04    -0.07   0.01   0.02
  27   1    -0.09   0.01  -0.02     0.07  -0.03   0.01    -0.01  -0.01   0.01
                     19                     20                     21
                        a                      a                      a 
 Frequencies --   797.8844               804.9643               822.1730
 Red. masses --     8.7644                 3.1877                 3.8425
 Frc consts  --     0.0000                 0.0000                 0.0000
 IR Inten    --     5.5681                30.8053                 7.2813
 Raman Activ --     0.0000                 0.0000                 0.0000
 Depolar     --     0.0000                 0.0000                 0.0000
 Atom AN      X      Y      Z        X      Y      Z        X      Y      Z
   1   7    -0.09   0.01   0.13     0.01   0.12  -0.00    -0.00  -0.08   0.00
   2   6    -0.13   0.01  -0.10     0.02   0.25  -0.00    -0.01  -0.12   0.00
   3   6     0.12  -0.01  -0.33     0.01   0.14  -0.00     0.01   0.11  -0.00
   4   6    -0.05  -0.35   0.06     0.05  -0.04   0.14     0.12   0.13   0.17
   5   6     0.04  -0.28   0.03     0.10  -0.07   0.09     0.07  -0.08   0.18
   6   6    -0.03   0.01   0.22    -0.00  -0.05  -0.00    -0.01  -0.15  -0.00
   7   6     0.04   0.00  -0.19     0.00   0.00   0.00    -0.00   0.01  -0.02
   8   8     0.04   0.06   0.05     0.00  -0.00  -0.01     0.02   0.02   0.00
   9   8     0.02  -0.09   0.03    -0.01  -0.00  -0.00    -0.02  -0.01   0.01
  10   6     0.07   0.27   0.01    -0.11  -0.07  -0.08    -0.08  -0.10  -0.17
  11   6    -0.02   0.36   0.04    -0.05  -0.05  -0.14    -0.10   0.12  -0.17
  12   1    -0.00  -0.00   0.03    -0.11  -0.14   0.36     0.07   0.08  -0.22
  13   1    -0.00  -0.00   0.02     0.10  -0.17  -0.35    -0.06   0.10   0.21
  14   1    -0.02   0.00   0.07    -0.01  -0.11   0.00     0.00   0.06  -0.00
  15   1    -0.08   0.00  -0.00    -0.20  -0.19  -0.28     0.09   0.11   0.16
  16   1    -0.07   0.00   0.00     0.18  -0.20   0.29    -0.08   0.11  -0.17
  17   1     0.05  -0.00  -0.08    -0.00  -0.04   0.00    -0.00  -0.04   0.00
  18   1    -0.09  -0.12   0.15     0.06   0.02  -0.10     0.11   0.11  -0.22
  19   1     0.00   0.07   0.02    -0.07  -0.13   0.02    -0.17  -0.18   0.00
  20   1    -0.06   0.13  -0.03    -0.07   0.11  -0.01    -0.15   0.21  -0.01
  21   1     0.14  -0.11  -0.18     0.10  -0.06  -0.12     0.09  -0.12  -0.21
  22   1     0.06  -0.00   0.07    -0.00   0.03  -0.00     0.00   0.04  -0.00
  23   1     0.02   0.08  -0.01     0.00  -0.00   0.01     0.00  -0.00   0.01
  24   1    -0.06  -0.12  -0.02     0.08   0.11   0.01     0.17   0.19   0.00
  25   1     0.14   0.09  -0.18    -0.10  -0.05   0.12    -0.09  -0.11   0.22
  26   1    -0.08   0.13   0.15    -0.05   0.03   0.09    -0.09   0.13   0.21
  27   1    -0.00  -0.08   0.02     0.05  -0.14  -0.02     0.15  -0.20   0.00
                     22                     23                     24
                        a                      a                      a 
 Frequencies --   867.3095               920.4756               923.7613
 Red. masses --     8.1979                 7.4510                 4.4823
 Frc consts  --     0.0000                 0.0000                 0.0000
 IR Inten    --     0.7091                47.0696                17.8419
 Raman Activ --     0.0000                 0.0000                 0.0000
 Depolar     --     0.0000                 0.0000                 0.0000
 Atom AN      X      Y      Z        X      Y      Z        X      Y      Z
   1   7     0.12  -0.01  -0.21     0.32  -0.04  -0.23     0.06   0.06  -0.03
   2   6     0.11   0.00   0.18    -0.01   0.02   0.22    -0.01  -0.07   0.03
   3   6    -0.21   0.01   0.30    -0.37   0.06  -0.09    -0.07  -0.16  -0.02
   4   6    -0.05   0.04  -0.16    -0.09  -0.21   0.04     0.13   0.13   0.15
   5   6    -0.03  -0.15  -0.12     0.14   0.00   0.07    -0.11   0.16  -0.14
   6   6    -0.11   0.00   0.38     0.16   0.02  -0.14    -0.01  -0.12  -0.04
   7   6     0.03  -0.00  -0.26    -0.02   0.03   0.11    -0.01   0.00   0.01
   8   8     0.07   0.07   0.06    -0.07  -0.08  -0.02     0.01   0.02   0.00
   9   8     0.06  -0.11   0.04    -0.05   0.08  -0.00    -0.01   0.00   0.00
  10   6    -0.01   0.16  -0.13     0.08  -0.07   0.03     0.15   0.08   0.15
  11   6    -0.07  -0.03  -0.17    -0.02   0.15   0.07    -0.11   0.24  -0.13
  12   1    -0.00  -0.00  -0.03    -0.15   0.03   0.04    -0.07  -0.03   0.13
  13   1     0.00  -0.00  -0.04    -0.17   0.01   0.09     0.01  -0.04  -0.09
  14   1     0.03  -0.00  -0.12     0.08  -0.00  -0.48     0.01  -0.04  -0.08
  15   1     0.07  -0.00   0.02    -0.08   0.00   0.10     0.11   0.01  -0.02
  16   1     0.07  -0.00   0.02    -0.03   0.00   0.08    -0.14   0.02   0.05
  17   1    -0.16   0.01   0.06    -0.19   0.05  -0.04    -0.04  -0.25  -0.00
  18   1    -0.16   0.03   0.09     0.02  -0.12   0.10     0.16   0.06  -0.18
  19   1     0.20   0.07   0.00    -0.03   0.04   0.01    -0.03  -0.23   0.02
  20   1     0.18  -0.02   0.01    -0.02   0.05  -0.00    -0.01  -0.23  -0.00
  21   1    -0.14  -0.07   0.03     0.13   0.01  -0.04    -0.12   0.11   0.19
  22   1     0.01  -0.00   0.10     0.07   0.04  -0.03    -0.01  -0.26  -0.00
  23   1     0.03   0.09   0.01    -0.03  -0.07  -0.01    -0.00  -0.01  -0.00
  24   1     0.19   0.01   0.01    -0.03   0.02  -0.00    -0.00  -0.23   0.02
  25   1    -0.12   0.08   0.03     0.06  -0.05   0.02     0.17   0.04  -0.16
  26   1    -0.18  -0.01   0.11     0.09   0.09   0.03    -0.11   0.15   0.22
  27   1     0.20  -0.10   0.01    -0.03   0.03   0.01     0.00  -0.23  -0.01
                     25                     26                     27
                        a                      a                      a 
 Frequencies --   936.6292               952.9257               974.8450
 Red. masses --     8.1423                 5.7744                 8.0654
 Frc consts  --     0.0000                 0.0000                 0.0000
 IR Inten    --     1.8825                 6.6412                 8.3232
 Raman Activ --     0.0000                 0.0000                 0.0000
 Depolar     --     0.0000                 0.0000                 0.0000
 Atom AN      X      Y      Z        X      Y      Z        X      Y      Z
   1   7     0.01   0.01   0.09    -0.03  -0.16   0.05    -0.10  -0.02  -0.40
   2   6     0.01  -0.01  -0.10     0.03   0.22  -0.05    -0.03   0.04   0.51
   3   6    -0.01  -0.02  -0.06     0.03   0.27  -0.00     0.05   0.02  -0.09
   4   6     0.07  -0.24  -0.04    -0.12  -0.18   0.19     0.13  -0.02   0.00
   5   6    -0.07   0.35   0.02     0.12   0.04  -0.18    -0.05   0.00   0.11
   6   6    -0.38  -0.01  -0.01    -0.01   0.15   0.01    -0.23   0.01  -0.09
   7   6     0.03  -0.07  -0.11     0.04   0.00   0.01    -0.00  -0.06  -0.01
   8   8     0.13   0.15   0.02    -0.03  -0.05  -0.01     0.08   0.09   0.01
   9   8     0.08  -0.14  -0.03     0.02  -0.01  -0.01     0.05  -0.08  -0.03
  10   6    -0.08  -0.33  -0.05    -0.16  -0.05   0.15    -0.06   0.03   0.13
  11   6     0.07   0.23   0.04     0.09  -0.10  -0.21     0.12  -0.02  -0.02
  12   1    -0.04  -0.00   0.06     0.09   0.07  -0.23     0.19  -0.01  -0.23
  13   1    -0.03  -0.01   0.02    -0.08   0.09   0.24     0.18   0.00  -0.18
  14   1     0.00  -0.01  -0.03     0.00   0.08   0.02    -0.02   0.01   0.22
  15   1    -0.00   0.00  -0.01    -0.28  -0.03   0.03     0.03  -0.02   0.07
  16   1    -0.04   0.00  -0.00     0.28  -0.06  -0.05     0.09   0.00   0.06
  17   1     0.04   0.03  -0.01     0.02  -0.09   0.01    -0.22   0.01  -0.08
  18   1     0.06  -0.16   0.15    -0.09   0.02  -0.02     0.10  -0.04   0.00
  19   1     0.13   0.06   0.01     0.04  -0.16   0.06    -0.07   0.04  -0.02
  20   1     0.11  -0.01   0.05     0.07  -0.18  -0.02    -0.13   0.04  -0.00
  21   1     0.01   0.19   0.16     0.11   0.14   0.14     0.10   0.02  -0.03
  22   1    -0.21   0.05  -0.02    -0.01  -0.12   0.01    -0.12  -0.01  -0.03
  23   1     0.05   0.12   0.01     0.00   0.03   0.01     0.03   0.06   0.01
  24   1     0.11   0.10   0.03    -0.02  -0.15   0.04    -0.14  -0.06   0.00
  25   1     0.01  -0.22   0.22    -0.13   0.09  -0.07     0.08  -0.01  -0.06
  26   1     0.06   0.12   0.09     0.07   0.06   0.08     0.10   0.02  -0.00
  27   1     0.11   0.02   0.03     0.01  -0.18  -0.04    -0.08  -0.06  -0.02
                     28                     29                     30
                        a                      a                      a 
 Frequencies --   985.9408              1025.8475              1052.6320
 Red. masses --     7.4915                 6.5496                 7.6790
 Frc consts  --     0.0000                 0.0000                 0.0000
 IR Inten    --    54.0946                 5.2471                18.9071
 Raman Activ --     0.0000                 0.0000                 0.0000
 Depolar     --     0.0000                 0.0000                 0.0000
 Atom AN      X      Y      Z        X      Y      Z        X      Y      Z
   1   7    -0.19   0.04  -0.04     0.03   0.12  -0.02    -0.07   0.01   0.05
   2   6     0.19  -0.06   0.10    -0.06  -0.28   0.02     0.19  -0.03  -0.04
   3   6     0.03  -0.03   0.02     0.02  -0.00  -0.01    -0.12   0.01   0.03
   4   6    -0.17  -0.19  -0.11    -0.22   0.10   0.05    -0.33   0.11   0.04
   5   6    -0.02   0.13  -0.03     0.18  -0.14  -0.10     0.38   0.03  -0.01
   6   6     0.36   0.00  -0.09    -0.06   0.27   0.02    -0.15   0.02  -0.04
   7   6     0.04   0.08   0.16     0.05   0.00  -0.01    -0.02  -0.01  -0.09
   8   8    -0.14  -0.16  -0.03    -0.02  -0.06  -0.01     0.03   0.02   0.01
   9   8    -0.09   0.14   0.01     0.03  -0.02  -0.01     0.02  -0.03   0.00
  10   6    -0.04  -0.18  -0.02    -0.25  -0.09   0.12     0.36  -0.08   0.01
  11   6    -0.12   0.26  -0.10     0.32   0.05  -0.05    -0.31  -0.07   0.04
  12   1     0.13  -0.03  -0.07    -0.07  -0.04   0.16     0.04  -0.01  -0.01
  13   1     0.16  -0.01  -0.15     0.04  -0.05  -0.15     0.05  -0.00  -0.03
  14   1    -0.05  -0.00   0.30     0.00  -0.05  -0.03    -0.02   0.00   0.10
  15   1     0.17  -0.00  -0.02     0.24   0.04   0.02     0.10  -0.00  -0.03
  16   1     0.06   0.01  -0.02    -0.28   0.07  -0.01     0.08  -0.00  -0.03
  17   1    -0.07   0.00  -0.01     0.01  -0.11   0.00    -0.06  -0.00   0.00
  18   1    -0.11  -0.10   0.15    -0.24   0.16  -0.08    -0.18   0.09  -0.03
  19   1     0.07   0.11  -0.00    -0.05  -0.05   0.01    -0.15   0.04  -0.00
  20   1     0.08  -0.01   0.02     0.05  -0.03  -0.03     0.08   0.02  -0.01
  21   1    -0.05   0.04   0.05     0.16   0.02  -0.01     0.30   0.11   0.01
  22   1     0.26  -0.00   0.00    -0.05   0.08   0.00    -0.21   0.02  -0.03
  23   1    -0.04  -0.10  -0.01     0.02   0.07   0.02     0.02   0.05   0.01
  24   1     0.09   0.03   0.02    -0.08  -0.02   0.03     0.06  -0.04  -0.01
  25   1    -0.06  -0.06   0.08    -0.17   0.05   0.01     0.26  -0.12   0.01
  26   1    -0.07   0.14   0.16     0.29   0.13   0.05    -0.14  -0.06  -0.01
  27   1     0.09  -0.10   0.01     0.06  -0.04  -0.01    -0.16  -0.03  -0.00
                     31                     32                     33
                        a                      a                      a 
 Frequencies --  1061.0865              1068.9074              1108.4006
 Red. masses --     8.4160                 1.6473                 8.7932
 Frc consts  --     0.0000                 0.0000                 0.0000
 IR Inten    --    13.0418                 1.6299                28.5411
 Raman Activ --     0.0000                 0.0000                 0.0000
 Depolar     --     0.0000                 0.0000                 0.0000
 Atom AN      X      Y      Z        X      Y      Z        X      Y      Z
   1   7     0.07  -0.02  -0.22     0.01   0.06  -0.01     0.00  -0.06  -0.00
   2   6    -0.37   0.04   0.33    -0.02  -0.11   0.01    -0.01   0.10  -0.00
   3   6     0.45  -0.04  -0.10     0.03   0.11   0.00     0.01  -0.25   0.03
   4   6    -0.14   0.01   0.07     0.00  -0.06   0.01    -0.28   0.14  -0.05
   5   6     0.06   0.09  -0.13     0.06   0.05   0.02     0.31   0.17   0.07
   6   6     0.07  -0.00   0.09    -0.02  -0.04   0.00    -0.01  -0.36  -0.05
   7   6     0.04   0.05  -0.03     0.04   0.03  -0.00    -0.10  -0.07   0.03
   8   8    -0.03  -0.06  -0.00    -0.01  -0.05  -0.01     0.05   0.18   0.03
   9   8    -0.02   0.03   0.02    -0.01   0.01   0.00     0.01  -0.07  -0.02
  10   6     0.07  -0.11  -0.13    -0.06   0.04  -0.02    -0.28   0.19  -0.03
  11   6    -0.16   0.02   0.07    -0.01  -0.06  -0.02     0.26   0.11   0.00
  12   1    -0.01   0.01  -0.05    -0.03  -0.01   0.06     0.01   0.01  -0.05
  13   1    -0.01  -0.00  -0.04     0.02  -0.02  -0.06    -0.02   0.02   0.06
  14   1     0.02  -0.00  -0.10    -0.00  -0.03  -0.01     0.00   0.01  -0.01
  15   1    -0.18  -0.01   0.11     0.07   0.03   0.04    -0.06  -0.03  -0.05
  16   1    -0.16   0.02   0.12    -0.08   0.03  -0.03     0.05  -0.03   0.05
  17   1     0.34  -0.03   0.03     0.03   0.36  -0.00     0.01  -0.17   0.01
  18   1    -0.14   0.09  -0.04     0.13  -0.11   0.05     0.02  -0.03   0.03
  19   1     0.00  -0.05   0.02    -0.25   0.17  -0.04    -0.14   0.10  -0.03
  20   1     0.12  -0.05  -0.00    -0.26  -0.15  -0.04     0.20   0.11   0.04
  21   1    -0.03   0.06   0.07     0.25   0.14   0.05     0.01  -0.01  -0.01
  22   1    -0.01   0.01   0.02    -0.03  -0.41   0.01     0.08  -0.23   0.00
  23   1    -0.00   0.01   0.00     0.01   0.03   0.01    -0.04  -0.18  -0.03
  24   1     0.12   0.06  -0.01     0.25  -0.17   0.05    -0.16   0.07  -0.03
  25   1     0.00  -0.07   0.08    -0.23   0.16  -0.05     0.03  -0.01  -0.01
  26   1    -0.16  -0.07  -0.04    -0.16  -0.10  -0.05    -0.08  -0.04  -0.01
  27   1    -0.01   0.04   0.02     0.27   0.15   0.04     0.17   0.06   0.02
                     34                     35                     36
                        a                      a                      a 
 Frequencies --  1116.7073              1130.6286              1164.5107
 Red. masses --     7.8519                 8.2552                 7.9010
 Frc consts  --     0.0000                 0.0000                 0.0000
 IR Inten    --   102.9325               131.9902                30.1590
 Raman Activ --     0.0000                 0.0000                 0.0000
 Depolar     --     0.0000                 0.0000                 0.0000
 Atom AN      X      Y      Z        X      Y      Z        X      Y      Z
   1   7    -0.06  -0.04  -0.00     0.05  -0.06   0.02     0.02   0.12   0.00
   2   6     0.15   0.07   0.03    -0.11   0.12  -0.06    -0.03  -0.22  -0.01
   3   6    -0.16  -0.15  -0.20     0.09  -0.19   0.20     0.04   0.35   0.03
   4   6    -0.06   0.06   0.15     0.03   0.11  -0.22    -0.02  -0.18   0.06
   5   6     0.06  -0.02  -0.17    -0.03  -0.04   0.18     0.01   0.20   0.12
   6   6     0.10  -0.05   0.26    -0.16   0.08  -0.18    -0.03  -0.40  -0.01
   7   6     0.20   0.19  -0.14     0.24   0.15   0.05     0.11   0.11  -0.02
   8   8    -0.09  -0.31  -0.03    -0.07  -0.36  -0.07    -0.02  -0.17  -0.03
   9   8    -0.05   0.10   0.06    -0.06   0.15   0.03    -0.07   0.09   0.04
  10   6    -0.05   0.04  -0.19    -0.05  -0.05   0.19    -0.02   0.20  -0.07
  11   6     0.08   0.09   0.21     0.08   0.07  -0.13     0.03  -0.18  -0.12
  12   1     0.05   0.00  -0.07    -0.02   0.02  -0.02    -0.04  -0.02   0.11
  13   1     0.03   0.01   0.01    -0.05   0.01   0.08     0.02  -0.03  -0.10
  14   1    -0.01   0.01   0.07     0.01   0.01  -0.07     0.00  -0.03  -0.01
  15   1    -0.00  -0.02  -0.03    -0.08  -0.02  -0.06     0.04   0.05   0.13
  16   1     0.09  -0.03   0.04     0.02  -0.03   0.04    -0.05   0.05  -0.14
  17   1    -0.06  -0.08  -0.05    -0.01  -0.09   0.04    -0.01   0.12   0.00
  18   1     0.23  -0.09  -0.03    -0.06   0.03   0.03    -0.08  -0.01   0.04
  19   1    -0.18  -0.05   0.00     0.01   0.14  -0.05     0.17  -0.08   0.05
  20   1    -0.00  -0.14  -0.03    -0.06   0.13   0.02     0.18   0.13   0.07
  21   1    -0.16  -0.05   0.04     0.06  -0.04  -0.08    -0.04   0.02   0.02
  22   1    -0.30  -0.05   0.02     0.01  -0.02  -0.04    -0.05  -0.16  -0.01
  23   1     0.06   0.26   0.06     0.10   0.41   0.06     0.05   0.19   0.03
  24   1    -0.04   0.18  -0.05    -0.04  -0.12   0.04    -0.23   0.13  -0.07
  25   1    -0.06  -0.01   0.07     0.16  -0.08  -0.01     0.08   0.01  -0.04
  26   1     0.11   0.02  -0.04    -0.20  -0.05   0.04     0.04  -0.03  -0.03
  27   1    -0.02   0.14   0.04     0.14  -0.07  -0.00    -0.17  -0.12  -0.06
                     37                     38                     39
                        a                      a                      a 
 Frequencies --  1199.6249              1207.5242              1231.2176
 Red. masses --     4.9354                 3.7987                 2.9704
 Frc consts  --     0.0000                 0.0000                 0.0000
 IR Inten    --     2.5997                14.3083                 1.6571
 Raman Activ --     0.0000                 0.0000                 0.0000
 Depolar     --     0.0000                 0.0000                 0.0000
 Atom AN      X      Y      Z        X      Y      Z        X      Y      Z
   1   7     0.05  -0.02   0.02     0.02   0.12  -0.00     0.02   0.00   0.02
   2   6    -0.12   0.03  -0.04    -0.03  -0.14  -0.00    -0.02  -0.00  -0.07
   3   6     0.15  -0.02   0.24     0.03   0.10   0.04     0.04  -0.00  -0.01
   4   6     0.03  -0.04  -0.19    -0.11  -0.01   0.14     0.13  -0.02   0.02
   5   6    -0.03   0.04   0.07     0.10  -0.06  -0.18    -0.11   0.01  -0.14
   6   6     0.25  -0.04   0.11     0.05   0.15   0.00     0.06   0.00   0.27
   7   6     0.18   0.14  -0.14    -0.01  -0.02  -0.01    -0.03  -0.03   0.03
   8   8    -0.12   0.05   0.04    -0.02   0.03   0.01     0.01   0.01  -0.00
   9   8    -0.01  -0.08   0.01     0.02  -0.03  -0.01    -0.00   0.01  -0.00
  10   6     0.00  -0.03   0.04    -0.09  -0.05   0.21    -0.12  -0.01  -0.12
  11   6    -0.00   0.04  -0.13     0.10  -0.01  -0.18     0.14   0.01   0.01
  12   1    -0.03   0.01   0.00    -0.03  -0.01   0.09    -0.02   0.00   0.02
  13   1    -0.04  -0.00   0.03     0.02  -0.02  -0.09    -0.02   0.00   0.02
  14   1     0.01   0.00  -0.04    -0.00  -0.03  -0.00     0.01  -0.00  -0.01
  15   1     0.01  -0.00  -0.05    -0.08   0.04   0.18    -0.01  -0.00  -0.03
  16   1    -0.01  -0.01  -0.00     0.09   0.03  -0.19    -0.01   0.00  -0.03
  17   1    -0.04  -0.03   0.04     0.00   0.20   0.00    -0.30   0.02  -0.08
  18   1    -0.05  -0.02   0.07     0.29  -0.18   0.04    -0.17   0.14  -0.07
  19   1    -0.06   0.17  -0.06    -0.20   0.03   0.00    -0.01  -0.01  -0.01
  20   1    -0.23  -0.07  -0.02     0.10  -0.06  -0.03    -0.25  -0.22  -0.06
  21   1     0.07   0.04   0.00    -0.26  -0.14  -0.02     0.28   0.22   0.12
  22   1    -0.54   0.02  -0.05    -0.07   0.29  -0.02     0.28   0.01   0.10
  23   1    -0.11  -0.36  -0.04    -0.02  -0.07  -0.01     0.01   0.01   0.01
  24   1    -0.16   0.08  -0.02    -0.14  -0.04   0.03    -0.23   0.23  -0.06
  25   1    -0.02   0.02  -0.01     0.24  -0.15   0.02     0.26  -0.25   0.12
  26   1     0.04   0.08   0.07    -0.31  -0.13  -0.01    -0.21  -0.14  -0.06
  27   1    -0.13  -0.16  -0.04     0.16  -0.04  -0.02    -0.00   0.00  -0.01
                     40                     41                     42
                        a                      a                      a 
 Frequencies --  1238.5015              1242.8944              1273.3884
 Red. masses --     5.2326                 2.8303                 6.3922
 Frc consts  --     0.0000                 0.0000                 0.0000
 IR Inten    --    29.0612                21.7764                76.2289
 Raman Activ --     0.0000                 0.0000                 0.0000
 Depolar     --     0.0000                 0.0000                 0.0000
 Atom AN      X      Y      Z        X      Y      Z        X      Y      Z
   1   7    -0.05   0.05  -0.01     0.02   0.22  -0.00    -0.02   0.01  -0.01
   2   6     0.12  -0.04   0.01    -0.03  -0.15   0.00     0.06  -0.00   0.00
   3   6    -0.15  -0.01  -0.26     0.02  -0.10   0.06    -0.05  -0.04  -0.09
   4   6     0.08   0.01   0.06    -0.01   0.07  -0.15     0.02  -0.02  -0.03
   5   6    -0.09  -0.01   0.12    -0.01  -0.04   0.04    -0.01   0.08   0.06
   6   6    -0.05   0.03  -0.08    -0.00   0.07   0.02     0.36  -0.21  -0.04
   7   6     0.34   0.20  -0.03    -0.06  -0.04   0.01    -0.41  -0.20  -0.04
   8   8    -0.15  -0.01   0.02     0.03   0.01  -0.00     0.15   0.02  -0.01
   9   8    -0.02  -0.08  -0.01     0.01   0.01  -0.00     0.00   0.10   0.03
  10   6    -0.05  -0.01   0.08     0.03  -0.04  -0.10     0.00  -0.03   0.15
  11   6     0.07   0.01   0.11    -0.02   0.07   0.11     0.03   0.07  -0.02
  12   1     0.02  -0.02   0.03    -0.05  -0.02   0.16     0.01  -0.01   0.01
  13   1     0.04   0.00  -0.04     0.03  -0.04  -0.16     0.01   0.01  -0.01
  14   1    -0.01  -0.01   0.02    -0.00  -0.05  -0.00    -0.01  -0.00   0.02
  15   1    -0.11   0.01   0.12    -0.34   0.07   0.39    -0.07  -0.00   0.05
  16   1     0.04   0.01  -0.06     0.36   0.01  -0.40    -0.01   0.01  -0.00
  17   1    -0.05  -0.07  -0.07     0.00  -0.35   0.03    -0.00  -0.02  -0.02
  18   1    -0.20   0.17  -0.08     0.03  -0.03   0.03    -0.16   0.09  -0.02
  19   1     0.27  -0.22   0.06    -0.00   0.08  -0.04     0.15  -0.08   0.02
  20   1     0.05   0.11   0.04    -0.12  -0.03  -0.01    -0.12  -0.04  -0.00
  21   1     0.03   0.00  -0.02     0.09   0.02  -0.01     0.07   0.05   0.01
  22   1    -0.16  -0.04  -0.04     0.05  -0.13   0.02    -0.33   0.27  -0.07
  23   1    -0.10  -0.33  -0.05     0.02   0.05   0.01     0.10   0.30   0.05
  24   1     0.06  -0.10   0.04     0.09   0.02  -0.01    -0.08  -0.03   0.02
  25   1     0.03  -0.02   0.01    -0.09   0.03   0.02    -0.16   0.14  -0.07
  26   1    -0.23  -0.15  -0.08     0.08   0.04   0.01    -0.18  -0.06   0.00
  27   1     0.26   0.20   0.06    -0.11  -0.01   0.01     0.20   0.09   0.03
                     43                     44                     45
                        a                      a                      a 
 Frequencies --  1278.7492              1285.2984              1308.6257
 Red. masses --     3.4772                 4.7633                 3.9028
 Frc consts  --     0.0000                 0.0000                 0.0000
 IR Inten    --     8.0744                19.7483                 0.2791
 Raman Activ --     0.0000                 0.0000                 0.0000
 Depolar     --     0.0000                 0.0000                 0.0000
 Atom AN      X      Y      Z        X      Y      Z        X      Y      Z
   1   7    -0.07   0.00  -0.02     0.02   0.01   0.01     0.00   0.05  -0.00
   2   6     0.11  -0.00   0.11    -0.04   0.01  -0.01     0.00   0.05   0.00
   3   6    -0.32   0.02  -0.02     0.06  -0.07   0.03    -0.03  -0.38   0.01
   4   6    -0.04   0.10  -0.14    -0.01   0.07   0.04     0.17  -0.05   0.11
   5   6    -0.06  -0.06   0.00    -0.11  -0.02  -0.15     0.01   0.07  -0.04
   6   6    -0.00  -0.05   0.10    -0.18  -0.40  -0.01    -0.01  -0.06   0.00
   7   6     0.05   0.03   0.00     0.21   0.14   0.01     0.02   0.01  -0.00
   8   8    -0.02  -0.01   0.00    -0.05  -0.04  -0.00    -0.00  -0.01  -0.00
   9   8    -0.01  -0.00   0.00    -0.04  -0.01   0.00    -0.01   0.00   0.00
  10   6    -0.03   0.07   0.04     0.09   0.02   0.07    -0.01   0.08   0.03
  11   6    -0.03  -0.08  -0.14     0.01   0.05   0.03    -0.18  -0.05  -0.12
  12   1     0.06  -0.01  -0.03    -0.01   0.00   0.01     0.00  -0.01   0.03
  13   1     0.06   0.01  -0.03    -0.01  -0.01  -0.00    -0.00  -0.01  -0.03
  14   1    -0.01   0.00   0.01     0.00  -0.01  -0.01    -0.00  -0.03   0.00
  15   1     0.00   0.00   0.06    -0.02   0.00   0.01    -0.17   0.00   0.10
  16   1    -0.01  -0.00   0.07     0.06  -0.01  -0.05     0.17  -0.02  -0.09
  17   1     0.66  -0.04   0.18    -0.09  -0.00  -0.02     0.04   0.45  -0.00
  18   1     0.14  -0.10   0.04     0.12  -0.03  -0.02    -0.31   0.24  -0.10
  19   1     0.14  -0.02  -0.01    -0.12   0.06  -0.02    -0.20   0.06  -0.02
  20   1    -0.16  -0.09  -0.03     0.15  -0.00  -0.00     0.06   0.01   0.01
  21   1     0.26   0.12   0.01     0.28   0.20   0.09    -0.10  -0.01   0.02
  22   1     0.07   0.08   0.03     0.17   0.54   0.01     0.01   0.02   0.00
  23   1    -0.01  -0.03  -0.00    -0.02  -0.08  -0.01    -0.00  -0.00   0.00
  24   1    -0.17   0.09  -0.03     0.02  -0.06   0.02    -0.06   0.02  -0.01
  25   1     0.18  -0.09  -0.01    -0.26   0.22  -0.08     0.12  -0.03  -0.02
  26   1     0.11   0.07   0.04    -0.01   0.01   0.02     0.34   0.21   0.09
  27   1     0.15   0.01  -0.01    -0.03  -0.00   0.00     0.21   0.04   0.01
                     46                     47                     48
                        a                      a                      a 
 Frequencies --  1323.4240              1331.9535              1338.2121
 Red. masses --     3.6484                 3.8536                 4.4864
 Frc consts  --     0.0000                 0.0000                 0.0000
 IR Inten    --    13.2614                 0.4500                 1.7210
 Raman Activ --     0.0000                 0.0000                 0.0000
 Depolar     --     0.0000                 0.0000                 0.0000
 Atom AN      X      Y      Z        X      Y      Z        X      Y      Z
   1   7    -0.07   0.00  -0.17    -0.00   0.00  -0.01     0.00   0.01   0.01
   2   6     0.37  -0.02  -0.17     0.01   0.02  -0.01    -0.01   0.02   0.00
   3   6    -0.02   0.00   0.13    -0.00  -0.27   0.01    -0.01  -0.17  -0.00
   4   6     0.04  -0.02  -0.01    -0.21   0.16  -0.02    -0.05   0.13   0.05
   5   6     0.03   0.02  -0.01     0.14   0.03   0.06    -0.22  -0.19   0.00
   6   6    -0.06   0.00   0.00    -0.01  -0.05   0.00     0.03   0.19   0.00
   7   6     0.02   0.01   0.00     0.02   0.01   0.00    -0.06  -0.03  -0.00
   8   8    -0.00   0.00   0.00    -0.01  -0.01  -0.00     0.01   0.02   0.00
   9   8     0.00  -0.00  -0.00    -0.00  -0.00   0.00     0.02  -0.01  -0.01
  10   6     0.05  -0.03  -0.00    -0.13   0.05  -0.07     0.23  -0.24   0.03
  11   6     0.04   0.02  -0.02     0.21   0.13   0.02     0.05   0.13  -0.07
  12   1     0.01  -0.07   0.06    -0.01   0.00   0.00     0.01   0.00  -0.00
  13   1     0.02   0.07   0.06     0.01   0.01   0.00    -0.01  -0.00  -0.00
  14   1    -0.02   0.00   0.18     0.00   0.03   0.01    -0.00  -0.01  -0.01
  15   1    -0.47   0.01   0.33    -0.07  -0.00   0.04    -0.03  -0.00   0.01
  16   1    -0.47   0.05   0.33     0.04  -0.01  -0.02     0.05  -0.01  -0.02
  17   1    -0.05  -0.00   0.02     0.01   0.46  -0.01     0.02   0.26  -0.01
  18   1    -0.02   0.01   0.01     0.08  -0.03  -0.00     0.13  -0.04  -0.02
  19   1    -0.10   0.08  -0.02     0.36  -0.24   0.07     0.07  -0.09   0.03
  20   1    -0.01  -0.01  -0.01    -0.23  -0.09  -0.03     0.31   0.20   0.06
  21   1    -0.05  -0.02  -0.00     0.00  -0.02  -0.01     0.20   0.08   0.02
  22   1     0.04  -0.00   0.01     0.01   0.07   0.00    -0.03  -0.30   0.01
  23   1    -0.00  -0.01   0.00    -0.00  -0.01  -0.00     0.00   0.01   0.00
  24   1    -0.04   0.03  -0.01     0.23  -0.12   0.04    -0.35   0.28  -0.08
  25   1    -0.06   0.04  -0.01     0.00  -0.03   0.02    -0.22   0.13  -0.05
  26   1    -0.03  -0.01   0.01    -0.04  -0.01   0.01    -0.16  -0.02   0.02
  27   1    -0.09  -0.06  -0.02    -0.37  -0.20  -0.06    -0.03  -0.07  -0.02
                     49                     50                     51
                        a                      a                      a 
 Frequencies --  1350.1408              1359.0652              1385.7669
 Red. masses --     4.6247                 4.9308                 2.9938
 Frc consts  --     0.0000                 0.0000                 0.0000
 IR Inten    --     2.2856                10.0501               223.7001
 Raman Activ --     0.0000                 0.0000                 0.0000
 Depolar     --     0.0000                 0.0000                 0.0000
 Atom AN      X      Y      Z        X      Y      Z        X      Y      Z
   1   7    -0.00   0.00  -0.01     0.02  -0.00  -0.05    -0.17   0.01   0.34
   2   6    -0.00  -0.00  -0.09     0.02  -0.00  -0.01     0.08  -0.00  -0.04
   3   6     0.31  -0.00   0.04    -0.04  -0.00   0.04     0.02  -0.00   0.05
   4   6    -0.26   0.15  -0.04     0.08   0.03   0.04     0.01  -0.01   0.00
   5   6    -0.03  -0.08   0.02    -0.33  -0.15  -0.05    -0.03  -0.01  -0.01
   6   6     0.05   0.01   0.03     0.29   0.01  -0.02     0.03   0.00  -0.01
   7   6    -0.01  -0.00  -0.01    -0.09  -0.02  -0.01    -0.01  -0.01  -0.00
   8   8    -0.00  -0.00   0.00     0.01   0.00   0.00     0.00   0.00   0.00
   9   8    -0.00   0.00   0.00     0.00   0.01   0.01     0.00   0.00   0.00
  10   6    -0.02   0.08   0.02    -0.28   0.15  -0.07    -0.03   0.01  -0.01
  11   6    -0.29  -0.14  -0.04     0.08  -0.02   0.04     0.02   0.01   0.01
  12   1    -0.01  -0.01   0.02    -0.04  -0.00   0.03     0.31   0.10  -0.36
  13   1    -0.01   0.01   0.02    -0.04   0.01   0.03     0.30  -0.15  -0.36
  14   1    -0.00  -0.00  -0.00     0.00   0.00   0.09    -0.02  -0.01  -0.56
  15   1    -0.09   0.02   0.06    -0.03   0.00   0.02    -0.14  -0.03   0.03
  16   1    -0.09  -0.00   0.06    -0.03   0.00   0.02    -0.14   0.05   0.03
  17   1    -0.33  -0.00  -0.09     0.02   0.01   0.02    -0.05   0.00  -0.00
  18   1     0.28  -0.16   0.02     0.05  -0.00  -0.01     0.01   0.01  -0.02
  19   1     0.30  -0.15   0.06    -0.14   0.06  -0.02    -0.03   0.04  -0.00
  20   1    -0.01   0.02   0.00     0.39   0.19   0.07     0.04   0.02   0.01
  21   1     0.14   0.05   0.01     0.28   0.15   0.03     0.02   0.01   0.00
  22   1    -0.04  -0.01   0.00    -0.18  -0.03  -0.04    -0.02  -0.00  -0.00
  23   1     0.00   0.00   0.00     0.01   0.03   0.00     0.00   0.00  -0.00
  24   1    -0.03  -0.01  -0.00     0.33  -0.20   0.06     0.04  -0.03   0.01
  25   1     0.14  -0.07   0.01     0.24  -0.18   0.06     0.01  -0.01   0.01
  26   1     0.30   0.14   0.01     0.04  -0.01  -0.01     0.00  -0.01  -0.02
  27   1     0.34   0.14   0.05    -0.16  -0.06  -0.02    -0.04  -0.04  -0.00
                     52                     53                     54
                        a                      a                      a 
 Frequencies --  1435.2345              1435.3091              1473.2253
 Red. masses --     1.6551                 1.6307                 1.8212
 Frc consts  --     0.0000                 0.0000                 0.0000
 IR Inten    --    76.8103                82.9978                20.2780
 Raman Activ --     0.0000                 0.0000                 0.0000
 Depolar     --     0.0000                 0.0000                 0.0000
 Atom AN      X      Y      Z        X      Y      Z        X      Y      Z
   1   7     0.04   0.22   0.02     0.17  -0.05   0.10    -0.01   0.00   0.01
   2   6     0.02   0.02   0.00     0.08  -0.01   0.01    -0.15   0.00  -0.22
   3   6    -0.00   0.01  -0.00    -0.03   0.00  -0.00    -0.00  -0.00  -0.01
   4   6    -0.01   0.00  -0.00    -0.01  -0.01   0.01     0.01  -0.01   0.01
   5   6     0.01   0.00   0.01     0.01   0.00   0.01    -0.00   0.00  -0.00
   6   6    -0.00  -0.00   0.00    -0.01   0.00   0.00     0.00  -0.00  -0.00
   7   6     0.00   0.00  -0.00     0.00   0.00   0.00    -0.00  -0.00  -0.00
   8   8    -0.00  -0.00  -0.00    -0.00  -0.00  -0.00     0.00   0.00   0.00
   9   8    -0.00  -0.00   0.00    -0.00  -0.00  -0.00    -0.00   0.00   0.00
  10   6    -0.00   0.00  -0.00     0.01  -0.00   0.01    -0.00  -0.00  -0.00
  11   6     0.01   0.01   0.01    -0.02   0.01   0.01     0.01   0.01   0.01
  12   1     0.35  -0.03  -0.15    -0.43   0.41  -0.35     0.01   0.03  -0.07
  13   1    -0.49  -0.12   0.02    -0.32  -0.35  -0.37     0.01  -0.03  -0.07
  14   1    -0.04  -0.73   0.06     0.03   0.14   0.26    -0.00  -0.00  -0.03
  15   1     0.00  -0.01  -0.02    -0.06  -0.02   0.02     0.29   0.41   0.45
  16   1    -0.02   0.01   0.03    -0.05   0.03   0.01     0.25  -0.42   0.47
  17   1     0.00  -0.00   0.00     0.02   0.00   0.00    -0.00   0.00  -0.00
  18   1     0.00  -0.00   0.00     0.01   0.01  -0.05    -0.02   0.01  -0.01
  19   1     0.02  -0.01   0.00     0.04   0.03   0.01    -0.00   0.01   0.00
  20   1    -0.01  -0.01  -0.00    -0.01  -0.00  -0.00    -0.00   0.01  -0.00
  21   1    -0.00  -0.00  -0.00    -0.00  -0.00  -0.00    -0.01   0.00   0.01
  22   1     0.00   0.00   0.00     0.01  -0.00   0.00    -0.00  -0.00  -0.00
  23   1    -0.00  -0.00  -0.00    -0.00  -0.00  -0.00     0.00   0.00  -0.00
  24   1     0.01  -0.01   0.00    -0.02   0.01  -0.00    -0.00  -0.01  -0.00
  25   1     0.00  -0.00   0.00    -0.00   0.01  -0.00    -0.01  -0.00   0.01
  26   1     0.00  -0.01  -0.02     0.01  -0.02  -0.05    -0.02  -0.01  -0.01
  27   1    -0.01  -0.02   0.00     0.05  -0.04   0.01    -0.00  -0.00   0.00
                     55                     56                     57
                        a                      a                      a 
 Frequencies --  1496.6111              1503.0398              1506.8171
 Red. masses --     1.8918                 1.9575                 1.9076
 Frc consts  --     0.0000                 0.0000                 0.0000
 IR Inten    --     1.9563                 4.0477                 7.5667
 Raman Activ --     0.0000                 0.0000                 0.0000
 Depolar     --     0.0000                 0.0000                 0.0000
 Atom AN      X      Y      Z        X      Y      Z        X      Y      Z
   1   7     0.00   0.00   0.00     0.00  -0.00   0.00     0.01  -0.00   0.02
   2   6     0.00   0.00   0.00     0.00   0.00   0.00     0.00  -0.00   0.00
   3   6    -0.00  -0.03   0.00     0.00  -0.01  -0.00     0.03  -0.00  -0.01
   4   6    -0.10  -0.11   0.09     0.05   0.08  -0.05     0.07   0.11  -0.08
   5   6    -0.04   0.05   0.04    -0.09   0.13   0.08     0.06  -0.11  -0.07
   6   6     0.00   0.03   0.00     0.00   0.01   0.00     0.01  -0.00  -0.01
   7   6    -0.01   0.00   0.00    -0.01   0.01   0.00    -0.00  -0.01   0.00
   8   8     0.00   0.00  -0.00     0.00   0.00  -0.00     0.00  -0.00  -0.00
   9   8     0.00  -0.00  -0.00     0.01  -0.01  -0.00    -0.00   0.01   0.00
  10   6     0.06   0.05  -0.05     0.12   0.12  -0.09     0.07   0.08  -0.06
  11   6     0.09  -0.13  -0.09    -0.04   0.08   0.04     0.06  -0.11  -0.08
  12   1     0.00   0.00  -0.01    -0.01   0.00   0.00    -0.02   0.04  -0.04
  13   1    -0.01   0.00   0.00     0.00  -0.00  -0.00    -0.03  -0.03  -0.04
  14   1    -0.00  -0.01   0.00     0.00   0.00   0.00     0.00   0.00   0.01
  15   1    -0.01  -0.00   0.00    -0.00  -0.00   0.00    -0.01  -0.00   0.00
  16   1     0.01  -0.00  -0.00     0.00  -0.00  -0.00    -0.01   0.00   0.00
  17   1     0.00  -0.00   0.00     0.00   0.02  -0.00     0.00  -0.00  -0.01
  18   1     0.14   0.10  -0.39    -0.08  -0.05   0.21    -0.11  -0.09   0.33
  19   1     0.21   0.35   0.04    -0.11  -0.20  -0.02    -0.17  -0.31  -0.04
  20   1     0.09  -0.18   0.04     0.18  -0.36   0.08    -0.14   0.31  -0.07
  21   1     0.06  -0.07  -0.19     0.13  -0.13  -0.37    -0.10   0.12   0.31
  22   1    -0.00  -0.01   0.00     0.00   0.00   0.00     0.01  -0.00  -0.00
  23   1     0.00   0.00   0.00     0.00   0.00   0.00     0.00   0.00   0.00
  24   1    -0.13  -0.19  -0.03    -0.24  -0.35  -0.07    -0.15  -0.24  -0.04
  25   1    -0.08  -0.06   0.21    -0.16  -0.10   0.40    -0.10  -0.07   0.27
  26   1    -0.13   0.14   0.40     0.06  -0.06  -0.19    -0.09   0.12   0.32
  27   1    -0.18   0.38  -0.06     0.08  -0.18   0.03    -0.13   0.32  -0.05
                     58                     59                     60
                        a                      a                      a 
 Frequencies --  1511.4860              1740.3200              2883.4589
 Red. masses --     1.9710                13.3100                 1.7538
 Frc consts  --     0.0000                 0.0000                 0.0000
 IR Inten    --     2.6804               409.8407                 6.3715
 Raman Activ --     0.0000                 0.0000                 0.0000
 Depolar     --     0.0000                 0.0000                 0.0000
 Atom AN      X      Y      Z        X      Y      Z        X      Y      Z
   1   7    -0.01   0.00  -0.01    -0.00   0.00   0.00     0.00  -0.00  -0.00
   2   6     0.00   0.00   0.01    -0.00  -0.00  -0.00    -0.01   0.00   0.00
   3   6    -0.04   0.00   0.00     0.00   0.00   0.00    -0.05   0.01   0.21
   4   6    -0.06  -0.11   0.07    -0.00  -0.01  -0.00    -0.00  -0.01  -0.02
   5   6     0.07  -0.12  -0.07    -0.00   0.00  -0.00    -0.00   0.01  -0.01
   6   6     0.03  -0.00  -0.01     0.05  -0.01  -0.01    -0.02   0.00   0.13
   7   6    -0.01  -0.01  -0.00    -0.36   0.67   0.20    -0.00   0.00   0.00
   8   8     0.00   0.00  -0.00    -0.00  -0.07  -0.02     0.00  -0.00  -0.00
   9   8    -0.00   0.01   0.00     0.26  -0.52  -0.15     0.00  -0.00  -0.00
  10   6     0.08   0.10  -0.07     0.01  -0.01  -0.00    -0.00  -0.01  -0.01
  11   6    -0.05   0.12   0.06    -0.00   0.00  -0.00    -0.00   0.01  -0.02
  12   1     0.02  -0.03   0.04     0.00  -0.00  -0.00     0.00   0.00   0.00
  13   1     0.03   0.03   0.04     0.00   0.00   0.00     0.00  -0.00   0.00
  14   1    -0.00   0.00  -0.00    -0.00   0.00  -0.00    -0.00   0.00  -0.00
  15   1     0.01  -0.00  -0.01     0.00   0.00   0.00     0.00  -0.02   0.01
  16   1     0.01   0.00  -0.01    -0.00  -0.00   0.00     0.01   0.02   0.01
  17   1     0.04  -0.00   0.01     0.00  -0.00  -0.00     0.19  -0.03  -0.79
  18   1     0.10   0.08  -0.29    -0.01   0.00   0.00     0.02   0.04   0.02
  19   1     0.14   0.28   0.03     0.00   0.00   0.00    -0.02  -0.00   0.08
  20   1    -0.15   0.32  -0.07    -0.02   0.01  -0.00    -0.01   0.01   0.04
  21   1    -0.11   0.11   0.32    -0.02   0.00   0.01     0.02  -0.03   0.02
  22   1    -0.02  -0.00  -0.00     0.02   0.01   0.00     0.06  -0.01  -0.50
  23   1     0.00   0.00   0.00     0.03   0.10   0.02    -0.00  -0.00   0.00
  24   1    -0.19  -0.29  -0.05    -0.00   0.00  -0.00    -0.01  -0.00   0.05
  25   1    -0.13  -0.08   0.32     0.01  -0.00  -0.00     0.02   0.03   0.01
  26   1     0.09  -0.10  -0.29    -0.00  -0.00  -0.00     0.02  -0.04   0.02
  27   1     0.12  -0.29   0.04    -0.00  -0.00   0.00    -0.01   0.01   0.08
                     61                     62                     63
                        a                      a                      a 
 Frequencies --  2884.7226              2921.0379              2923.8961
 Red. masses --     1.7448                 1.9625                 1.9378
 Frc consts  --     0.0000                 0.0000                 0.0000
 IR Inten    --     6.1581                20.2906                 9.1067
 Raman Activ --     0.0000                 0.0000                 0.0000
 Depolar     --     0.0000                 0.0000                 0.0000
 Atom AN      X      Y      Z        X      Y      Z        X      Y      Z
   1   7     0.00  -0.00  -0.00     0.00   0.00  -0.00     0.00   0.00   0.00
   2   6    -0.00   0.00   0.00     0.00   0.01   0.00    -0.00   0.00  -0.00
   3   6    -0.03   0.00   0.13     0.00  -0.01  -0.00    -0.00  -0.00   0.03
   4   6     0.00  -0.00  -0.00    -0.04  -0.12  -0.18     0.01   0.05   0.07
   5   6     0.00  -0.01   0.01     0.01  -0.04   0.06    -0.04   0.12  -0.15
   6   6     0.03  -0.01  -0.22    -0.00   0.00   0.00     0.00   0.00  -0.02
   7   6     0.00  -0.00  -0.01     0.00  -0.00  -0.00     0.00   0.00  -0.00
   8   8    -0.00   0.00   0.00    -0.00   0.00   0.00    -0.00   0.00  -0.00
   9   8    -0.00   0.00   0.00     0.00   0.00  -0.00    -0.00  -0.00  -0.00
  10   6     0.00   0.01   0.01    -0.00  -0.02  -0.04    -0.01  -0.03  -0.04
  11   6     0.00   0.00  -0.00     0.02  -0.09   0.15     0.03  -0.10   0.15
  12   1     0.00   0.00  -0.00    -0.00  -0.01  -0.00     0.00  -0.01  -0.00
  13   1     0.00  -0.00  -0.00    -0.00  -0.01   0.00     0.00   0.00  -0.00
  14   1    -0.00   0.00  -0.00     0.00  -0.00   0.00    -0.00  -0.00  -0.00
  15   1     0.00  -0.01   0.01     0.00  -0.01   0.01     0.00  -0.01   0.01
  16   1     0.00   0.01   0.01    -0.01  -0.01  -0.01    -0.00  -0.00  -0.00
  17   1     0.12  -0.02  -0.49    -0.00   0.00   0.01     0.02  -0.00  -0.06
  18   1     0.00   0.01   0.00     0.24   0.43   0.19    -0.09  -0.17  -0.07
  19   1    -0.01  -0.00   0.02    -0.10  -0.01   0.47     0.04   0.00  -0.21
  20   1     0.01  -0.01  -0.05     0.04  -0.02  -0.17    -0.07   0.04   0.30
  21   1    -0.02   0.03  -0.01    -0.07   0.15  -0.07     0.22  -0.47   0.24
  22   1    -0.11   0.02   0.81     0.00   0.00  -0.00    -0.01   0.00   0.04
  23   1     0.00  -0.00  -0.00     0.00  -0.00  -0.00     0.00   0.00  -0.00
  24   1     0.01   0.00  -0.05    -0.03  -0.00   0.12    -0.03  -0.01   0.12
  25   1    -0.02  -0.03  -0.01     0.04   0.07   0.03     0.06   0.11   0.05
  26   1     0.00  -0.01   0.00    -0.16   0.35  -0.16    -0.18   0.41  -0.19
  27   1    -0.01   0.00   0.02     0.07  -0.03  -0.38     0.07  -0.03  -0.35
                     64                     65                     66
                        a                      a                      a 
 Frequencies --  2924.8256              2928.8746              2953.0233
 Red. masses --     1.9318                 1.8980                 1.5779
 Frc consts  --     0.0000                 0.0000                 0.0000
 IR Inten    --     5.5788                49.4021                24.0430
 Raman Activ --     0.0000                 0.0000                 0.0000
 Depolar     --     0.0000                 0.0000                 0.0000
 Atom AN      X      Y      Z        X      Y      Z        X      Y      Z
   1   7    -0.00   0.00  -0.00    -0.00   0.00  -0.00    -0.00  -0.01   0.00
   2   6     0.00   0.01   0.00     0.00  -0.00   0.00     0.00   0.12  -0.00
   3   6     0.00  -0.00  -0.02     0.00  -0.00  -0.03    -0.00  -0.00   0.00
   4   6    -0.04  -0.08  -0.09    -0.03  -0.07  -0.08    -0.08  -0.10   0.10
   5   6    -0.04   0.09  -0.11    -0.03   0.09  -0.08     0.01  -0.03   0.01
   6   6     0.00   0.01   0.00     0.00  -0.00  -0.03    -0.00   0.00   0.00
   7   6     0.00   0.00   0.00     0.00  -0.00  -0.00     0.00  -0.00  -0.00
   8   8     0.00  -0.00   0.00    -0.00   0.00   0.00     0.00   0.00   0.00
   9   8     0.00  -0.00  -0.00    -0.00   0.00   0.00    -0.00   0.00   0.00
  10   6     0.06   0.13   0.16    -0.06  -0.12  -0.12    -0.00  -0.01  -0.02
  11   6     0.00   0.01  -0.04    -0.03   0.09  -0.10     0.04  -0.07  -0.05
  12   1    -0.00   0.00   0.00    -0.00   0.00   0.00     0.00   0.01   0.01
  13   1    -0.00  -0.00   0.00    -0.00  -0.00   0.00    -0.00   0.02  -0.01
  14   1     0.00  -0.00   0.00     0.00   0.00   0.00     0.00  -0.00  -0.00
  15   1     0.00  -0.00   0.00    -0.00   0.02  -0.01     0.09  -0.21   0.14
  16   1    -0.01  -0.01  -0.01    -0.00  -0.01  -0.01    -0.10  -0.20  -0.12
  17   1    -0.01   0.00   0.04    -0.02   0.00   0.09     0.00  -0.00  -0.01
  18   1     0.16   0.30   0.14     0.16   0.28   0.13     0.21   0.39   0.22
  19   1    -0.04  -0.01   0.18    -0.04  -0.01   0.16     0.10  -0.03  -0.59
  20   1    -0.05   0.03   0.19    -0.03   0.02   0.11    -0.00  -0.00   0.02
  21   1     0.17  -0.37   0.19     0.15  -0.34   0.18    -0.05   0.10  -0.06
  22   1     0.00  -0.00  -0.00    -0.01   0.00   0.10    -0.00  -0.00  -0.00
  23   1    -0.00   0.00   0.00     0.00   0.00  -0.00     0.00   0.00   0.00
  24   1     0.08   0.02  -0.34    -0.05  -0.02   0.20    -0.01  -0.00   0.05
  25   1    -0.28  -0.48  -0.24     0.26   0.45   0.23     0.02   0.04   0.02
  26   1     0.02  -0.05   0.02     0.15  -0.35   0.17    -0.10   0.23  -0.13
  27   1    -0.03   0.01   0.13    -0.04   0.02   0.17    -0.05   0.00   0.32
                     67                     68                     69
                        a                      a                      a 
 Frequencies --  2954.7639              2958.3394              2962.7360
 Red. masses --     1.5108                 1.8921                 1.5669
 Frc consts  --     0.0000                 0.0000                 0.0000
 IR Inten    --    39.7978                11.3795                16.5865
 Raman Activ --     0.0000                 0.0000                 0.0000
 Depolar     --     0.0000                 0.0000                 0.0000
 Atom AN      X      Y      Z        X      Y      Z        X      Y      Z
   1   7    -0.00  -0.00  -0.00     0.00   0.00   0.00     0.00   0.00   0.00
   2   6     0.01   0.05   0.00     0.01   0.27  -0.00    -0.00  -0.03  -0.00
   3   6     0.01  -0.00  -0.02     0.00   0.01   0.00    -0.00  -0.00   0.00
   4   6     0.05   0.06  -0.07     0.03   0.03  -0.03    -0.01  -0.01  -0.01
   5   6    -0.02   0.03   0.02     0.01  -0.00  -0.02     0.05  -0.06  -0.08
   6   6    -0.00  -0.00  -0.00    -0.00  -0.00  -0.00    -0.00  -0.01   0.01
   7   6    -0.00  -0.00   0.00     0.00   0.00   0.00    -0.00  -0.00   0.00
   8   8    -0.00   0.00   0.00     0.00  -0.00   0.00    -0.00   0.00  -0.00
   9   8     0.00  -0.00  -0.00    -0.00  -0.00  -0.00    -0.00   0.00   0.00
  10   6    -0.03  -0.04   0.02    -0.00   0.00   0.02    -0.09  -0.08   0.14
  11   6     0.07  -0.11  -0.11    -0.03   0.05   0.04    -0.00  -0.01   0.03
  12   1     0.00   0.01   0.01     0.01   0.01   0.00    -0.00  -0.00  -0.00
  13   1    -0.00  -0.00   0.00    -0.00   0.01  -0.01     0.00  -0.00   0.00
  14   1    -0.00  -0.00   0.00    -0.00  -0.00   0.00    -0.00   0.00  -0.00
  15   1     0.03  -0.06   0.04     0.20  -0.48   0.31    -0.02   0.05  -0.03
  16   1    -0.05  -0.11  -0.06    -0.25  -0.48  -0.29     0.03   0.05   0.03
  17   1    -0.01   0.00   0.04     0.00  -0.00  -0.00     0.00  -0.00  -0.01
  18   1    -0.12  -0.23  -0.13    -0.07  -0.14  -0.08     0.03   0.05   0.03
  19   1    -0.06   0.01   0.39    -0.03   0.01   0.18     0.00  -0.00  -0.01
  20   1     0.03  -0.01  -0.14    -0.02   0.01   0.08    -0.09   0.02   0.43
  21   1     0.05  -0.10   0.06    -0.00   0.01  -0.01    -0.09   0.21  -0.13
  22   1     0.00  -0.00   0.01     0.00   0.00  -0.00     0.00  -0.00  -0.02
  23   1     0.00  -0.00  -0.00     0.00  -0.00   0.00     0.00  -0.00   0.00
  24   1     0.03  -0.00  -0.15     0.01   0.00  -0.06     0.14  -0.01  -0.70
  25   1     0.08   0.14   0.08    -0.00  -0.01  -0.00     0.17   0.30   0.18
  26   1    -0.16   0.38  -0.22     0.07  -0.18   0.10    -0.01   0.03  -0.01
  27   1    -0.10   0.01   0.61     0.04  -0.00  -0.24     0.02  -0.00  -0.10
                     70                     71                     72
                        a                      a                      a 
 Frequencies --  2964.7228              2981.4831              3198.1530
 Red. masses --     1.6061                 1.5184                 2.0270
 Frc consts  --     0.0000                 0.0000                 0.0000
 IR Inten    --    64.6783                 6.5361               100.3966
 Raman Activ --     0.0000                 0.0000                 0.0000
 Depolar     --     0.0000                 0.0000                 0.0000
 Atom AN      X      Y      Z        X      Y      Z        X      Y      Z
   1   7     0.00  -0.00   0.00    -0.00   0.00   0.00    -0.26   0.01  -0.09
   2   6    -0.00   0.01  -0.00     0.13  -0.01   0.17    -0.01  -0.00  -0.01
   3   6    -0.00   0.00   0.01     0.00  -0.00   0.01     0.00  -0.00   0.00
   4   6    -0.02  -0.01   0.05    -0.00  -0.00   0.01     0.00   0.00   0.00
   5   6    -0.07   0.08   0.15     0.00  -0.00   0.00    -0.00   0.00   0.00
   6   6    -0.00   0.00   0.02    -0.00   0.00   0.00     0.00  -0.00  -0.00
   7   6    -0.00   0.00   0.00    -0.00   0.00   0.00    -0.00   0.00   0.00
   8   8    -0.00   0.00  -0.00     0.00   0.00  -0.00    -0.00   0.00   0.00
   9   8     0.00  -0.00  -0.00     0.00  -0.00   0.00     0.00  -0.00  -0.00
  10   6    -0.05  -0.04   0.10     0.00   0.00   0.00    -0.00  -0.00   0.00
  11   6    -0.02   0.02   0.05    -0.00   0.00   0.01     0.00  -0.00   0.00
  12   1     0.00  -0.00  -0.00     0.01   0.02   0.01     0.11   0.32   0.18
  13   1     0.00   0.00  -0.00     0.00  -0.02   0.01     0.07  -0.30   0.18
  14   1    -0.00   0.00  -0.00     0.00  -0.00   0.00     0.80  -0.05   0.00
  15   1     0.01  -0.02   0.01    -0.20   0.58  -0.33     0.01  -0.01   0.01
  16   1    -0.00   0.00  -0.00    -0.26  -0.56  -0.30     0.01   0.01   0.01
  17   1     0.01  -0.00  -0.03     0.01  -0.00  -0.04    -0.00  -0.00  -0.00
  18   1     0.01   0.03   0.02     0.00   0.00   0.00    -0.00  -0.00   0.00
  19   1     0.04  -0.00  -0.21     0.01  -0.00  -0.03     0.00  -0.00  -0.01
  20   1     0.14  -0.04  -0.71     0.00  -0.00  -0.01     0.00  -0.00  -0.00
  21   1     0.11  -0.26   0.17    -0.00   0.01  -0.00    -0.00  -0.00   0.00
  22   1     0.01  -0.00  -0.06     0.00  -0.00  -0.00    -0.00   0.00   0.00
  23   1     0.00  -0.00   0.00    -0.00  -0.00   0.00     0.00  -0.00   0.00
  24   1     0.09  -0.00  -0.43     0.00   0.00  -0.01     0.00  -0.00  -0.00
  25   1     0.07   0.13   0.09    -0.00  -0.01  -0.00    -0.00   0.00   0.00
  26   1     0.02  -0.05   0.03     0.00  -0.00   0.00    -0.00   0.00   0.00
  27   1     0.03  -0.01  -0.19     0.01  -0.00  -0.03     0.00   0.00  -0.01
                     73                     74                     75
                        a                      a                      a 
 Frequencies --  3203.7551              3226.3777              3420.2937
 Red. masses --     2.0440                 1.2765                 1.8544
 Frc consts  --     0.0000                 0.0000                 0.0000
 IR Inten    --    87.5738                21.0995                63.9709
 Raman Activ --     0.0000                 0.0000                 0.0000
 Depolar     --     0.0000                 0.0000                 0.0000
 Atom AN      X      Y      Z        X      Y      Z        X      Y      Z
   1   7     0.01   0.28  -0.01     0.04  -0.00  -0.14    -0.00   0.00  -0.00
   2   6     0.00   0.01  -0.00     0.00  -0.00  -0.01     0.00   0.00  -0.00
   3   6     0.00  -0.00   0.00    -0.00   0.00  -0.00     0.00   0.00   0.00
   4   6    -0.00  -0.00   0.00    -0.00  -0.00   0.00     0.00   0.00  -0.00
   5   6    -0.00  -0.00  -0.00     0.00  -0.00  -0.00     0.00   0.00   0.00
   6   6    -0.00  -0.00   0.00    -0.00   0.00   0.00    -0.00   0.00  -0.00
   7   6     0.00  -0.00  -0.00     0.00   0.00  -0.00     0.01   0.01   0.00
   8   8     0.00   0.00  -0.00     0.00  -0.00  -0.00     0.23  -0.05  -0.04
   9   8    -0.00   0.00   0.00    -0.00   0.00  -0.00     0.00  -0.00  -0.00
  10   6     0.00  -0.00   0.00     0.00   0.00  -0.00    -0.00  -0.00   0.00
  11   6     0.00  -0.00  -0.00    -0.00   0.00   0.00    -0.00  -0.00  -0.00
  12   1    -0.25  -0.54  -0.33     0.21   0.47   0.26     0.00  -0.00  -0.00
  13   1     0.18  -0.55   0.35     0.16  -0.49   0.29     0.00  -0.00   0.00
  14   1     0.03   0.03  -0.00    -0.54   0.03  -0.02     0.00  -0.00   0.00
  15   1     0.00  -0.01   0.01     0.00  -0.01   0.01    -0.00  -0.00   0.00
  16   1    -0.01  -0.01  -0.01     0.01   0.01   0.01     0.00  -0.00  -0.00
  17   1     0.00   0.00  -0.00    -0.00   0.00   0.00     0.00  -0.00  -0.00
  18   1     0.00   0.00   0.00     0.00   0.00   0.00     0.00  -0.00  -0.00
  19   1     0.00  -0.00  -0.02     0.00  -0.00  -0.01    -0.00   0.00   0.00
  20   1     0.00  -0.00  -0.00     0.00  -0.00   0.00     0.00  -0.00  -0.00
  21   1    -0.00   0.00   0.00    -0.00   0.00  -0.00     0.00  -0.00   0.00
  22   1    -0.00  -0.00   0.00     0.00  -0.00  -0.00    -0.00  -0.00   0.00
  23   1     0.00  -0.00  -0.00    -0.00   0.00   0.00    -0.94   0.18   0.17
  24   1    -0.00  -0.00   0.00     0.00   0.00   0.00     0.00   0.00  -0.00
  25   1     0.00   0.00  -0.00    -0.00  -0.00  -0.00     0.00   0.00   0.00
  26   1    -0.00   0.00  -0.00     0.00  -0.00   0.00    -0.00   0.00  -0.00
  27   1    -0.00   0.00   0.02     0.00   0.00  -0.01    -0.00   0.00   0.00
