      -----------------------------------------------------------      
     |                   =====================                   |     
     |                           x T B                           |     
     |                   =====================                   |     
     |                         S. Grimme                         |     
     |          Mulliken Center for Theoretical Chemistry        |     
     |                    University of Bonn                     |     
      -----------------------------------------------------------      

   * xtb version 6.5.1 (fef0646) compiled by 'conda@b96dff2e9fd6' on 2023-01-04

   xtb is free software: you can redistribute it and/or modify it under
   the terms of the GNU Lesser General Public License as published by
   the Free Software Foundation, either version 3 of the License, or
   (at your option) any later version.
   
   xtb is distributed in the hope that it will be useful,
   but WITHOUT ANY WARRANTY; without even the implied warranty of
   MERCHANTABILITY or FITNESS FOR A PARTICULAR PURPOSE.  See the
   GNU Lesser General Public License for more details.
   
   Cite this work as:
   * C. Bannwarth, E. Caldeweyher, S. Ehlert, A. Hansen, P. Pracht,
     J. Seibert, S. Spicher, S. Grimme, WIREs Comput. Mol. Sci., 2020, 11,
     e01493. DOI: 10.1002/wcms.1493
   
   for GFN2-xTB:
   * C. Bannwarth, S. Ehlert and S. Grimme., J. Chem. Theory Comput., 2019,
     15, 1652-1671. DOI: 10.1021/acs.jctc.8b01176
   for GFN1-xTB:
   * S. Grimme, C. Bannwarth, P. Shushkov, J. Chem. Theory Comput., 2017,
     13, 1989-2009. DOI: 10.1021/acs.jctc.7b00118
   for GFN0-xTB:
   * P. Pracht, E. Caldeweyher, S. Ehlert, S. Grimme, ChemRxiv, 2019, preprint.
     DOI: 10.26434/chemrxiv.8326202.v1
   for GFN-FF:
   * S. Spicher and S. Grimme, Angew. Chem. Int. Ed., 2020, 59, 15665-15673.
     DOI: 10.1002/anie.202004239
   
   for ALPB and GBSA implicit solvation:
   * S. Ehlert, M. Stahn, S. Spicher, S. Grimme, J. Chem. Theory Comput.,
     2021, 17, 4250-4261. DOI: 10.1021/acs.jctc.1c00471
   
   for DFT-D4:
   * E. Caldeweyher, C. Bannwarth and S. Grimme, J. Chem. Phys., 2017,
     147, 034112. DOI: 10.1063/1.4993215
   * E. Caldeweyher, S. Ehlert, A. Hansen, H. Neugebauer, S. Spicher,
     C. Bannwarth and S. Grimme, J. Chem. Phys., 2019, 150, 154122.
     DOI: 10.1063/1.5090222
   * E. Caldeweyher, J.-M. Mewes, S. Ehlert and S. Grimme, Phys. Chem. Chem. Phys.
     2020, 22, 8499-8512. DOI: 10.1039/D0CP00502A
   
   for sTDA-xTB:
   * S. Grimme and C. Bannwarth, J. Chem. Phys., 2016, 145, 054103.
     DOI: 10.1063/1.4959605
   
   in the mass-spec context:
   * V. Asgeirsson, C. Bauer and S. Grimme, Chem. Sci., 2017, 8, 4879.
     DOI: 10.1039/c7sc00601b
   * J. Koopman and S. Grimme, ACS Omega 2019, 4, 12, 15120-15133.
     DOI: 10.1021/acsomega.9b02011
   
   for metadynamics refer to:
   * S. Grimme, J. Chem. Theory Comput., 2019, 155, 2847-2862
     DOI: 10.1021/acs.jctc.9b00143
   
   for SPH calculations refer to:
   * S. Spicher and S. Grimme, J. Chem. Theory Comput., 2021, 17, 1701-1714
     DOI: 10.1021/acs.jctc.0c01306
   
   with help from (in alphabetical order)
   P. Atkinson, C. Bannwarth, F. Bohle, G. Brandenburg, E. Caldeweyher
   M. Checinski, S. Dohm, S. Ehlert, S. Ehrlich, I. Gerasimov, C. Hölzer
   A. Katbashev, J. Koopman, C. Lavigne, S. Lehtola, F. März, M. Müller,
   F. Musil, H. Neugebauer, J. Pisarek, C. Plett, P. Pracht, F. Pultar,
   J. Seibert, P. Shushkov, S. Spicher, M. Stahn, M. Steiner, T. Strunk,
   J. Stückrath, T. Rose, and J. Unsleber
   
 * started run on 2023/01/24 at 14:56:16.294     

           -------------------------------------------------
          |                Calculation Setup                |
           -------------------------------------------------

          program call               : xtb init.xyz --opt -c 1 -u 0 -P 16 --alpb water
          hostname                   : gpg-woodward
          coordinate file            : init.xyz
          omp threads                :                    16

   ID    Z sym.   atoms
    1    7 N      1
    2    6 C      2-17
    3    1 H      18-35

           -------------------------------------------------
          |                 G F N 2 - x T B                 |
           -------------------------------------------------

        Reference                      10.1021/acs.jctc.8b01176
      * Hamiltonian:
        H0-scaling (s, p, d)           1.850000    2.230000    2.230000
        zeta-weighting                 0.500000
      * Dispersion:
        s8                             2.700000
        a1                             0.520000
        a2                             5.000000
        s9                             5.000000
      * Repulsion:
        kExp                           1.500000    1.000000
        rExp                           1.000000
      * Coulomb:
        alpha                          2.000000
        third order                    shell-resolved
        anisotropic                    true
        a3                             3.000000
        a5                             4.000000
        cn-shift                       1.200000
        cn-exp                         4.000000
        max-rad                        5.000000

      * Solvation model:               ALPB
        Solvent                        water
        Parameter file                 internal GFN2-xTB/ALPB
        Dielectric constant                8.0200E+01
        Reference state                gsolv [1 M gas/solution]
        Free energy shift                  1.0808E-03 Eh       6.7819E-01 kcal/mol
        Temperature                        2.9815E+02 K
        Density                            1.0000E+00 kg/L
        Solvent mass                       1.8000E+01 g/mol
        Interaction kernel             P16
        Born radius scaling (c1)           1.4744E+00
        Born radii integrator          GBOBC
        Born offset                        0.0000E+00 a0       0.0000E+00 AA
        H-bond correction              true
        Ion screening                  false
        Surface tension                    1.0000E-05 Eh       1.5569E+01 dyn/cm
        Grid points                               230 per atom

          ...................................................
          :                      SETUP                      :
          :.................................................:
          :  # basis functions                  86          :
          :  # atomic orbitals                  86          :
          :  # shells                           52          :
          :  # electrons                        86          :
          :  max. iterations                   250          :
          :  Hamiltonian                  GFN2-xTB          :
          :  restarted?                      false          :
          :  GBSA solvation                   true          :
          :  PC potential                    false          :
          :  electronic temp.          300.0000000     K    :
          :  accuracy                    1.0000000          :
          :  -> integral cutoff          0.2500000E+02      :
          :  -> integral neglect         0.1000000E-07      :
          :  -> SCF convergence          0.1000000E-05 Eh   :
          :  -> wf. convergence          0.1000000E-03 e    :
          :  Broyden damping             0.4000000          :
          ...................................................

 iter      E             dE          RMSdq      gap      omega  full diag
   1    -46.7215815 -0.467216E+02  0.430E+00    3.02       0.0  T
   2    -46.7986961 -0.771146E-01  0.250E+00    3.04       1.0  T
   3    -46.8004330 -0.173696E-02  0.894E-01    3.03       1.0  T
   4    -46.8000194  0.413650E-03  0.328E-01    3.03       1.0  T
   5    -46.8028377 -0.281828E-02  0.800E-02    3.03       1.0  T
   6    -46.8028519 -0.142472E-04  0.491E-02    3.03       1.0  T
   7    -46.8028720 -0.200322E-04  0.188E-02    3.03       1.0  T
   8    -46.8028763 -0.435556E-05  0.820E-03    3.03       2.1  T
   9    -46.8028766 -0.318255E-06  0.473E-03    3.03       3.6  T
  10    -46.8028768 -0.200090E-06  0.159E-03    3.03      10.7  T
  11    -46.8028768 -0.112713E-07  0.429E-04    3.03      39.4  T
  12    -46.8028768 -0.277942E-08  0.188E-04    3.03      89.7  T

   *** convergence criteria satisfied after 12 iterations ***

         #    Occupation            Energy/Eh            Energy/eV
      -------------------------------------------------------------
         1        2.0000           -0.6919873             -18.8299
       ...           ...                  ...                  ...
        37        2.0000           -0.4222725             -11.4906
        38        2.0000           -0.4165424             -11.3347
        39        2.0000           -0.4148649             -11.2890
        40        2.0000           -0.4046414             -11.0109
        41        2.0000           -0.4026237             -10.9559
        42        2.0000           -0.4007416             -10.9047
        43        2.0000           -0.3723616             -10.1325 (HOMO)
        44                         -0.2611050              -7.1050 (LUMO)
        45                         -0.2269488              -6.1756
        46                         -0.2246671              -6.1135
        47                         -0.2145497              -5.8382
        48                         -0.1706045              -4.6424
       ...                                ...                  ...
        86                          0.6683078              18.1856
      -------------------------------------------------------------
                  HL-Gap            0.1112566 Eh            3.0274 eV
             Fermi-level           -0.3167333 Eh           -8.6188 eV

 SCC (total)                   0 d,  0 h,  0 min,  0.086 sec
 SCC setup                      ...        0 min,  0.001 sec (  1.068%)
 Dispersion                     ...        0 min,  0.001 sec (  1.135%)
 classical contributions        ...        0 min,  0.000 sec (  0.207%)
 integral evaluation            ...        0 min,  0.004 sec (  4.984%)
 iterations                     ...        0 min,  0.070 sec ( 81.509%)
 molecular gradient             ...        0 min,  0.009 sec (  9.888%)
 printout                       ...        0 min,  0.001 sec (  0.780%)

         :::::::::::::::::::::::::::::::::::::::::::::::::::::
         ::                     SUMMARY                     ::
         :::::::::::::::::::::::::::::::::::::::::::::::::::::
         :: total energy             -45.996285527905 Eh    ::
         :: total w/o Gsasa/hb       -45.984078100023 Eh    ::
         :: gradient norm              0.041652093491 Eh/a0 ::
         :: HOMO-LUMO gap              3.027445872295 eV    ::
         ::.................................................::
         :: SCC energy               -46.802876848396 Eh    ::
         :: -> isotropic ES            0.125688441725 Eh    ::
         :: -> anisotropic ES         -0.013119524414 Eh    ::
         :: -> anisotropic XC          0.034599486954 Eh    ::
         :: -> dispersion             -0.031081609518 Eh    ::
         :: -> Gsolv                  -0.119149512839 Eh    ::
         ::    -> Gelec               -0.106942084957 Eh    ::
         ::    -> Gsasa               -0.002855945562 Eh    ::
         ::    -> Ghb                 -0.010432242018 Eh    ::
         ::    -> Gshift               0.001080759698 Eh    ::
         :: repulsion energy           0.806828167509 Eh    ::
         :: add. restraining           0.000000000000 Eh    ::
         :: total charge               1.000000000000 e     ::
         :::::::::::::::::::::::::::::::::::::::::::::::::::::

      ----------------------------------------------------------- 
     |                   =====================                   |
     |                        A N C O P T                        |
     |                   =====================                   |
     |               Approximate Normal Coordinate               |
     |                Rational Function Optimizer                |
      ----------------------------------------------------------- 

          ...................................................
          :                      SETUP                      :
          :.................................................:
          :   optimization level            normal          :
          :   max. optcycles                   200          :
          :   ANC micro-cycles                  20          :
          :   degrees of freedom                99          :
          :.................................................:
          :   RF solver                   davidson          :
          :   write xtbopt.log                true          :
          :   linear?                        false          :
          :   energy convergence         0.5000000E-05 Eh   :
          :   grad. convergence          0.1000000E-02 Eh/α :
          :   maximium RF displ.         1.0000000          :
          :   Hlow (freq-cutoff)         0.1000000E-01      :
          :   Hmax (freq-cutoff)         5.0000000          :
          :   S6 in model hess.         20.0000000          :
          ...................................................

generating ANC from model Hessian ...
Using Lindh-Hessian (1995)
 Shifting diagonal of input Hessian by    9.7251705830392332E-003
 Lowest  eigenvalues of input Hessian
    0.000000    0.000000    0.000000    0.000000    0.000000    0.000000
    0.010000    0.010382    0.010560    0.011241    0.011567    0.013112
    0.014094    0.015598    0.017838    0.020325    0.023346    0.023651
 Highest eigenvalues
    1.832642    1.861577    1.924696    1.948968    1.953875    2.035698


........................................................................
.............................. CYCLE    1 ..............................
........................................................................
   1    -46.8028768 -0.468029E+02  0.784E-05    3.03       0.0  T
   2    -46.8028768 -0.142677E-10  0.499E-05    3.03     338.9  T
   3    -46.8028768  0.269296E-11  0.283E-05    3.03     597.3  T
     SCC iter.                  ...        0 min,  0.018 sec
     gradient                   ...        0 min,  0.008 sec
 * total energy  :   -45.9962855 Eh     change       -0.2849490E-09 Eh
   gradient norm :     0.0416529 Eh/α   predicted     0.0000000E+00 (-100.00%)
   displ. norm   :     0.2006862 α      lambda       -0.4895828E-02
   maximum displ.:     0.0766685 α      in ANC's #25, #52, #58, ...

........................................................................
.............................. CYCLE    2 ..............................
........................................................................
   1    -46.8397665 -0.468398E+02  0.151E-01    3.01       0.0  T
   2    -46.8397761 -0.953272E-05  0.888E-02    3.01       1.0  T
   3    -46.8397728  0.327913E-05  0.145E-02    3.02       1.2  T
   4    -46.8397773 -0.450085E-05  0.494E-03    3.02       3.4  T
   5    -46.8397777 -0.453088E-06  0.208E-03    3.02       8.1  T
   6    -46.8397777 -0.755497E-08  0.107E-03    3.02      15.8  T
   7    -46.8397777 -0.122185E-07  0.277E-04    3.02      61.1  T
   8    -46.8397777 -0.719730E-09  0.143E-04    3.02     118.3  T
     SCC iter.                  ...        0 min,  0.044 sec
     gradient                   ...        0 min,  0.006 sec
 * total energy  :   -45.9993616 Eh     change       -0.3076076E-02 Eh
   gradient norm :     0.0162328 Eh/α   predicted    -0.2546525E-02 ( -17.22%)
   displ. norm   :     0.1559037 α      lambda       -0.7944599E-03
   maximum displ.:     0.0618804 α      in ANC's #5, #7, #3, ...

........................................................................
.............................. CYCLE    3 ..............................
........................................................................
   1    -46.8528654 -0.468529E+02  0.708E-02    2.99       0.0  T
   2    -46.8528680 -0.263030E-05  0.415E-02    2.99       1.0  T
   3    -46.8528671  0.910475E-06  0.786E-03    2.99       2.2  T
   4    -46.8528683 -0.123832E-05  0.225E-03    2.99       7.5  T
   5    -46.8528684 -0.832393E-07  0.899E-04    2.99      18.8  T
   6    -46.8528684  0.264173E-09  0.509E-04    2.99      33.2  T
     SCC iter.                  ...        0 min,  0.033 sec
     gradient                   ...        0 min,  0.006 sec
 * total energy  :   -45.9998488 Eh     change       -0.4872306E-03 Eh
   gradient norm :     0.0054254 Eh/α   predicted    -0.4076782E-03 ( -16.33%)
   displ. norm   :     0.1439409 α      lambda       -0.2154179E-03
   maximum displ.:     0.0757558 α      in ANC's #5, #3, #7, ...

........................................................................
.............................. CYCLE    4 ..............................
........................................................................
   1    -46.8541975 -0.468542E+02  0.537E-02    2.97       0.0  T
   2    -46.8541982 -0.680717E-06  0.316E-02    2.97       1.0  T
   3    -46.8541977  0.443138E-06  0.467E-03    2.97       3.6  T
   4    -46.8541983 -0.591455E-06  0.980E-04    2.97      17.2  T
   5    -46.8541983 -0.123813E-07  0.448E-04    2.97      37.7  T
     SCC iter.                  ...        0 min,  0.027 sec
     gradient                   ...        0 min,  0.004 sec
 * total energy  :   -46.0000124 Eh     change       -0.1635837E-03 Eh
   gradient norm :     0.0029880 Eh/α   predicted    -0.1099433E-03 ( -32.79%)
   displ. norm   :     0.2409556 α      lambda       -0.2264599E-03
   maximum displ.:     0.1399184 α      in ANC's #5, #3, #6, ...

........................................................................
.............................. CYCLE    5 ..............................
........................................................................
   1    -46.8526184 -0.468526E+02  0.897E-02    2.93       0.0  T
   2    -46.8526190 -0.666465E-06  0.526E-02    2.93       1.0  T
   3    -46.8526187  0.359159E-06  0.437E-03    2.93       3.9  T
   4    -46.8526193 -0.603857E-06  0.101E-03    2.93      16.7  T
   5    -46.8526193 -0.488679E-08  0.551E-04    2.93      30.7  T
   6    -46.8526193 -0.734154E-09  0.239E-04    2.93      70.9  T
     SCC iter.                  ...        0 min,  0.033 sec
     gradient                   ...        0 min,  0.004 sec
 * total energy  :   -46.0001753 Eh     change       -0.1628563E-03 Eh
   gradient norm :     0.0052192 Eh/α   predicted    -0.1198048E-03 ( -26.44%)
   displ. norm   :     0.2219008 α      lambda       -0.1491804E-03
   maximum displ.:     0.1340701 α      in ANC's #5, #3, #1, ...

........................................................................
.............................. CYCLE    6 ..............................
........................................................................
   1    -46.8508697 -0.468509E+02  0.839E-02    2.92       0.0  T
   2    -46.8508701 -0.344143E-06  0.492E-02    2.92       1.0  T
   3    -46.8508700  0.122979E-06  0.305E-03    2.92       5.5  T
   4    -46.8508702 -0.282844E-06  0.875E-04    2.92      19.3  T
   5    -46.8508702 -0.314329E-08  0.505E-04    2.92      33.4  T
     SCC iter.                  ...        0 min,  0.027 sec
     gradient                   ...        0 min,  0.004 sec
 * total energy  :   -46.0002999 Eh     change       -0.1246428E-03 Eh
   gradient norm :     0.0058507 Eh/α   predicted    -0.7826464E-04 ( -37.21%)
   displ. norm   :     0.2730375 α      lambda       -0.1832357E-03
   maximum displ.:     0.1674622 α      in ANC's #5, #3, #1, ...

........................................................................
.............................. CYCLE    7 ..............................
........................................................................
   1    -46.8496064 -0.468496E+02  0.104E-01    2.91       0.0  T
   2    -46.8496070 -0.578607E-06  0.610E-02    2.91       1.0  T
   3    -46.8496067  0.333929E-06  0.449E-03    2.91       3.8  T
   4    -46.8496073 -0.586024E-06  0.112E-03    2.91      15.1  T
   5    -46.8496073 -0.840873E-08  0.621E-04    2.91      27.2  T
   6    -46.8496073 -0.197963E-08  0.233E-04    2.91      72.5  T
     SCC iter.                  ...        0 min,  0.033 sec
     gradient                   ...        0 min,  0.004 sec
 * total energy  :   -46.0004520 Eh     change       -0.1520626E-03 Eh
   gradient norm :     0.0047016 Eh/α   predicted    -0.9845159E-04 ( -35.26%)
   displ. norm   :     0.3444689 α      lambda       -0.2130086E-03
   maximum displ.:     0.2164352 α      in ANC's #5, #3, #1, ...

........................................................................
.............................. CYCLE    8 ..............................
........................................................................
   1    -46.8492295 -0.468492E+02  0.132E-01    2.91       0.0  T
   2    -46.8492304 -0.887361E-06  0.772E-02    2.91       1.0  T
   3    -46.8492298  0.597996E-06  0.587E-03    2.91       2.9  T
   4    -46.8492308 -0.999585E-06  0.139E-03    2.91      12.2  T
   5    -46.8492308 -0.120300E-07  0.786E-04    2.91      21.5  T
   6    -46.8492308 -0.334982E-08  0.291E-04    2.91      58.1  T
     SCC iter.                  ...        0 min,  0.032 sec
     gradient                   ...        0 min,  0.004 sec
 * total energy  :   -46.0006286 Eh     change       -0.1765760E-03 Eh
   gradient norm :     0.0035404 Eh/α   predicted    -0.1191425E-03 ( -32.53%)
   displ. norm   :     0.3924340 α      lambda       -0.2148003E-03
   maximum displ.:     0.2525412 α      in ANC's #5, #3, #1, ...

........................................................................
.............................. CYCLE    9 ..............................
........................................................................
   1    -46.8495505 -0.468496E+02  0.151E-01    2.91       0.0  T
   2    -46.8495515 -0.103573E-05  0.884E-02    2.91       1.0  T
   3    -46.8495509  0.573159E-06  0.602E-03    2.91       2.8  T
   4    -46.8495520 -0.106432E-05  0.148E-03    2.91      11.4  T
   5    -46.8495520 -0.898891E-08  0.880E-04    2.91      19.2  T
   6    -46.8495520 -0.630357E-08  0.244E-04    2.91      69.2  T
     SCC iter.                  ...        0 min,  0.032 sec
     gradient                   ...        0 min,  0.004 sec
 * total energy  :   -46.0007975 Eh     change       -0.1689732E-03 Eh
   gradient norm :     0.0038100 Eh/α   predicted    -0.1239415E-03 ( -26.65%)
   displ. norm   :     0.3670771 α      lambda       -0.1901305E-03
   maximum displ.:     0.2426697 α      in ANC's #5, #3, #1, ...

........................................................................
.............................. CYCLE   10 ..............................
........................................................................
   1    -46.8510255 -0.468510E+02  0.142E-01    2.90       0.0  T
   2    -46.8510263 -0.871324E-06  0.835E-02    2.90       1.0  T
   3    -46.8510260  0.307021E-06  0.485E-03    2.90       3.5  T
   4    -46.8510268 -0.719856E-06  0.132E-03    2.90      12.8  T
   5    -46.8510268 -0.161116E-09  0.803E-04    2.90      21.1  T
   6    -46.8510268 -0.820653E-08  0.194E-04    2.90      87.3  T
     SCC iter.                  ...        0 min,  0.033 sec
     gradient                   ...        0 min,  0.004 sec
 * total energy  :   -46.0009464 Eh     change       -0.1488571E-03 Eh
   gradient norm :     0.0036856 Eh/α   predicted    -0.1078763E-03 ( -27.53%)
   displ. norm   :     0.3676989 α      lambda       -0.1779271E-03
   maximum displ.:     0.2449037 α      in ANC's #5, #3, #1, ...

........................................................................
.............................. CYCLE   11 ..............................
........................................................................
   1    -46.8526297 -0.468526E+02  0.145E-01    2.89       0.0  T
   2    -46.8526306 -0.908266E-06  0.848E-02    2.89       1.0  T
   3    -46.8526304  0.233970E-06  0.446E-03    2.89       3.8  T
   4    -46.8526310 -0.644245E-06  0.123E-03    2.89      13.7  T
   5    -46.8526310  0.794046E-09  0.634E-04    2.89      26.7  T
   6    -46.8526310 -0.429733E-08  0.218E-04    2.89      77.5  T
     SCC iter.                  ...        0 min,  0.032 sec
     gradient                   ...        0 min,  0.004 sec
 * total energy  :   -46.0010859 Eh     change       -0.1395635E-03 Eh
   gradient norm :     0.0028799 Eh/α   predicted    -0.1009937E-03 ( -27.64%)
   displ. norm   :     0.3739329 α      lambda       -0.1526928E-03
   maximum displ.:     0.2484247 α      in ANC's #5, #1, #3, ...

........................................................................
.............................. CYCLE   12 ..............................
........................................................................
   1    -46.8530832 -0.468531E+02  0.148E-01    2.87       0.0  T
   2    -46.8530842 -0.994139E-06  0.869E-02    2.87       1.0  T
   3    -46.8530839  0.312734E-06  0.484E-03    2.87       3.5  T
   4    -46.8530846 -0.755154E-06  0.128E-03    2.87      13.2  T
   5    -46.8530846  0.138629E-08  0.688E-04    2.87      24.6  T
   6    -46.8530846 -0.533076E-08  0.226E-04    2.87      74.7  T
     SCC iter.                  ...        0 min,  0.032 sec
     gradient                   ...        0 min,  0.004 sec
 * total energy  :   -46.0012037 Eh     change       -0.1177753E-03 Eh
   gradient norm :     0.0023646 Eh/α   predicted    -0.8702297E-04 ( -26.11%)
   displ. norm   :     0.3221617 α      lambda       -0.1120245E-03
   maximum displ.:     0.2105885 α      in ANC's #5, #1, #3, ...

........................................................................
.............................. CYCLE   13 ..............................
........................................................................
   1    -46.8534230 -0.468534E+02  0.127E-01    2.85       0.0  T
   2    -46.8534238 -0.726925E-06  0.745E-02    2.85       1.0  T
   3    -46.8534234  0.358131E-06  0.472E-03    2.85       3.6  T
   4    -46.8534241 -0.688306E-06  0.120E-03    2.85      14.1  T
   5    -46.8534241 -0.297194E-08  0.764E-04    2.85      22.1  T
   6    -46.8534241 -0.600588E-08  0.173E-04    2.85      97.8  T
     SCC iter.                  ...        0 min,  0.032 sec
     gradient                   ...        0 min,  0.004 sec
 * total energy  :   -46.0012894 Eh     change       -0.8568286E-04 Eh
   gradient norm :     0.0024704 Eh/α   predicted    -0.6182749E-04 ( -27.84%)
   displ. norm   :     0.3314950 α      lambda       -0.8104569E-04
   maximum displ.:     0.2222352 α      in ANC's #5, #1, #4, ...

........................................................................
.............................. CYCLE   14 ..............................
........................................................................
   1    -46.8513415 -0.468513E+02  0.133E-01    2.84       0.0  T
   2    -46.8513424 -0.870325E-06  0.778E-02    2.84       1.0  T
   3    -46.8513419  0.529165E-06  0.561E-03    2.84       3.0  T
   4    -46.8513428 -0.919342E-06  0.131E-03    2.84      12.9  T
   5    -46.8513428 -0.494214E-08  0.823E-04    2.84      20.5  T
   6    -46.8513428 -0.605082E-08  0.190E-04    2.84      88.9  T
     SCC iter.                  ...        0 min,  0.032 sec
     gradient                   ...        0 min,  0.004 sec
 * total energy  :   -46.0013486 Eh     change       -0.5917461E-04 Eh
   gradient norm :     0.0031973 Eh/α   predicted    -0.4498011E-04 ( -23.99%)
   displ. norm   :     0.2728997 α      lambda       -0.9066104E-04
   maximum displ.:     0.1590229 α      in ANC's #5, #4, #6, ...

........................................................................
.............................. CYCLE   15 ..............................
........................................................................
   1    -46.8539182 -0.468539E+02  0.104E-01    2.83       0.0  T
   2    -46.8539188 -0.626819E-06  0.611E-02    2.83       1.0  T
   3    -46.8539182  0.637496E-06  0.549E-03    2.83       3.1  T
   4    -46.8539191 -0.908999E-06  0.119E-03    2.83      14.3  T
   5    -46.8539191 -0.127071E-07  0.670E-04    2.83      25.2  T
   6    -46.8539191 -0.244811E-08  0.225E-04    2.83      75.3  T
     SCC iter.                  ...        0 min,  0.033 sec
     gradient                   ...        0 min,  0.004 sec
 * total energy  :   -46.0013955 Eh     change       -0.4692420E-04 Eh
   gradient norm :     0.0032123 Eh/α   predicted    -0.4871100E-04 (   3.81%)
   displ. norm   :     0.3104373 α      lambda       -0.6145528E-04
   maximum displ.:     0.2172083 α      in ANC's #5, #1, #4, ...

........................................................................
.............................. CYCLE   16 ..............................
........................................................................
   1    -46.8505440 -0.468505E+02  0.127E-01    2.81       0.0  T
   2    -46.8505449 -0.865453E-06  0.747E-02    2.81       1.0  T
   3    -46.8505442  0.633489E-06  0.594E-03    2.81       2.8  T
   4    -46.8505452 -0.100449E-05  0.125E-03    2.81      13.6  T
   5    -46.8505453 -0.785591E-08  0.762E-04    2.81      22.2  T
   6    -46.8505453 -0.414280E-08  0.225E-04    2.81      75.2  T
     SCC iter.                  ...        0 min,  0.033 sec
     gradient                   ...        0 min,  0.004 sec
 * total energy  :   -46.0014261 Eh     change       -0.3054822E-04 Eh
   gradient norm :     0.0034622 Eh/α   predicted    -0.3369140E-04 (  10.29%)
   displ. norm   :     0.0701433 α      lambda       -0.3305186E-04
   maximum displ.:     0.0445337 α      in ANC's #5, #4, #9, ...

........................................................................
.............................. CYCLE   17 ..............................
........................................................................
   1    -46.8514426 -0.468514E+02  0.301E-02    2.82       0.0  T
   2    -46.8514427 -0.597790E-07  0.177E-02    2.82       1.0  T
   3    -46.8514426  0.980053E-07  0.211E-03    2.82       8.0  T
   4    -46.8514427 -0.128375E-06  0.408E-04    2.82      41.4  T
   5    -46.8514427 -0.114633E-08  0.230E-04    2.82      73.5  T
     SCC iter.                  ...        0 min,  0.027 sec
     gradient                   ...        0 min,  0.004 sec
 * total energy  :   -46.0014507 Eh     change       -0.2461871E-04 Eh
   gradient norm :     0.0019565 Eh/α   predicted    -0.1660835E-04 ( -32.54%)
   displ. norm   :     0.2200379 α      lambda       -0.4869391E-04
   maximum displ.:     0.1408132 α      in ANC's #5, #4, #9, ...

........................................................................
.............................. CYCLE   18 ..............................
........................................................................
   1    -46.8542878 -0.468543E+02  0.933E-02    2.83       0.0  T
   2    -46.8542883 -0.458871E-06  0.548E-02    2.83       1.0  T
   3    -46.8542876  0.676534E-06  0.572E-03    2.83       3.0  T
   4    -46.8542886 -0.926354E-06  0.109E-03    2.83      15.5  T
   5    -46.8542886 -0.650336E-08  0.613E-04    2.83      27.6  T
   6    -46.8542886 -0.253281E-08  0.164E-04    2.83     103.0  T
     SCC iter.                  ...        0 min,  0.033 sec
     gradient                   ...        0 min,  0.004 sec
 * total energy  :   -46.0014814 Eh     change       -0.3071475E-04 Eh
   gradient norm :     0.0028787 Eh/α   predicted    -0.2487313E-04 ( -19.02%)
   displ. norm   :     0.1530442 α      lambda       -0.2526009E-04
   maximum displ.:     0.1175517 α      in ANC's #5, #4, #1, ...

........................................................................
.............................. CYCLE   19 ..............................
........................................................................
   1    -46.8527190 -0.468527E+02  0.654E-02    2.82       0.0  T
   2    -46.8527192 -0.177304E-06  0.383E-02    2.82       1.0  T
   3    -46.8527191  0.116995E-06  0.290E-03    2.82       5.8  T
   4    -46.8527193 -0.209858E-06  0.673E-04    2.82      25.1  T
   5    -46.8527193 -0.353999E-09  0.392E-04    2.82      43.1  T
     SCC iter.                  ...        0 min,  0.027 sec
     gradient                   ...        0 min,  0.004 sec
 * total energy  :   -46.0014961 Eh     change       -0.1471630E-04 Eh
   gradient norm :     0.0022353 Eh/α   predicted    -0.1292670E-04 ( -12.16%)
   displ. norm   :     0.0606537 α      lambda       -0.2242687E-04
   maximum displ.:     0.0451522 α      in ANC's #5, #2, #14, ...

........................................................................
.............................. CYCLE   20 ..............................
........................................................................
   1    -46.8524026 -0.468524E+02  0.243E-02    2.81       0.0  T
   2    -46.8524027 -0.507709E-07  0.142E-02    2.81       1.2  T
   3    -46.8524027  0.134041E-07  0.108E-03    2.81      15.6  T
   4    -46.8524027 -0.308059E-07  0.344E-04    2.81      49.1  T
   5    -46.8524027 -0.861426E-09  0.181E-04    2.81      93.2  T
     SCC iter.                  ...        0 min,  0.027 sec
     gradient                   ...        0 min,  0.004 sec
 * total energy  :   -46.0015128 Eh     change       -0.1670595E-04 Eh
   gradient norm :     0.0015960 Eh/α   predicted    -0.1125562E-04 ( -32.63%)
   displ. norm   :     0.1488008 α      lambda       -0.2609564E-04
   maximum displ.:     0.0985703 α      in ANC's #5, #14, #2, ...
 * RMSD in coord.:     0.7090109 α      energy gain  -0.5227283E-02 Eh

generating ANC from model Hessian ...
Using Lindh-Hessian (1995)
 Shifting diagonal of input Hessian by    9.7209904256768363E-003
 Lowest  eigenvalues of input Hessian
    0.000000    0.000000    0.000000    0.000000    0.000000    0.000000
    0.010000    0.010359    0.010700    0.011239    0.011853    0.012836
    0.014649    0.016536    0.018343    0.020145    0.024474    0.024884
 Highest eigenvalues
    1.892517    1.922845    1.980450    2.013074    2.037902    2.116657


........................................................................
.............................. CYCLE   21 ..............................
........................................................................
   1    -46.8524373 -0.468524E+02  0.532E-02    2.80       0.0  T
   2    -46.8524376 -0.290401E-06  0.312E-02    2.80       1.0  T
   3    -46.8524375  0.170297E-06  0.321E-03    2.80       5.3  T
   4    -46.8524377 -0.273862E-06  0.807E-04    2.80      21.0  T
   5    -46.8524377 -0.455471E-08  0.439E-04    2.80      38.5  T
     SCC iter.                  ...        0 min,  0.027 sec
     gradient                   ...        0 min,  0.004 sec
 * total energy  :   -46.0015241 Eh     change       -0.1125128E-04 Eh
   gradient norm :     0.0030635 Eh/α   predicted     0.0000000E+00 (-100.00%)
   displ. norm   :     0.0171027 α      lambda       -0.1358545E-04
   maximum displ.:     0.0070284 α      in ANC's #20, #1, #2, ...

........................................................................
.............................. CYCLE   22 ..............................
........................................................................
   1    -46.8528782 -0.468529E+02  0.120E-02    2.81       0.0  T
   2    -46.8528782 -0.202208E-07  0.714E-03    2.81       2.4  T
   3    -46.8528782  0.335310E-07  0.117E-03    2.81      14.4  T
   4    -46.8528782 -0.402579E-07  0.242E-04    2.81      69.8  T
   5    -46.8528782 -0.813372E-09  0.115E-04    2.81     146.5  T
     SCC iter.                  ...        0 min,  0.027 sec
     gradient                   ...        0 min,  0.004 sec
 * total energy  :   -46.0015355 Eh     change       -0.1146213E-04 Eh
   gradient norm :     0.0014393 Eh/α   predicted    -0.8348772E-05 ( -27.16%)
   displ. norm   :     0.0333420 α      lambda       -0.7236619E-05
   maximum displ.:     0.0187422 α      in ANC's #1, #2, #5, ...

........................................................................
.............................. CYCLE   23 ..............................
........................................................................
   1    -46.8532055 -0.468532E+02  0.149E-02    2.81       0.0  T
   2    -46.8532056 -0.386657E-07  0.881E-03    2.81       1.9  T
   3    -46.8532055  0.240441E-07  0.110E-03    2.81      15.4  T
   4    -46.8532056 -0.312798E-07  0.339E-04    2.81      49.8  T
   5    -46.8532056 -0.199034E-08  0.138E-04    2.81     122.5  T
     SCC iter.                  ...        0 min,  0.027 sec
     gradient                   ...        0 min,  0.004 sec
 * total energy  :   -46.0015404 Eh     change       -0.4864563E-05 Eh
   gradient norm :     0.0009328 Eh/α   predicted    -0.3620753E-05 ( -25.57%)
   displ. norm   :     0.0175128 α      lambda       -0.1871591E-05
   maximum displ.:     0.0112957 α      in ANC's #1, #2, #5, ...

   *** GEOMETRY OPTIMIZATION CONVERGED AFTER 23 ITERATIONS ***

------------------------------------------------------------------------
 total energy gain   :        -0.0052549 Eh       -3.2975 kcal/mol
 total RMSD          :         0.7096343 a0        0.3755 Å
 total power (kW/mol):        -0.5998537 (step)  -14.9840 (real)
------------------------------------------------------------------------

 ANCopt (total)                0 d,  0 h,  0 min,  0.921 sec
 optimizer setup                ...        0 min,  0.000 sec (  0.021%)
 model hessian                  ...        0 min,  0.025 sec (  2.752%)
 ANC generation                 ...        0 min,  0.009 sec (  0.945%)
 coordinate transformation      ...        0 min,  0.001 sec (  0.136%)
 single point calculation       ...        0 min,  0.873 sec ( 94.826%)
 optimization log               ...        0 min,  0.004 sec (  0.476%)
 hessian update                 ...        0 min,  0.001 sec (  0.092%)
 rational function              ...        0 min,  0.003 sec (  0.378%)

================
 final structure:
================
35
 xtb: 6.5.1 (fef0646)
N            2.79485713090891       -1.58818867525106       -2.47119914056812
C            2.37467234092538       -0.16675140702128       -2.42563078955949
C            2.95949937320649        0.50962296985602       -1.18598667112133
C            4.46193442423292        0.57391255899681       -1.25898552911391
C            5.08878553027919        1.56587026045154       -2.00647803582532
C            6.46412457864368        1.62563874439572       -2.09620977651046
C            7.26709131196393        0.68682769668110       -1.44161455007795
C            8.71763617557238        0.71254718541766       -1.48244682385744
C            9.47679827082583        1.73853553626778       -1.89082022804595
C           10.92837101960829        1.77531614579179       -1.90026139531993
C           11.72288603360127        0.63733192157664       -1.74030638556777
C           13.10065012292687        0.73025153640479       -1.74517832864617
C           13.72025955336920        1.95893189990641       -1.90896840109681
C           12.94775939926746        3.09658339927440       -2.07780326583050
C           11.56975973215824        3.00453273332551       -2.07871407408734
C            6.63105308112899       -0.31760017508847       -0.70740627871142
C            5.25395233140143       -0.37130725311841       -0.61535353127545
H            2.47773851798457       -2.04071829356113       -3.33551834687681
H            2.40867821177129       -2.09882770949390       -1.66848733322404
H            3.82060863182579       -1.64054460554481       -2.42133515338596
H            1.28735242887239       -0.11306088282372       -2.40060277737854
H            2.73427668102817        0.33975200307470       -3.32070280385209
H            2.65509461464036       -0.02639516488472       -0.28710664719126
H            2.55939643521566        1.52090078681744       -1.12220002369270
H            4.49325486671957        2.31004021364517       -2.51518396333943
H            6.92269548870073        2.40478217900286       -2.68494254361041
H            9.19606777577508       -0.18063611662230       -1.10257194135189
H            9.00666060732908        2.65753642351913       -2.21589944399499
H           11.26286905030241       -0.33162965992123       -1.62388735505393
H           13.69930558655537       -0.16073313574691       -1.62163825901553
H           14.79779255339496        2.02837805282868       -1.90911943778307
H           13.42375184983150        4.05720427491876       -2.21017268250674
H           10.97597910617703        3.89793992714687       -2.20975247387943
H            7.23215742919738       -1.05228837116907       -0.19224369427479
H            4.79997975465678       -1.14107499905490       -0.00877191437725

 Bond Distances (Angstroems)
 ---------------------------
N1-C2=1.4829         N1-H18=1.0259        N1-H19=1.0268        N1-H20=1.0283        C2-N1=1.4829         C2-C3=1.5285         
C2-H21=1.0889        C2-H22=1.0895        C3-C2=1.5285         C3-C4=1.5056         C3-H23=1.0899        C3-H24=1.0894        
C4-C3=1.5056         C4-C5=1.3913         C4-C17=1.3910        C5-C4=1.3913         C5-C6=1.3796         C5-H25=1.0804        
C6-C5=1.3796         C6-C7=1.3981         C6-H26=1.0789        C7-C6=1.3981         C7-C8=1.4513         C7-C16=1.3973        
C8-C7=1.4513         C8-C9=1.3401         C8-H27=1.0821        C9-C8=1.3401         C9-C10=1.4521        C9-H28=1.0823        
C10-C9=1.4521        C10-C11=1.3971       C10-C15=1.3979       C11-C10=1.3971       C11-C12=1.3809       C11-H29=1.0789       
C12-C11=1.3809       C12-C13=1.3858       C12-H30=1.0805       C13-C12=1.3858       C13-C14=1.3855       C13-H31=1.0798       
C14-C13=1.3855       C14-C15=1.3811       C14-H32=1.0802       C15-C10=1.3979       C15-C14=1.3811       C15-H33=1.0807       
C16-C7=1.3973        C16-C17=1.3812       C16-H34=1.0800       C17-C4=1.3910        C17-C16=1.3812       C17-H35=1.0801       
H18-N1=1.0259        H19-N1=1.0268        H20-N1=1.0283        H21-C2=1.0889        H22-C2=1.0895        H23-C3=1.0899        
H24-C3=1.0894        H25-C5=1.0804        H26-C6=1.0789        H27-C8=1.0821        H28-C9=1.0823        H29-C11=1.0789       
H30-C12=1.0805       H31-C13=1.0798       H32-C14=1.0802       H33-C15=1.0807       H34-C16=1.0800       H35-C17=1.0801       
 C  H  Rav=1.0828 sigma=0.0041  Rmin=1.0789  Rmax=1.0899    15
 C  C  Rav=1.4085 sigma=0.0469  Rmin=1.3401  Rmax=1.5285    17
 N  H  Rav=1.0270 sigma=0.0010  Rmin=1.0259  Rmax=1.0283     3
 N  C  Rav=1.4829 sigma=0.0000  Rmin=1.4829  Rmax=1.4829     1

 selected bond angles (degree)
 --------------------
H18-N1-C2=111.17               H19-N1-C2=110.25               H19-N1-H18=108.85              H20-N1-C2=109.27               
H20-N1-H18=109.07              H20-N1-H19=108.18              C3-C2-N1=109.92                H21-C2-N1=109.32               
H21-C2-C3=109.97               H22-C2-N1=109.08               H22-C2-C3=109.53               H22-C2-H21=109.00              
C4-C3-C2=111.19                H23-C3-C2=110.14               H23-C3-C4=109.86               H24-C3-C2=108.53               
H24-C3-C4=109.25               H24-C3-H23=107.80              C5-C4-C3=120.41                C17-C4-C3=121.11               
C17-C4-C5=118.46               C6-C5-C4=121.00                H25-C5-C4=119.72               H25-C5-C6=119.28               
C7-C6-C5=120.87                H26-C6-C5=119.38               H26-C6-C7=119.76               C8-C7-C6=123.29                
C16-C7-C6=117.86               C16-C7-C8=118.85               C9-C8-C7=126.04                H27-C8-C7=114.67               
H27-C8-C9=119.24               C10-C9-C8=125.99               H28-C9-C8=119.71               H28-C9-C10=114.25              
C11-C10-C9=123.17              C15-C10-C9=118.80              C15-C10-C11=118.03             

 selected dihedral angles (degree)
 ---------------------------------
C3-C2-N1-H18=184.71           C3-C2-N1-H19= 63.91           C3-C2-N1-H20=305.14           H21-C2-N1-H18= 63.91          
H21-C2-N1-H19=303.10          H21-C2-N1-H20=184.34          H22-C2-N1-H18=304.81          H22-C2-N1-H19=184.01          
H22-C2-N1-H20= 65.24          C4-C3-C2-N1= 65.29            C4-C3-C2-H21=185.70           C4-C3-C2-H22=305.46           
H23-C3-C2-N1=303.27           H23-C3-C2-H21= 63.68          H23-C3-C2-H22=183.44          H24-C3-C2-N1=185.48           
H24-C3-C2-H21=305.89          H24-C3-C2-H22= 65.65          C5-C4-C3-C2= 80.64            C5-C4-C3-H23=202.83           
C5-C4-C3-H24=320.89           C17-C4-C3-C2=262.39           C17-C4-C3-H23= 24.58          C17-C4-C3-H24=142.64          
C6-C5-C4-C3=180.86            C6-C5-C4-C17=359.16           H25-C5-C4-C3=  1.67           H25-C5-C4-C17=179.97          
C7-C6-C5-C4=  0.24            C7-C6-C5-H25=179.43           H26-C6-C5-C4=179.87           H26-C6-C5-H25=359.06          
C8-C7-C6-C5=181.02            C8-C7-C6-H26=  1.39           C16-C7-C6-C5=  0.62           C16-C7-C6-H26=180.99          
C9-C8-C7-C6= 14.48            C9-C8-C7-C16=194.89           H27-C8-C7-C6=191.83           H27-C8-C7-C16= 12.24          
C10-C9-C8-C7=178.38           C10-C9-C8-H27=  1.14          H28-C9-C8-C7=  0.92           H28-C9-C8-H27=183.68          
C11-C10-C9-C8= 13.73          C11-C10-C9-H28=191.31         C15-C10-C9-C8=193.67          C15-C10-C9-H28= 11.24         
           -------------------------------------------------
          |                Final Singlepoint                |
           -------------------------------------------------

          ...................................................
          :                      SETUP                      :
          :.................................................:
          :  # basis functions                  86          :
          :  # atomic orbitals                  86          :
          :  # shells                           52          :
          :  # electrons                        86          :
          :  max. iterations                   250          :
          :  Hamiltonian                  GFN2-xTB          :
          :  restarted?                      false          :
          :  GBSA solvation                   true          :
          :  PC potential                    false          :
          :  electronic temp.          300.0000000     K    :
          :  accuracy                    1.0000000          :
          :  -> integral cutoff          0.2500000E+02      :
          :  -> integral neglect         0.1000000E-07      :
          :  -> SCF convergence          0.1000000E-05 Eh   :
          :  -> wf. convergence          0.1000000E-03 e    :
          :  Broyden damping             0.4000000          :
          ...................................................

 iter      E             dE          RMSdq      gap      omega  full diag
   1    -46.8532056 -0.468532E+02  0.728E-05    2.81       0.0  T
   2    -46.8532056 -0.310365E-10  0.483E-05    2.81     349.9  T
   3    -46.8532056 -0.189573E-10  0.321E-05    2.81     527.1  T

   *** convergence criteria satisfied after 3 iterations ***

         #    Occupation            Energy/Eh            Energy/eV
      -------------------------------------------------------------
         1        2.0000           -0.6934084             -18.8686
       ...           ...                  ...                  ...
        37        2.0000           -0.4214703             -11.4688
        38        2.0000           -0.4195498             -11.4165
        39        2.0000           -0.4139579             -11.2644
        40        2.0000           -0.4093480             -11.1389
        41        2.0000           -0.4063200             -11.0565
        42        2.0000           -0.4036788             -10.9847
        43        2.0000           -0.3704095             -10.0794 (HOMO)
        44                         -0.2671499              -7.2695 (LUMO)
        45                         -0.2241019              -6.0981
        46                         -0.2212089              -6.0194
        47                         -0.2118669              -5.7652
        48                         -0.1633080              -4.4438
       ...                                ...                  ...
        86                          0.7005369              19.0626
      -------------------------------------------------------------
                  HL-Gap            0.1032595 Eh            2.8098 eV
             Fermi-level           -0.3187797 Eh           -8.6744 eV

 SCC (total)                   0 d,  0 h,  0 min,  0.024 sec
 SCC setup                      ...        0 min,  0.000 sec (  1.421%)
 Dispersion                     ...        0 min,  0.000 sec (  1.505%)
 classical contributions        ...        0 min,  0.000 sec (  0.179%)
 integral evaluation            ...        0 min,  0.001 sec (  5.245%)
 iterations                     ...        0 min,  0.017 sec ( 71.043%)
 molecular gradient             ...        0 min,  0.004 sec ( 17.436%)
 printout                       ...        0 min,  0.001 sec (  2.210%)

         :::::::::::::::::::::::::::::::::::::::::::::::::::::
         ::                     SUMMARY                     ::
         :::::::::::::::::::::::::::::::::::::::::::::::::::::
         :: total energy             -46.001540388641 Eh    ::
         :: total w/o Gsasa/hb       -45.989613504181 Eh    ::
         :: gradient norm              0.000932213591 Eh/a0 ::
         :: HOMO-LUMO gap              2.809834298046 eV    ::
         ::.................................................::
         :: SCC energy               -46.853205561731 Eh    ::
         :: -> isotropic ES            0.125872762645 Eh    ::
         :: -> anisotropic ES         -0.014265317617 Eh    ::
         :: -> anisotropic XC          0.032800633356 Eh    ::
         :: -> dispersion             -0.031412531206 Eh    ::
         :: -> Gsolv                  -0.118808293183 Eh    ::
         ::    -> Gelec               -0.106881408723 Eh    ::
         ::    -> Gsasa               -0.002903597014 Eh    ::
         ::    -> Ghb                 -0.010104047144 Eh    ::
         ::    -> Gshift               0.001080759698 Eh    ::
         :: repulsion energy           0.851948364426 Eh    ::
         :: add. restraining           0.000000000000 Eh    ::
         :: total charge               1.000000000000 e     ::
         :::::::::::::::::::::::::::::::::::::::::::::::::::::

           -------------------------------------------------
          |                Property Printout                |
           -------------------------------------------------

    * Orbital Energies and Occupations

         #    Occupation            Energy/Eh            Energy/eV
      -------------------------------------------------------------
         1        2.0000           -0.6934084             -18.8686
       ...           ...                  ...                  ...
        31        2.0000           -0.4708936             -12.8137
        32        2.0000           -0.4657409             -12.6735
        33        2.0000           -0.4541492             -12.3580
        34        2.0000           -0.4429370             -12.0529
        35        2.0000           -0.4381188             -11.9218
        36        2.0000           -0.4309880             -11.7278
        37        2.0000           -0.4214703             -11.4688
        38        2.0000           -0.4195498             -11.4165
        39        2.0000           -0.4139579             -11.2644
        40        2.0000           -0.4093480             -11.1389
        41        2.0000           -0.4063200             -11.0565
        42        2.0000           -0.4036788             -10.9847
        43        2.0000           -0.3704095             -10.0794 (HOMO)
        44                         -0.2671499              -7.2695 (LUMO)
        45                         -0.2241019              -6.0981
        46                         -0.2212089              -6.0194
        47                         -0.2118669              -5.7652
        48                         -0.1633080              -4.4438
        49                         -0.0891199              -2.4251
        50                         -0.0711290              -1.9355
        51                         -0.0460037              -1.2518
        52                          0.0585830               1.5941
        53                          0.0826998               2.2504
        54                          0.0948179               2.5801
       ...                                ...                  ...
        86                          0.7005369              19.0626
      -------------------------------------------------------------
                  HL-Gap            0.1032595 Eh            2.8098 eV
             Fermi-level           -0.3187797 Eh           -8.6744 eV

     #   Z          covCN         q      C6AA      α(0)
     1   7 N        3.485    -0.154    24.328     7.326
     2   6 C        3.733    -0.036    21.316     6.590
     3   6 C        3.808    -0.094    22.295     6.721
     4   6 C        2.970     0.008    27.841     8.655
     5   6 C        2.922    -0.045    29.119     8.849
     6   6 C        2.922    -0.038    28.933     8.821
     7   6 C        2.970     0.009    27.806     8.650
     8   6 C        2.901    -0.044    29.102     8.845
     9   6 C        2.901    -0.043    29.074     8.841
    10   6 C        2.970     0.011    27.769     8.644
    11   6 C        2.924    -0.039    28.971     8.827
    12   6 C        2.918    -0.035    28.883     8.813
    13   6 C        2.920    -0.036    28.897     8.815
    14   6 C        2.917    -0.035    28.878     8.812
    15   6 C        2.929    -0.040    28.989     8.830
    16   6 C        2.927    -0.041    29.022     8.835
    17   6 C        2.920    -0.055    29.363     8.886
    18   1 H        0.859     0.317     0.665     1.278
    19   1 H        0.859     0.309     0.686     1.298
    20   1 H        0.859     0.293     0.733     1.341
    21   1 H        0.925     0.117     1.641     2.003
    22   1 H        0.925     0.109     1.705     2.042
    23   1 H        0.925     0.081     1.970     2.195
    24   1 H        0.925     0.080     1.979     2.200
    25   1 H        0.926     0.045     2.377     2.411
    26   1 H        0.926     0.028     2.619     2.531
    27   1 H        0.925     0.037     2.494     2.470
    28   1 H        0.925     0.038     2.475     2.460
    29   1 H        0.926     0.040     2.444     2.445
    30   1 H        0.926     0.032     2.552     2.498
    31   1 H        0.926     0.029     2.605     2.524
    32   1 H        0.926     0.030     2.593     2.518
    33   1 H        0.926     0.034     2.528     2.487
    34   1 H        0.926     0.032     2.557     2.501
    35   1 H        0.926     0.058     2.221     2.330

 Mol. C6AA /au·bohr⁶  :      13117.938913
 Mol. C8AA /au·bohr⁸  :     318773.699067
 Mol. α(0) /au        :        183.290505


Wiberg/Mayer (AO) data.
largest (>0.10) Wiberg bond orders for each atom

 ---------------------------------------------------------------------------
     #   Z sym  total        # sym  WBO       # sym  WBO       # sym  WBO
 ---------------------------------------------------------------------------
     1   7 N    3.657 --     2 C    0.966    20 H    0.892    19 H    0.889
                            18 H    0.886
     2   6 C    3.925 --     3 C    0.997    22 H    0.966     1 N    0.966
                            21 H    0.964
     3   6 C    3.988 --     4 C    1.011     2 C    0.997    23 H    0.967
                            24 H    0.961
     4   6 C    3.977 --    17 C    1.403     5 C    1.394     3 C    1.011
     5   6 C    3.990 --     6 C    1.472     4 C    1.394    25 H    0.968
                            16 C    0.102
     6   6 C    3.983 --     5 C    1.472     7 C    1.360    26 H    0.966
                            17 C    0.101
     7   6 C    3.989 --    16 C    1.368     6 C    1.360     8 C    1.110
     8   6 C    3.989 --     9 C    1.763     7 C    1.110    27 H    0.959
     9   6 C    3.988 --     8 C    1.763    10 C    1.110    28 H    0.959
    10   6 C    3.989 --    15 C    1.366    11 C    1.365     9 C    1.110
    11   6 C    3.983 --    12 C    1.463    10 C    1.365    29 H    0.965
                            14 C    0.105
    12   6 C    3.992 --    11 C    1.463    13 C    1.427    30 H    0.971
                            15 C    0.104
    13   6 C    3.981 --    14 C    1.430    12 C    1.427    31 H    0.972
    14   6 C    3.992 --    15 C    1.460    13 C    1.430    32 H    0.971
                            11 C    0.105
    15   6 C    3.982 --    14 C    1.460    10 C    1.366    33 H    0.969
                            12 C    0.104
    16   6 C    3.981 --    17 C    1.457     7 C    1.368    34 H    0.969
                             5 C    0.102
    17   6 C    3.988 --    16 C    1.457     4 C    1.403    35 H    0.965
                             6 C    0.101
    18   1 H    0.900 --     1 N    0.886
    19   1 H    0.904 --     1 N    0.889
    20   1 H    0.914 --     1 N    0.892
    21   1 H    0.986 --     2 C    0.964
    22   1 H    0.988 --     2 C    0.966
    23   1 H    0.993 --     3 C    0.967
    24   1 H    0.993 --     3 C    0.961
    25   1 H    0.998 --     5 C    0.968
    26   1 H    0.999 --     6 C    0.966
    27   1 H    0.998 --     8 C    0.959
    28   1 H    0.998 --     9 C    0.959
    29   1 H    0.998 --    11 C    0.965
    30   1 H    0.999 --    12 C    0.971
    31   1 H    0.999 --    13 C    0.972
    32   1 H    0.999 --    14 C    0.971
    33   1 H    0.999 --    15 C    0.969
    34   1 H    0.999 --    16 C    0.969
    35   1 H    0.996 --    17 C    0.965
 ---------------------------------------------------------------------------

Topologies differ in total number of bonds
Writing topology from bond orders to xtbtopo.mol

molecular dipole:
                 x           y           z       tot (Debye)
 q only:        4.647      -2.829      -4.535
   full:        5.057      -2.784      -4.517      18.630
molecular quadrupole (traceless):
                xx          xy          yy          xz          yz          zz
 q only:       -0.060     -25.707      -7.766     -32.195      18.245       7.826
  q+dip:       13.588     -22.518      -9.712     -34.076      13.500      -3.876
   full:       10.865     -22.625     -11.154     -33.839      16.690       0.289

           -------------------------------------------------
          |                Geometry Summary                 |
           -------------------------------------------------

      molecular mass/u    :      224.3214111
   center of mass at/Å    :        7.8348765       0.8986292      -1.7241133
  moments of inertia/u·Å² :        0.2689864E+03   0.3511908E+04   0.3650727E+04
rotational constants/cm⁻¹ :        0.6267094E-01   0.4800135E-02   0.4617610E-02

 * 33 selected distances

     #   Z          #   Z                                           value/Å
     1   7 N        2   6 C                                       1.4829417
     2   6 C        3   6 C                                       1.5284708 (max)
     4   6 C        5   6 C                                       1.3912828
     5   6 C        6   6 C                                       1.3795586
     6   6 C        7   6 C                                       1.3980762
     8   6 C        9   6 C                                       1.3400554
    10   6 C       11   6 C                                       1.3970856
    11   6 C       12   6 C                                       1.3809026
    12   6 C       13   6 C                                       1.3857846
    13   6 C       14   6 C                                       1.3854649
    10   6 C       15   6 C                                       1.3979265
    14   6 C       15   6 C                                       1.3810712
     7   6 C       16   6 C                                       1.3973125
     4   6 C       17   6 C                                       1.3910411
    16   6 C       17   6 C                                       1.3812187
     1   7 N       18   1 H                                       1.0258631 (min)
     1   7 N       19   1 H                                       1.0267584
     1   7 N       20   1 H                                       1.0282966
     2   6 C       21   1 H                                       1.0889325
     2   6 C       22   1 H                                       1.0895022
     3   6 C       23   1 H                                       1.0899373
     3   6 C       24   1 H                                       1.0894192
     5   6 C       25   1 H                                       1.0803831
     6   6 C       26   1 H                                       1.0788690
     8   6 C       27   1 H                                       1.0821175
     9   6 C       28   1 H                                       1.0822517
    11   6 C       29   1 H                                       1.0789142
    12   6 C       30   1 H                                       1.0805112
    13   6 C       31   1 H                                       1.0797687
    14   6 C       32   1 H                                       1.0802237
    15   6 C       33   1 H                                       1.0807049
    16   6 C       34   1 H                                       1.0800398
    17   6 C       35   1 H                                       1.0800810

 * 4 distinct bonds (by element types)

   Z      Z             #   av. dist./Å        max./Å        min./Å
   1 H    6 C          15     1.0827771     1.0899373     1.0788690
   6 C    6 C          14     1.3953751     1.5284708     1.3400554
   1 H    7 N           3     1.0269727     1.0282966     1.0258631
   6 C    7 N           1     1.4829417     1.4829417     1.4829417


optimized geometry written to: xtbopt.xyz


           -------------------------------------------------
          | TOTAL ENERGY              -46.001540388641 Eh   |
          | GRADIENT NORM               0.000932213591 Eh/α |
          | HOMO-LUMO GAP               2.809834298046 eV   |
           -------------------------------------------------

------------------------------------------------------------------------
 * finished run on 2023/01/24 at 14:56:17.347     
------------------------------------------------------------------------
 total:
 * wall-time:     0 d,  0 h,  0 min,  1.052 sec
 *  cpu-time:     0 d,  0 h,  1 min, 55.129 sec
 * ratio c/w:   109.408 speedup
 SCF:
 * wall-time:     0 d,  0 h,  0 min,  0.086 sec
 *  cpu-time:     0 d,  0 h,  0 min, 11.911 sec
 * ratio c/w:   138.038 speedup
 ANC optimizer:
 * wall-time:     0 d,  0 h,  0 min,  0.946 sec
 *  cpu-time:     0 d,  0 h,  1 min, 40.690 sec
 * ratio c/w:   106.402 speedup

