46
 energy: -73.513155245431 gnorm: 0.000788088842 xtb: 6.5.1 (fef0646)
N            1.40268955294324        0.94794805993883        2.82633451608211
C            2.73041309818156        1.09817004644852        2.20319980901778
C            3.51140206347272       -0.21108429286262        2.33156324468422
C            4.81157427683193       -0.12797178611306        1.61256327574033
C            5.22849462473635       -0.81687394798330        0.51404982485469
C            6.52196541777844       -0.46679732491669        0.08692141051665
C            7.10399056780833        0.50559891471786        0.86216107817265
C            8.39618769309517        1.09334353612726        0.72765526280239
C            9.36883271670652        0.81270913630083       -0.20117450998857
C           10.54585503496169        1.56530896359070       -0.05492185753835
C           11.72464285189235        1.41120038790010       -0.95434955485799
C           10.47890133587717        2.44626276850611        1.00901928850977
C           11.43831499981867        3.37475779214203        1.49918976963627
C           11.30018777699421        4.20894057766159        2.58636082062236
C           12.41579243426706        5.01560863959564        2.82707127967894
C           13.43883229673850        4.81808812643559        1.92910553232059
C           14.71880215915660        5.44758964186794        1.83679531574500
C           15.42400269572835        6.16761642891921        2.77700223580605
C           14.98668354363050        6.42959596461341        4.17981634344505
C           16.66376405847636        6.62524571261577        2.27098115588676
C           16.89904496207072        6.25961866285685        0.98597045051401
S           15.60596681062879        5.33471755963624        0.33568723416719
S           12.99875825105641        3.60280638077190        0.75919744884210
S            8.93982918217686        2.32847995647930        1.82434678358605
S            6.03230691508165        0.98933301764695        2.14091732424690
Cl           0.05021391847855       -1.47562138673848        1.53744696501412
H            0.82480445473931        1.77933947690735        2.68227303490048
H            1.48784450720556        0.75543169273246        3.82781245056094
H            0.90441586778719        0.12851355776957        2.39163652154337
H            3.28284312689314        1.90734799244304        2.68341514149036
H            2.59852340328333        1.32859292150408        1.14632020376694
H            2.91547595851238       -1.02123027277311        1.90777663683307
H            3.69562803828605       -0.42903014839468        3.38498397997609
H            4.62395796651215       -1.56002809511038        0.02530252696593
H            7.00922885264187       -0.91180878982317       -0.76091851141587
H            9.24035204745166        0.07639933782544       -0.97382507577828
H           11.52873597125141        0.64032026143808       -1.69410357439879
H           12.61118362549442        1.13627580148351       -0.38332933621837
H           11.94199303134130        2.34707882980917       -1.46848353413063
H           10.40647347567551        4.23036697085035        3.18489753075955
H           12.45194777581325        5.73826375051135        3.61879398125364
H           14.54798086850935        5.53578981110449        4.61864076540789
H           14.24559144810415        7.22816285927627        4.20809094446569
H           15.84009537772538        6.73607512687163        4.77857786541110
H           17.35509757909420        7.20505523875187        2.85578866676651
H           17.75149738509003        6.47194214067039        0.37335933433280
