 Entering Gaussian System
 *********************************************
 Gaussian 98:
 frequency output generated by the xtb code
 *********************************************
                         Standard orientation:
 --------------------------------------------------------------------
  Center     Atomic     Atomic              Coordinates (Angstroms)
  Number     Number      Type              X           Y           Z
 --------------------------------------------------------------------
    1          7             0       -2.475460    0.943571   -1.270873
    2          6             0       -2.259871    2.064161   -0.317716
    3          6             0       -1.469688    1.623289    0.911562
    4          6             0       -0.156163    0.989562    0.558679
    5          6             0       -0.060161   -0.388379    0.398851
    6          6             0        1.134635   -0.973506    0.034418
    7          6             0        2.252929   -0.185362   -0.182418
    8         17             0        3.749663   -0.914971   -0.641782
    9          6             0        2.167136    1.189559   -0.035180
   10          6             0        0.970071    1.771376    0.329284
   11         17             0       -3.313948   -1.870742    0.614305
   12          1             0       -2.876562    0.125114   -0.783630
   13          1             0       -1.577883    0.634525   -1.684746
   14          1             0       -3.107901    1.198933   -2.047481
   15          1             0       -3.227727    2.484967   -0.016703
   16          1             0       -1.729188    2.875828   -0.829829
   17          1             0       -2.063110    0.908053    1.492526
   18          1             0       -1.294342    2.471740    1.583960
   19          1             0       -0.937223   -0.996414    0.550205
   20          1             0        1.213959   -2.041037   -0.089841
   21          1             0        3.044339    1.790444   -0.211564
   22          1             0        0.898476    2.841126    0.436242
 --------------------------------------------------------------------
     1 basis functions        1 primitive gaussians
     1 alpha electrons        1 beta electrons

 Harmonic frequencies (cm**-1), IR intensities (km*mol⁻¹),
 Raman scattering activities (A**4/amu), Raman depolarization ratios,
 reduced masses (AMU), force constants (mDyne/A) and normal coordinates:
                      1                      2                      3
                        a                      a                      a 
 Frequencies --  -137.8765                48.3132                55.7074
 Red. masses --    19.4131                14.3147                27.2641
 Frc consts  --     0.0000                 0.0000                 0.0000
 IR Inten    --   129.0414                 1.3939                12.4808
 Raman Activ --     0.0000                 0.0000                 0.0000
 Depolar     --     0.0000                 0.0000                 0.0000
 Atom AN      X      Y      Z        X      Y      Z        X      Y      Z
   1   7     0.21   0.49  -0.31    -0.00  -0.13   0.05    -0.16  -0.07   0.02
   2   6     0.11   0.24  -0.02    -0.01   0.02  -0.13     0.05  -0.06  -0.03
   3   6    -0.03  -0.02  -0.03     0.06   0.27  -0.08     0.05  -0.13  -0.06
   4   6    -0.03  -0.02  -0.02     0.03   0.18  -0.03     0.07  -0.08  -0.08
   5   6    -0.02  -0.02   0.01    -0.13   0.20  -0.29     0.10  -0.06  -0.23
   6   6    -0.01  -0.01   0.02    -0.17   0.12  -0.30     0.13  -0.00  -0.21
   7   6    -0.02  -0.00  -0.00    -0.04   0.02  -0.00     0.14   0.04  -0.04
   8  17    -0.02   0.01   0.01    -0.16  -0.16   0.00     0.36   0.21   0.05
   9   6    -0.03   0.00  -0.03     0.13  -0.01   0.31     0.10   0.02   0.10
  10   6    -0.04  -0.01  -0.04     0.16   0.08   0.28     0.07  -0.04   0.08
  11  17    -0.11  -0.51   0.31     0.13  -0.31   0.13    -0.68   0.05   0.21
  12   1    -0.03   0.15  -0.17     0.01  -0.02   0.05    -0.11   0.02   0.02
  13   1     0.08   0.10  -0.02     0.00  -0.04   0.02    -0.05  -0.08   0.03
  14   1     0.14   0.20  -0.13    -0.01  -0.07   0.01    -0.01   0.01  -0.01
  15   1     0.02   0.06  -0.02    -0.00   0.01  -0.04     0.03   0.02   0.00
  16   1     0.06   0.09   0.06    -0.02  -0.01  -0.08     0.04  -0.04  -0.02
  17   1    -0.03  -0.03  -0.06     0.03   0.11   0.03     0.01  -0.05  -0.03
  18   1    -0.02  -0.04   0.04     0.03   0.11  -0.07     0.01  -0.05  -0.00
  19   1    -0.00  -0.01   0.01    -0.06   0.07  -0.13     0.03  -0.03  -0.09
  20   1     0.00  -0.00   0.01    -0.09   0.04  -0.15     0.05   0.00  -0.09
  21   1    -0.01   0.00  -0.01     0.07  -0.02   0.16     0.03   0.02   0.07
  22   1    -0.01  -0.00  -0.02     0.09   0.02   0.14     0.01  -0.02   0.05
                      4                      5                      6
                        a                      a                      a 
 Frequencies --    73.4943                87.9156               144.5256
 Red. masses --    18.2725                21.0691                11.8501
 Frc consts  --     0.0000                 0.0000                 0.0000
 IR Inten    --    14.9448                20.8663                23.0640
 Raman Activ --     0.0000                 0.0000                 0.0000
 Depolar     --     0.0000                 0.0000                 0.0000
 Atom AN      X      Y      Z        X      Y      Z        X      Y      Z
   1   7    -0.34   0.24   0.13    -0.02  -0.08   0.21     0.56  -0.16   0.09
   2   6    -0.21   0.11   0.23    -0.02   0.01   0.09    -0.00  -0.14   0.17
   3   6     0.04  -0.01   0.02     0.16   0.24   0.06     0.01  -0.03   0.20
   4   6    -0.01   0.01  -0.21     0.13   0.19   0.02    -0.03   0.01   0.02
   5   6    -0.03   0.01  -0.26     0.09   0.17   0.21    -0.08   0.03  -0.16
   6   6    -0.02  -0.01  -0.20     0.05   0.10   0.20    -0.12   0.04  -0.28
   7   6     0.02  -0.03  -0.09     0.05   0.04  -0.00    -0.10   0.04  -0.19
   8  17     0.18  -0.15   0.46    -0.01  -0.12   0.00    -0.04   0.03   0.23
   9   6     0.01  -0.02  -0.18     0.08   0.07  -0.21    -0.10   0.04  -0.22
  10   6    -0.01  -0.01  -0.24     0.12   0.14  -0.19    -0.07   0.04  -0.11
  11  17     0.21  -0.06  -0.01    -0.39  -0.43  -0.28    -0.09   0.09   0.03
  12   1    -0.01   0.02   0.03    -0.02  -0.02   0.05     0.04  -0.03  -0.04
  13   1    -0.11   0.12  -0.05    -0.01  -0.03   0.07     0.22  -0.06   0.18
  14   1    -0.16   0.07   0.09     0.00  -0.03   0.05     0.28  -0.04  -0.08
  15   1    -0.05   0.00   0.14    -0.01  -0.01   0.04    -0.05  -0.13   0.02
  16   1    -0.11   0.06   0.07    -0.04   0.00  -0.01    -0.05   0.01   0.09
  17   1     0.04  -0.02   0.02     0.07   0.10   0.08     0.02  -0.01   0.07
  18   1     0.05  -0.02   0.02     0.07   0.11  -0.03     0.01  -0.00   0.05
  19   1    -0.01   0.00  -0.08     0.03   0.06   0.09    -0.02   0.01  -0.04
  20   1    -0.01  -0.00  -0.06     0.01   0.02   0.10    -0.04   0.01  -0.10
  21   1     0.01  -0.01  -0.04     0.02   0.01  -0.11    -0.03   0.01  -0.07
  22   1     0.00  -0.00  -0.08     0.04   0.05  -0.10    -0.02   0.01  -0.02
                      7                      8                      9
                        a                      a                      a 
 Frequencies --   186.0775               237.8102               261.4816
 Red. masses --     9.9248                15.3048                 4.9353
 Frc consts  --     0.0000                 0.0000                 0.0000
 IR Inten    --     4.6172                 1.6943                 1.4925
 Raman Activ --     0.0000                 0.0000                 0.0000
 Depolar     --     0.0000                 0.0000                 0.0000
 Atom AN      X      Y      Z        X      Y      Z        X      Y      Z
   1   7    -0.13  -0.04   0.26    -0.16  -0.02  -0.06    -0.11   0.01   0.15
   2   6     0.48   0.20  -0.17     0.10  -0.10  -0.01    -0.17   0.07   0.04
   3   6     0.04   0.07   0.05    -0.12  -0.31   0.05    -0.02   0.06  -0.07
   4   6    -0.04  -0.10   0.12     0.06   0.06   0.09    -0.06   0.01  -0.18
   5   6    -0.08  -0.09   0.01     0.15   0.09  -0.00    -0.04  -0.01  -0.09
   6   6    -0.10  -0.06  -0.12     0.16   0.24  -0.08     0.02  -0.06   0.15
   7   6    -0.12  -0.03  -0.12     0.11   0.30  -0.07     0.05  -0.09   0.17
   8  17    -0.01   0.17   0.16    -0.23  -0.43   0.07     0.07   0.03  -0.11
   9   6    -0.14  -0.02  -0.17     0.05   0.30  -0.05     0.03  -0.08   0.12
  10   6    -0.10  -0.06  -0.04    -0.02   0.17   0.06    -0.01  -0.04  -0.08
  11  17     0.10  -0.10  -0.07     0.06   0.02  -0.01     0.14   0.05  -0.05
  12   1    -0.13   0.08   0.15    -0.19   0.06  -0.04    -0.45   0.16  -0.06
  13   1    -0.08  -0.17   0.09    -0.05  -0.13   0.07     0.06  -0.30   0.44
  14   1    -0.00  -0.00   0.05     0.06   0.08  -0.07     0.35   0.12  -0.24
  15   1     0.20   0.27  -0.13     0.05   0.05  -0.03    -0.05   0.01   0.02
  16   1     0.32  -0.10  -0.11     0.11  -0.07   0.01    -0.06   0.02  -0.01
  17   1    -0.06   0.05  -0.02    -0.03  -0.18  -0.09     0.01   0.02   0.00
  18   1     0.03   0.01   0.02    -0.13  -0.14   0.10     0.03   0.01  -0.02
  19   1    -0.02  -0.03   0.01     0.06   0.01  -0.01    -0.02   0.00  -0.04
  20   1    -0.02  -0.01  -0.05     0.08   0.07  -0.04     0.00  -0.02   0.07
  21   1    -0.05  -0.00  -0.07    -0.01   0.11  -0.02     0.01  -0.03   0.05
  22   1    -0.04  -0.02  -0.01    -0.03   0.05   0.03     0.00  -0.01  -0.04
                     10                     11                     12
                        a                      a                      a 
 Frequencies --   310.8776               345.7812               369.6884
 Red. masses --    11.6200                19.6686                 9.5888
 Frc consts  --     0.0000                 0.0000                 0.0000
 IR Inten    --    11.8039                 2.5244                 0.9673
 Raman Activ --     0.0000                 0.0000                 0.0000
 Depolar     --     0.0000                 0.0000                 0.0000
 Atom AN      X      Y      Z        X      Y      Z        X      Y      Z
   1   7     0.23  -0.02   0.29    -0.09  -0.01  -0.12    -0.03   0.02  -0.07
   2   6     0.10   0.18   0.02     0.16  -0.21   0.09    -0.03  -0.04   0.00
   3   6     0.02  -0.05  -0.07     0.28  -0.21   0.00     0.18   0.15  -0.04
   4   6    -0.10  -0.12  -0.33     0.28   0.03  -0.13     0.01  -0.19  -0.01
   5   6    -0.01  -0.12  -0.27     0.00   0.02  -0.09    -0.04  -0.17  -0.30
   6   6     0.17   0.03   0.12    -0.09  -0.15   0.04     0.20  -0.03   0.26
   7   6     0.12   0.14   0.31    -0.15  -0.07   0.17     0.00   0.14  -0.09
   8  17    -0.23  -0.07  -0.09    -0.49   0.35   0.12    -0.17   0.00   0.08
   9   6     0.02   0.15   0.19     0.15  -0.05   0.02    -0.08   0.15  -0.32
  10   6    -0.17   0.00  -0.23     0.22   0.10  -0.14     0.03  -0.12   0.41
  11  17    -0.06  -0.04   0.01     0.01   0.01   0.00     0.01   0.02   0.01
  12   1     0.21  -0.04   0.16    -0.07  -0.00  -0.08    -0.04   0.01  -0.04
  13   1     0.06   0.09   0.00    -0.05  -0.04  -0.06    -0.01  -0.00  -0.00
  14   1    -0.05  -0.13   0.13    -0.01   0.09  -0.01     0.01   0.04  -0.02
  15   1     0.03   0.07  -0.02     0.06  -0.06   0.07    -0.01  -0.05   0.04
  16   1     0.05   0.03  -0.00     0.04  -0.05   0.04    -0.06   0.02  -0.01
  17   1    -0.02  -0.02  -0.05     0.12  -0.10  -0.01     0.04   0.15   0.11
  18   1     0.06  -0.07   0.04     0.04  -0.07   0.02     0.15   0.11  -0.12
  19   1     0.01  -0.06  -0.11    -0.04   0.06  -0.03    -0.02  -0.06  -0.16
  20   1     0.10   0.01   0.05    -0.02  -0.04   0.01     0.14  -0.01   0.18
  21   1    -0.00   0.07   0.09     0.09  -0.08  -0.01    -0.06   0.07  -0.18
  22   1    -0.11  -0.00  -0.09     0.05   0.03  -0.07    -0.01  -0.05   0.26
                     13                     14                     15
                        a                      a                      a 
 Frequencies --   374.1175               424.1522               517.5972
 Red. masses --     9.4571                10.7124                 9.8564
 Frc consts  --     0.0000                 0.0000                 0.0000
 IR Inten    --     3.5182                13.0835                 1.5265
 Raman Activ --     0.0000                 0.0000                 0.0000
 Depolar     --     0.0000                 0.0000                 0.0000
 Atom AN      X      Y      Z        X      Y      Z        X      Y      Z
   1   7     0.06  -0.04   0.11    -0.08  -0.02  -0.22     0.02   0.03   0.10
   2   6     0.04   0.05  -0.01     0.16  -0.23   0.07    -0.20   0.20  -0.13
   3   6    -0.21  -0.20   0.03     0.03   0.12   0.29    -0.07   0.01  -0.21
   4   6    -0.00   0.25  -0.04    -0.06   0.01   0.25     0.15  -0.07   0.40
   5   6    -0.12   0.28  -0.32    -0.15   0.07  -0.25     0.13  -0.06   0.02
   6   6    -0.08  -0.03   0.31    -0.04   0.09   0.01     0.05  -0.06  -0.23
   7   6    -0.03  -0.17   0.08     0.14  -0.02   0.46     0.15  -0.06   0.39
   8  17     0.18   0.02  -0.07     0.17  -0.09  -0.14    -0.18   0.08   0.03
   9   6    -0.06  -0.13  -0.24    -0.09   0.02  -0.02     0.05  -0.02  -0.24
  10   6     0.15   0.10   0.17    -0.15   0.01  -0.17     0.11  -0.08   0.07
  11  17    -0.02  -0.02   0.00     0.01   0.02   0.01    -0.01  -0.01   0.00
  12   1     0.08  -0.02   0.07    -0.06  -0.02  -0.12     0.03   0.03   0.08
  13   1     0.01   0.02  -0.00    -0.06  -0.02  -0.13     0.04   0.02   0.09
  14   1    -0.03  -0.07   0.05    -0.04   0.12  -0.00     0.02  -0.10  -0.02
  15   1     0.02   0.06  -0.05     0.05  -0.02  -0.02    -0.07  -0.02   0.03
  16   1     0.08  -0.02   0.02     0.10  -0.09   0.03    -0.15   0.10  -0.05
  17   1    -0.05  -0.20  -0.15     0.02   0.12   0.19    -0.06  -0.03  -0.14
  18   1    -0.18  -0.15   0.16     0.04   0.13  -0.04    -0.08  -0.04   0.01
  19   1    -0.07   0.11  -0.16    -0.07   0.02  -0.19     0.01  -0.01  -0.13
  20   1    -0.07  -0.02   0.19    -0.05   0.03  -0.08    -0.02   0.00  -0.26
  21   1    -0.02  -0.06  -0.16    -0.07   0.04  -0.11    -0.03   0.00  -0.26
  22   1     0.12   0.03   0.11    -0.07   0.01  -0.17    -0.01  -0.01  -0.14
                     16                     17                     18
                        a                      a                      a 
 Frequencies --   603.8453               630.3577               676.7546
 Red. masses --    11.3398                13.6052                10.8288
 Frc consts  --     0.0000                 0.0000                 0.0000
 IR Inten    --     3.3080                13.0899                 4.0646
 Raman Activ --     0.0000                 0.0000                 0.0000
 Depolar     --     0.0000                 0.0000                 0.0000
 Atom AN      X      Y      Z        X      Y      Z        X      Y      Z
   1   7     0.00  -0.01   0.01     0.01   0.02   0.06    -0.01   0.01   0.02
   2   6    -0.00  -0.00   0.01     0.07  -0.01   0.01    -0.01   0.06  -0.07
   3   6    -0.01  -0.06  -0.02     0.31  -0.14  -0.26     0.09  -0.01  -0.11
   4   6    -0.04  -0.12  -0.00     0.16  -0.07  -0.12     0.20  -0.09   0.52
   5   6    -0.46  -0.10   0.12    -0.22  -0.10   0.18    -0.13  -0.03  -0.27
   6   6    -0.22   0.41   0.09    -0.27  -0.03  -0.05     0.03  -0.07   0.29
   7   6     0.04   0.12   0.00    -0.22   0.10   0.23    -0.18   0.07  -0.37
   8  17     0.05   0.05  -0.01     0.31  -0.16  -0.10     0.07  -0.03  -0.00
   9   6     0.44   0.10  -0.11    -0.21   0.21  -0.04     0.06   0.04   0.29
  10   6     0.20  -0.40  -0.08    -0.09   0.29   0.18    -0.08   0.10  -0.25
  11  17     0.00   0.00  -0.00    -0.00  -0.00  -0.00    -0.00  -0.00   0.00
  12   1     0.00  -0.00   0.00    -0.01   0.02   0.03    -0.00   0.03   0.04
  13   1     0.00  -0.00   0.00    -0.00  -0.02   0.01    -0.00  -0.01   0.02
  14   1    -0.00  -0.01   0.00     0.00   0.00   0.01    -0.00  -0.03  -0.01
  15   1    -0.00  -0.01   0.01     0.02  -0.09   0.13    -0.02  -0.08   0.08
  16   1    -0.00   0.00   0.00    -0.10   0.06  -0.02    -0.12   0.08  -0.04
  17   1    -0.00  -0.06  -0.05     0.08  -0.06  -0.10    -0.02  -0.02  -0.09
  18   1    -0.04  -0.05   0.04     0.08  -0.07  -0.03    -0.05  -0.02   0.01
  19   1    -0.12  -0.06   0.02    -0.11   0.04   0.05    -0.07   0.01  -0.15
  20   1    -0.02   0.12   0.01    -0.06   0.00  -0.07     0.02  -0.02   0.05
  21   1     0.10   0.06  -0.03    -0.05   0.03  -0.07     0.02  -0.00   0.04
  22   1     0.01  -0.11  -0.01    -0.12   0.08   0.05    -0.08   0.03  -0.16
                     19                     20                     21
                        a                      a                      a 
 Frequencies --   793.7903               809.6093               854.0310
 Red. masses --     8.5139                 4.4680                 6.1921
 Frc consts  --     0.0000                 0.0000                 0.0000
 IR Inten    --     2.6857                27.3910                36.5874
 Raman Activ --     0.0000                 0.0000                 0.0000
 Depolar     --     0.0000                 0.0000                 0.0000
 Atom AN      X      Y      Z        X      Y      Z        X      Y      Z
   1   7     0.05  -0.00   0.03     0.02   0.02   0.05    -0.05   0.14   0.16
   2   6     0.24  -0.05  -0.00    -0.02  -0.06   0.07    -0.12  -0.14   0.04
   3   6     0.24   0.00  -0.17    -0.02  -0.07  -0.08     0.07  -0.29  -0.32
   4   6    -0.12   0.05   0.01    -0.07   0.03  -0.22     0.07  -0.03   0.18
   5   6     0.06   0.23   0.01     0.04   0.04   0.11    -0.01   0.13  -0.03
   6   6     0.05   0.34   0.02     0.04   0.05   0.18    -0.03   0.23  -0.01
   7   6     0.25  -0.11  -0.07    -0.02  -0.00  -0.23     0.13  -0.07   0.00
   8  17    -0.11   0.05   0.03    -0.01   0.01   0.03    -0.04   0.02   0.01
   9   6    -0.26  -0.25   0.04     0.02  -0.06   0.24    -0.15  -0.12  -0.04
  10   6    -0.17  -0.22   0.03     0.05  -0.04   0.26    -0.07  -0.02  -0.07
  11  17     0.00  -0.00  -0.00    -0.00   0.00   0.00    -0.00   0.00   0.00
  12   1    -0.08   0.08   0.07     0.02  -0.04  -0.06     0.11  -0.13  -0.13
  13   1    -0.09  -0.16  -0.10     0.03   0.07   0.02     0.15   0.30   0.19
  14   1    -0.04   0.09   0.08     0.02   0.03   0.01     0.10  -0.03  -0.07
  15   1     0.01  -0.28   0.19     0.03   0.09  -0.04     0.10   0.24   0.03
  16   1    -0.21   0.16  -0.01     0.10  -0.08   0.02     0.19  -0.19  -0.02
  17   1     0.03  -0.08  -0.17     0.04   0.02   0.07     0.07   0.07   0.13
  18   1     0.01  -0.07   0.06     0.07   0.02  -0.09     0.10   0.08  -0.30
  19   1     0.06   0.00  -0.01    -0.05   0.03  -0.23     0.01   0.03   0.03
  20   1    -0.09   0.09   0.02    -0.11   0.05  -0.32    -0.06   0.05   0.09
  21   1    -0.14   0.03   0.03    -0.14   0.04  -0.46    -0.02  -0.01   0.16
  22   1     0.01  -0.06  -0.01    -0.11   0.04  -0.46     0.05  -0.02   0.11
                     22                     23                     24
                        a                      a                      a 
 Frequencies --   879.4458               895.7138               908.1869
 Red. masses --     3.2685                 4.2597                 3.2935
 Frc consts  --     0.0000                 0.0000                 0.0000
 IR Inten    --     2.0217                10.1327                 0.6184
 Raman Activ --     0.0000                 0.0000                 0.0000
 Depolar     --     0.0000                 0.0000                 0.0000
 Atom AN      X      Y      Z        X      Y      Z        X      Y      Z
   1   7     0.05   0.08  -0.01     0.12   0.24   0.06    -0.02  -0.01  -0.03
   2   6     0.01  -0.04  -0.03     0.06  -0.14  -0.09    -0.02   0.03  -0.01
   3   6    -0.08  -0.10  -0.01    -0.23  -0.26  -0.09     0.03  -0.01   0.02
   4   6    -0.01   0.01  -0.04    -0.01  -0.00   0.03     0.01  -0.01  -0.01
   5   6     0.03  -0.00   0.13     0.00   0.05  -0.04    -0.01  -0.00  -0.01
   6   6     0.07  -0.03   0.31    -0.06  -0.01  -0.12    -0.01   0.02  -0.05
   7   6    -0.02   0.00  -0.03    -0.03  -0.00   0.02     0.01  -0.00   0.01
   8  17     0.00   0.00   0.01     0.01  -0.00  -0.00    -0.00   0.00   0.01
   9   6    -0.01   0.02  -0.14     0.10   0.03   0.04     0.07  -0.04   0.33
  10   6    -0.02   0.04  -0.17     0.07   0.04   0.04    -0.08   0.03  -0.28
  11  17    -0.00  -0.00   0.00     0.00  -0.01  -0.01    -0.00   0.00  -0.00
  12   1    -0.01   0.13   0.16    -0.02   0.29   0.35     0.01  -0.00   0.01
  13   1    -0.04  -0.10  -0.02    -0.10  -0.24  -0.05     0.01   0.01   0.02
  14   1    -0.04  -0.05   0.02    -0.10  -0.08   0.08     0.00  -0.04  -0.03
  15   1    -0.03  -0.06  -0.03    -0.05  -0.18  -0.05     0.00   0.02   0.00
  16   1     0.01   0.05   0.09     0.01   0.11   0.21     0.01   0.00   0.00
  17   1     0.01   0.05   0.12    -0.03   0.14   0.27     0.01  -0.01   0.00
  18   1     0.03   0.05  -0.11     0.06   0.14  -0.32     0.01  -0.01   0.01
  19   1    -0.07   0.03  -0.27     0.02   0.01   0.11     0.04  -0.02   0.15
  20   1    -0.17   0.06  -0.62     0.05  -0.03   0.26    -0.01   0.01  -0.02
  21   1     0.08  -0.03   0.23     0.01  -0.01  -0.12    -0.17   0.06  -0.63
  22   1     0.11  -0.02   0.35    -0.00   0.02  -0.12     0.15  -0.05   0.55
                     25                     26                     27
                        a                      a                      a 
 Frequencies --   917.6826               949.3163              1001.4741
 Red. masses --     6.8932                 3.3007                 9.9174
 Frc consts  --     0.0000                 0.0000                 0.0000
 IR Inten    --    42.8314                 2.3608                 9.9499
 Raman Activ --     0.0000                 0.0000                 0.0000
 Depolar     --     0.0000                 0.0000                 0.0000
 Atom AN      X      Y      Z        X      Y      Z        X      Y      Z
   1   7    -0.13  -0.11  -0.37     0.01  -0.02  -0.01     0.07   0.03   0.07
   2   6    -0.13   0.30  -0.01    -0.01   0.02   0.02    -0.08  -0.04  -0.05
   3   6     0.23  -0.16   0.27     0.00   0.01   0.01    -0.08   0.07   0.05
   4   6     0.08  -0.04  -0.02     0.01   0.00  -0.02     0.16  -0.07  -0.04
   5   6    -0.04   0.03  -0.00     0.08  -0.05   0.36    -0.30  -0.38   0.02
   6   6    -0.01   0.17   0.02    -0.05   0.04  -0.21     0.10   0.26   0.01
   7   6     0.08  -0.05  -0.03     0.01  -0.01  -0.03     0.29  -0.13  -0.09
   8  17    -0.02   0.01   0.01    -0.01   0.00   0.00    -0.07   0.03   0.02
   9   6    -0.12  -0.09   0.01    -0.01  -0.03   0.05    -0.17  -0.24   0.02
  10   6    -0.01   0.03   0.06    -0.03   0.03  -0.10     0.10   0.45   0.02
  11  17    -0.00  -0.00  -0.01    -0.00  -0.00   0.01     0.00   0.00  -0.00
  12   1     0.09   0.11   0.23    -0.01   0.01   0.01    -0.04   0.02  -0.01
  13   1     0.05  -0.08   0.12    -0.00  -0.00  -0.02    -0.04  -0.05  -0.07
  14   1    -0.04  -0.47  -0.24    -0.00  -0.01   0.00    -0.02   0.13   0.09
  15   1    -0.03   0.12  -0.03    -0.01   0.01  -0.02    -0.06  -0.00  -0.13
  16   1     0.04   0.08   0.08     0.01  -0.00   0.01     0.02  -0.02   0.00
  17   1     0.10  -0.03   0.13     0.02  -0.01   0.00    -0.02  -0.00  -0.01
  18   1     0.19  -0.07   0.08    -0.00  -0.00   0.01    -0.07   0.01   0.03
  19   1     0.00  -0.00   0.03    -0.18   0.06  -0.76    -0.03  -0.19   0.04
  20   1    -0.03   0.04   0.03     0.10  -0.03   0.38     0.17   0.08  -0.05
  21   1    -0.04  -0.01   0.03    -0.01  -0.01  -0.00     0.02  -0.16  -0.02
  22   1    -0.02   0.02  -0.10     0.04  -0.00   0.10     0.14   0.13  -0.04
                     28                     29                     30
                        a                      a                      a 
 Frequencies --  1036.9836              1056.2673              1077.9721
 Red. masses --     7.4602                 4.9580                 7.4585
 Frc consts  --     0.0000                 0.0000                 0.0000
 IR Inten    --    16.2843                13.2269                 9.4442
 Raman Activ --     0.0000                 0.0000                 0.0000
 Depolar     --     0.0000                 0.0000                 0.0000
 Atom AN      X      Y      Z        X      Y      Z        X      Y      Z
   1   7    -0.08   0.38   0.08    -0.22   0.00  -0.05    -0.01   0.13   0.21
   2   6    -0.03  -0.44  -0.28     0.41  -0.02   0.02    -0.09  -0.03  -0.52
   3   6     0.17   0.21   0.15    -0.20  -0.04   0.06     0.08  -0.23   0.37
   4   6     0.00   0.09  -0.07    -0.14   0.02  -0.07     0.00  -0.11  -0.05
   5   6    -0.02  -0.07   0.01    -0.06  -0.08   0.03     0.07   0.10   0.01
   6   6     0.01  -0.06  -0.00     0.04  -0.00  -0.01    -0.03   0.07   0.02
   7   6     0.01   0.03  -0.00     0.05  -0.04  -0.02    -0.02  -0.05  -0.00
   8  17     0.00  -0.00  -0.00    -0.01   0.01   0.00     0.00   0.00  -0.00
   9   6    -0.04  -0.01   0.01     0.07  -0.01  -0.01     0.03   0.03   0.00
  10   6    -0.04  -0.08   0.02     0.06   0.17   0.01     0.02   0.04   0.00
  11  17    -0.00  -0.00  -0.00    -0.00  -0.00   0.00     0.00   0.00   0.00
  12   1     0.11   0.14   0.20     0.11  -0.10  -0.04    -0.01  -0.06  -0.10
  13   1     0.08   0.13   0.21     0.12   0.20   0.22     0.01   0.12   0.02
  14   1    -0.00  -0.20  -0.09     0.07  -0.21  -0.18     0.04   0.16   0.06
  15   1     0.04  -0.05  -0.03     0.17  -0.18   0.42    -0.07  -0.12  -0.12
  16   1     0.03  -0.11  -0.03    -0.19   0.12  -0.09    -0.21   0.03  -0.27
  17   1     0.22  -0.19  -0.08    -0.27   0.16   0.00    -0.15   0.09   0.10
  18   1    -0.33   0.07   0.12    -0.05   0.07  -0.08     0.33  -0.13   0.11
  19   1     0.01  -0.05  -0.02    -0.00  -0.06  -0.04     0.00   0.05  -0.02
  20   1     0.06  -0.01  -0.02     0.05   0.00  -0.03    -0.14   0.01   0.03
  21   1    -0.05   0.05   0.00     0.08  -0.09  -0.04     0.04  -0.04  -0.02
  22   1    -0.05  -0.03  -0.02     0.08   0.06  -0.03    -0.06   0.01   0.01
                     31                     32                     33
                        a                      a                      a 
 Frequencies --  1113.1811              1132.7004              1191.1381
 Red. masses --     7.5187                 2.9909                 2.4125
 Frc consts  --     0.0000                 0.0000                 0.0000
 IR Inten    --    27.8077                 1.8837                 1.6503
 Raman Activ --     0.0000                 0.0000                 0.0000
 Depolar     --     0.0000                 0.0000                 0.0000
 Atom AN      X      Y      Z        X      Y      Z        X      Y      Z
   1   7     0.00   0.01   0.01     0.01   0.02  -0.04     0.03   0.07  -0.05
   2   6    -0.01   0.00  -0.04    -0.02  -0.06   0.09    -0.06  -0.17   0.09
   3   6     0.02  -0.03   0.01     0.01   0.11  -0.06     0.01   0.08  -0.08
   4   6    -0.05   0.03   0.02    -0.07  -0.14   0.01    -0.12  -0.03   0.06
   5   6     0.13   0.04  -0.03     0.15   0.03  -0.04     0.03  -0.07  -0.01
   6   6     0.07   0.23   0.00    -0.02   0.19   0.02    -0.06  -0.03   0.01
   7   6    -0.52   0.27   0.16    -0.10  -0.10   0.02    -0.06   0.03   0.02
   8  17     0.09  -0.05  -0.03     0.01   0.00  -0.00     0.01  -0.01  -0.00
   9   6    -0.16  -0.21   0.02     0.12   0.03  -0.03    -0.01   0.12   0.01
  10   6     0.07  -0.16  -0.03    -0.06   0.14   0.03     0.10   0.07  -0.02
  11  17    -0.00  -0.00   0.00     0.00   0.00  -0.00     0.00   0.00  -0.00
  12   1    -0.00  -0.01  -0.01     0.01   0.04   0.05     0.02   0.07   0.08
  13   1     0.00   0.01  -0.00    -0.00  -0.03   0.00     0.00  -0.04   0.02
  14   1     0.01   0.01  -0.00    -0.01  -0.02  -0.01    -0.03  -0.04  -0.00
  15   1    -0.00   0.00  -0.00     0.01   0.04   0.00     0.02   0.04  -0.00
  16   1    -0.01   0.00  -0.01     0.04  -0.05   0.02     0.04  -0.11  -0.03
  17   1     0.02  -0.01   0.01     0.02  -0.02  -0.06    -0.16   0.06  -0.14
  18   1     0.05  -0.02   0.00    -0.04   0.00   0.03     0.26  -0.15   0.12
  19   1     0.14  -0.14  -0.05     0.28  -0.33  -0.09     0.21  -0.33  -0.08
  20   1     0.40   0.11  -0.09    -0.37   0.02   0.10    -0.35  -0.04   0.09
  21   1     0.11  -0.32  -0.06     0.30  -0.41  -0.12    -0.15   0.25   0.06
  22   1     0.28  -0.02  -0.08    -0.42   0.01   0.11     0.53   0.06  -0.13
                     34                     35                     36
                        a                      a                      a 
 Frequencies --  1195.0421              1232.7907              1242.4541
 Red. masses --     3.5420                 4.0472                 6.9931
 Frc consts  --     0.0000                 0.0000                 0.0000
 IR Inten    --     3.5603                20.1404                 6.1325
 Raman Activ --     0.0000                 0.0000                 0.0000
 Depolar     --     0.0000                 0.0000                 0.0000
 Atom AN      X      Y      Z        X      Y      Z        X      Y      Z
   1   7    -0.06  -0.14   0.09    -0.23   0.00   0.08     0.09   0.03  -0.05
   2   6     0.09   0.28  -0.18     0.19  -0.05   0.03    -0.05  -0.01   0.10
   3   6     0.02  -0.15   0.12    -0.10   0.16  -0.07    -0.16   0.04   0.13
   4   6     0.04   0.08  -0.03     0.22  -0.16  -0.05     0.44  -0.23  -0.19
   5   6     0.04  -0.12  -0.03     0.09  -0.01  -0.02     0.17  -0.05  -0.05
   6   6    -0.08   0.00   0.03     0.01   0.11   0.01    -0.02   0.20   0.03
   7   6    -0.05   0.05   0.02    -0.07   0.05   0.02    -0.16   0.08   0.05
   8  17     0.01  -0.00  -0.00     0.01  -0.01  -0.00     0.03  -0.01  -0.01
   9   6    -0.02   0.01   0.01    -0.10  -0.03   0.02    -0.18  -0.10   0.04
  10   6     0.02  -0.02   0.00     0.05  -0.05  -0.02     0.15  -0.10  -0.05
  11  17    -0.00   0.00   0.00    -0.00  -0.00   0.00     0.00  -0.00  -0.00
  12   1    -0.02  -0.13  -0.14     0.08  -0.14  -0.07    -0.02   0.08   0.05
  13   1    -0.00   0.07  -0.03     0.04   0.14   0.12    -0.02  -0.07  -0.04
  14   1     0.06   0.11   0.01     0.07  -0.05  -0.10    -0.04  -0.03   0.03
  15   1    -0.03  -0.08  -0.01    -0.21  -0.30  -0.43     0.07   0.12   0.14
  16   1    -0.05   0.19   0.07     0.14   0.19   0.43    -0.10  -0.11  -0.24
  17   1     0.33  -0.16   0.21    -0.12   0.06  -0.10    -0.25   0.14  -0.02
  18   1    -0.34   0.22  -0.21     0.06  -0.05   0.08    -0.29   0.13  -0.05
  19   1     0.21  -0.33  -0.08    -0.06   0.12   0.02    -0.04   0.13   0.02
  20   1    -0.25  -0.02   0.05    -0.14   0.02   0.04    -0.22   0.04   0.06
  21   1    -0.11   0.16   0.04    -0.05   0.01   0.02    -0.16   0.14   0.05
  22   1     0.14   0.00  -0.04    -0.01  -0.02   0.01    -0.08  -0.05   0.01
                     37                     38                     39
                        a                      a                      a 
 Frequencies --  1267.1737              1324.2460              1328.5365
 Red. masses --     3.2827                 5.0080                 9.8070
 Frc consts  --     0.0000                 0.0000                 0.0000
 IR Inten    --     7.8944                15.8242                 5.3211
 Raman Activ --     0.0000                 0.0000                 0.0000
 Depolar     --     0.0000                 0.0000                 0.0000
 Atom AN      X      Y      Z        X      Y      Z        X      Y      Z
   1   7    -0.03   0.00  -0.01    -0.03   0.18   0.00    -0.00  -0.05  -0.02
   2   6     0.03  -0.02   0.04     0.16   0.06   0.34     0.00  -0.05  -0.10
   3   6    -0.07  -0.00  -0.02     0.08  -0.13  -0.02    -0.24   0.09  -0.04
   4   6     0.11   0.10  -0.01     0.01   0.19   0.01     0.25   0.30  -0.00
   5   6    -0.04   0.15   0.02     0.04  -0.09  -0.02     0.19  -0.28  -0.08
   6   6    -0.11   0.03   0.03    -0.15  -0.06   0.03    -0.33  -0.00   0.08
   7   6    -0.14  -0.27   0.01     0.10   0.14  -0.01     0.12   0.33  -0.00
   8  17     0.01   0.01  -0.00    -0.00   0.00   0.00     0.01   0.00  -0.00
   9   6     0.05  -0.07  -0.02     0.09  -0.10  -0.03     0.15  -0.32  -0.07
  10   6     0.17   0.05  -0.04    -0.17  -0.02   0.04    -0.26  -0.03   0.06
  11  17    -0.00   0.00   0.00    -0.00   0.00  -0.00    -0.00  -0.00  -0.00
  12   1     0.02  -0.00   0.01     0.06  -0.05  -0.10     0.00   0.03   0.07
  13   1     0.01   0.02   0.02    -0.04  -0.12   0.04     0.03   0.05   0.01
  14   1     0.01   0.01  -0.01    -0.04  -0.19  -0.05     0.02   0.08   0.01
  15   1    -0.03  -0.03  -0.06    -0.20  -0.13  -0.47     0.09   0.03   0.20
  16   1    -0.01  -0.00  -0.01    -0.22  -0.14  -0.45     0.03   0.03   0.07
  17   1    -0.08   0.05  -0.01    -0.05   0.02  -0.01     0.08  -0.01   0.09
  18   1     0.13  -0.05   0.02    -0.04   0.06  -0.10     0.27  -0.14   0.11
  19   1     0.25  -0.35  -0.09     0.03  -0.05  -0.01     0.01  -0.01   0.00
  20   1     0.40   0.05  -0.10     0.02  -0.01  -0.01    -0.04   0.00   0.02
  21   1    -0.25   0.39   0.10     0.04  -0.04  -0.01    -0.02   0.01   0.01
  22   1    -0.40  -0.02   0.11     0.02   0.00   0.00    -0.09  -0.01   0.03
                     40                     41                     42
                        a                      a                      a 
 Frequencies --  1343.3455              1375.9181              1403.1106
 Red. masses --     5.2631                 2.3851                 2.4846
 Frc consts  --     0.0000                 0.0000                 0.0000
 IR Inten    --     6.8507               119.9441                92.3886
 Raman Activ --     0.0000                 0.0000                 0.0000
 Depolar     --     0.0000                 0.0000                 0.0000
 Atom AN      X      Y      Z        X      Y      Z        X      Y      Z
   1   7    -0.02   0.04  -0.03    -0.17  -0.20  -0.13    -0.08   0.20   0.03
   2   6     0.18   0.00   0.09     0.02   0.01   0.10    -0.08   0.01  -0.07
   3   6    -0.41   0.16  -0.12     0.06  -0.05  -0.01    -0.01  -0.01   0.01
   4   6     0.05  -0.15   0.04    -0.00   0.02  -0.00     0.05   0.10  -0.01
   5   6    -0.07   0.04   0.02    -0.03   0.03   0.01    -0.10   0.01   0.03
   6   6     0.17   0.04  -0.05     0.01  -0.03  -0.01     0.07  -0.06  -0.02
   7   6    -0.07  -0.07   0.01     0.03   0.02  -0.01     0.04   0.09  -0.00
   8  17     0.00  -0.00  -0.00    -0.00  -0.00   0.00    -0.00  -0.00  -0.00
   9   6    -0.13   0.09   0.04    -0.02   0.02   0.01    -0.10   0.01   0.03
  10   6     0.17  -0.02  -0.05    -0.00  -0.03  -0.00     0.09  -0.07  -0.03
  11  17    -0.00   0.00  -0.00    -0.01  -0.01  -0.00    -0.01  -0.00   0.01
  12   1     0.04   0.01   0.02     0.33   0.12   0.55     0.54  -0.34  -0.13
  13   1     0.02   0.01   0.04     0.06   0.16   0.02    -0.18  -0.58   0.07
  14   1    -0.00  -0.02  -0.02     0.31   0.53  -0.10     0.12   0.09  -0.08
  15   1     0.01  -0.06  -0.01    -0.04   0.03  -0.13     0.04   0.03   0.14
  16   1    -0.16  -0.06  -0.29    -0.09  -0.02  -0.12     0.06  -0.00   0.06
  17   1     0.51  -0.24   0.26    -0.04   0.05   0.02    -0.02   0.02   0.01
  18   1     0.23  -0.15   0.12    -0.07   0.02  -0.01     0.03  -0.02   0.02
  19   1    -0.05   0.06   0.03    -0.00  -0.00   0.00     0.00  -0.06  -0.03
  20   1    -0.08  -0.00   0.02     0.00  -0.01   0.00    -0.05  -0.03   0.00
  21   1    -0.02  -0.00   0.01     0.02  -0.04  -0.02    -0.00  -0.04  -0.00
  22   1    -0.02  -0.01   0.01     0.02  -0.01  -0.01    -0.07  -0.03   0.02
                     43                     44                     45
                        a                      a                      a 
 Frequencies --  1413.7722              1440.5048              1467.2703
 Red. masses --     8.9247                 1.9951                 9.3574
 Frc consts  --     0.0000                 0.0000                 0.0000
 IR Inten    --     8.0228                85.7904                46.5651
 Raman Activ --     0.0000                 0.0000                 0.0000
 Depolar     --     0.0000                 0.0000                 0.0000
 Atom AN      X      Y      Z        X      Y      Z        X      Y      Z
   1   7     0.04  -0.06  -0.02    -0.02   0.05   0.26    -0.01  -0.00  -0.00
   2   6     0.01  -0.01   0.01    -0.03  -0.01   0.01    -0.01   0.03   0.01
   3   6    -0.01  -0.08   0.01    -0.03   0.02  -0.00     0.13  -0.07  -0.03
   4   6     0.14   0.32  -0.01     0.02   0.02  -0.00    -0.36   0.20   0.11
   5   6    -0.33   0.07   0.09    -0.04   0.02   0.01    -0.00  -0.27  -0.02
   6   6     0.22  -0.24  -0.08     0.02  -0.03  -0.01     0.37   0.11  -0.08
   7   6     0.15   0.31  -0.01     0.02   0.03  -0.00    -0.28   0.12   0.08
   8  17    -0.01  -0.01   0.00    -0.00  -0.00   0.00     0.01  -0.01  -0.00
   9   6    -0.32   0.02   0.08    -0.03   0.00   0.01     0.15  -0.35  -0.07
  10   6     0.25  -0.22  -0.09     0.03  -0.02  -0.01     0.20   0.17  -0.04
  11  17     0.00   0.00  -0.00     0.00   0.00   0.00    -0.00  -0.00  -0.00
  12   1    -0.18   0.09  -0.00    -0.07   0.04   0.03     0.00   0.01   0.02
  13   1     0.07   0.16   0.03    -0.26   0.11  -0.61     0.00   0.01  -0.01
  14   1    -0.10  -0.03   0.08     0.45  -0.24  -0.43     0.01   0.01  -0.01
  15   1    -0.01  -0.00  -0.03     0.00  -0.04   0.07    -0.03  -0.06  -0.01
  16   1    -0.00   0.01   0.02     0.05  -0.07  -0.03     0.05  -0.04  -0.02
  17   1    -0.13   0.06  -0.03    -0.01  -0.00  -0.01     0.01  -0.00  -0.01
  18   1     0.09  -0.01  -0.03     0.03  -0.01   0.01     0.01  -0.01  -0.01
  19   1     0.05  -0.21  -0.03     0.01  -0.03  -0.00    -0.16   0.15   0.05
  20   1    -0.15  -0.09   0.03    -0.01  -0.01   0.00    -0.23   0.00   0.06
  21   1     0.03  -0.18  -0.02     0.00  -0.02  -0.00    -0.15   0.20   0.06
  22   1    -0.19  -0.09   0.04    -0.02  -0.01   0.00    -0.23   0.03   0.06
                     46                     47                     48
                        a                      a                      a 
 Frequencies --  1479.8624              1488.2175              1576.7507
 Red. masses --     1.9334                 2.0160                11.6604
 Frc consts  --     0.0000                 0.0000                 0.0000
 IR Inten    --    14.1964                10.3919                 0.9195
 Raman Activ --     0.0000                 0.0000                 0.0000
 Depolar     --     0.0000                 0.0000                 0.0000
 Atom AN      X      Y      Z        X      Y      Z        X      Y      Z
   1   7     0.00   0.01   0.00     0.01   0.00   0.04     0.00  -0.00   0.00
   2   6    -0.03   0.12  -0.03     0.08  -0.23   0.02    -0.00  -0.00  -0.00
   3   6     0.11  -0.05  -0.23     0.06  -0.03  -0.13    -0.02  -0.04   0.00
   4   6    -0.01   0.01  -0.01    -0.04   0.03   0.01     0.24   0.47  -0.02
   5   6    -0.01   0.02   0.00    -0.01  -0.01   0.00    -0.01  -0.31  -0.03
   6   6    -0.02  -0.02   0.00     0.04  -0.00  -0.01     0.25   0.20  -0.05
   7   6     0.01   0.00  -0.00    -0.02   0.01   0.01    -0.21  -0.46   0.01
   8  17    -0.00   0.00   0.00     0.00  -0.00  -0.00     0.00   0.01  -0.00
   9   6    -0.01   0.02   0.00     0.02  -0.03  -0.01    -0.00   0.34   0.03
  10   6    -0.01  -0.01   0.00     0.00   0.01  -0.00    -0.25  -0.21   0.05
  11  17     0.00   0.00   0.00     0.00   0.00   0.00    -0.00  -0.00  -0.00
  12   1    -0.02   0.01  -0.02    -0.02  -0.03  -0.06    -0.00   0.00   0.00
  13   1     0.01   0.02   0.02    -0.04  -0.03  -0.06    -0.00   0.00  -0.01
  14   1    -0.03  -0.01   0.02     0.03  -0.06  -0.04     0.00  -0.00  -0.00
  15   1    -0.09  -0.28   0.09     0.17   0.52  -0.22     0.00   0.00   0.00
  16   1     0.23  -0.19  -0.07    -0.44   0.38   0.15     0.00  -0.00   0.00
  17   1    -0.01   0.40   0.46     0.00   0.20   0.23    -0.06   0.04   0.00
  18   1    -0.33  -0.27   0.41    -0.15  -0.15   0.21     0.06  -0.02   0.00
  19   1     0.03  -0.04  -0.01    -0.00  -0.01  -0.00    -0.07   0.01   0.02
  20   1     0.01  -0.00  -0.00    -0.02  -0.00   0.00    -0.05   0.04   0.02
  21   1     0.01  -0.01  -0.00    -0.01   0.02   0.00     0.07  -0.02  -0.02
  22   1     0.02  -0.00  -0.01    -0.00   0.00   0.00     0.07  -0.04  -0.02
                     49                     50                     51
                        a                      a                      a 
 Frequencies --  1599.7126              2929.1624              2942.1249
 Red. masses --    11.5362                 1.9635                 1.9637
 Frc consts  --     0.0000                 0.0000                 0.0000
 IR Inten    --    17.0051              1134.2820                94.9828
 Raman Activ --     0.0000                 0.0000                 0.0000
 Depolar     --     0.0000                 0.0000                 0.0000
 Atom AN      X      Y      Z        X      Y      Z        X      Y      Z
   1   7    -0.00  -0.00   0.00    -0.10  -0.18   0.13     0.04   0.07  -0.05
   2   6     0.01  -0.00   0.01     0.10   0.05  -0.07     0.18   0.05  -0.10
   3   6     0.05  -0.02  -0.02     0.00   0.01   0.01    -0.07  -0.16  -0.03
   4   6    -0.28   0.14   0.08    -0.00   0.00   0.00    -0.00  -0.01  -0.00
   5   6     0.33  -0.33  -0.12     0.01   0.01  -0.00    -0.00  -0.00  -0.00
   6   6    -0.39   0.09   0.11    -0.00  -0.00   0.00    -0.00  -0.00  -0.00
   7   6     0.14  -0.07  -0.04    -0.00   0.00  -0.00     0.00   0.00   0.00
   8  17     0.00  -0.00  -0.00     0.00  -0.00  -0.00    -0.00   0.00   0.00
   9   6    -0.31   0.26   0.10     0.00  -0.00  -0.00    -0.00  -0.00  -0.00
  10   6     0.46  -0.06  -0.13    -0.00  -0.00  -0.00    -0.00   0.00   0.00
  11  17     0.00  -0.00  -0.00     0.00   0.01  -0.01    -0.00  -0.00   0.00
  12   1    -0.00   0.00   0.00     0.36   0.66  -0.41    -0.12  -0.23   0.15
  13   1    -0.00   0.00  -0.01     0.05  -0.03  -0.02    -0.00   0.01   0.00
  14   1     0.00  -0.00  -0.00    -0.02  -0.00  -0.01     0.01   0.00   0.01
  15   1     0.00   0.01  -0.01    -0.16   0.08   0.04    -0.43   0.19   0.13
  16   1    -0.01   0.00  -0.00    -0.19  -0.28   0.18    -0.23  -0.37   0.23
  17   1     0.01   0.00   0.00     0.01   0.01  -0.01     0.20   0.23  -0.20
  18   1     0.01  -0.01   0.00    -0.01  -0.04  -0.03     0.07   0.35   0.29
  19   1    -0.04   0.11   0.02    -0.03  -0.02   0.01     0.01   0.00  -0.00
  20   1     0.07   0.04  -0.01     0.00   0.00   0.00    -0.00   0.00  -0.00
  21   1     0.01  -0.08  -0.01    -0.00  -0.00  -0.00     0.00   0.00   0.00
  22   1    -0.11  -0.03   0.03    -0.00   0.00   0.00     0.00  -0.00  -0.00
                     52                     53                     54
                        a                      a                      a 
 Frequencies --  2947.5243              2970.0270              2977.2952
 Red. masses --     1.8980                 1.5270                 1.6138
 Frc consts  --     0.0000                 0.0000                 0.0000
 IR Inten    --    64.9447                23.8521                 7.5796
 Raman Activ --     0.0000                 0.0000                 0.0000
 Depolar     --     0.0000                 0.0000                 0.0000
 Atom AN      X      Y      Z        X      Y      Z        X      Y      Z
   1   7     0.03   0.05  -0.04     0.03   0.04  -0.03     0.01   0.02  -0.01
   2   6     0.15  -0.00  -0.06    -0.06   0.18  -0.03     0.02   0.07  -0.04
   3   6     0.07   0.19   0.08    -0.02   0.03   0.07     0.10   0.08  -0.17
   4   6     0.00   0.01   0.00    -0.00   0.00   0.00     0.01   0.00  -0.00
   5   6    -0.00  -0.00   0.00    -0.00  -0.00   0.00    -0.01  -0.00   0.00
   6   6     0.00  -0.00  -0.00     0.00  -0.00  -0.00     0.00   0.00  -0.00
   7   6     0.00  -0.00  -0.00     0.00  -0.00  -0.00    -0.00  -0.00   0.00
   8  17    -0.00  -0.00   0.00     0.00  -0.00  -0.00    -0.00   0.00   0.00
   9   6    -0.00   0.00   0.00     0.00   0.00  -0.00    -0.00  -0.00   0.00
  10   6     0.00  -0.00  -0.00     0.00  -0.00  -0.00    -0.00  -0.00   0.00
  11  17    -0.00  -0.00   0.00    -0.00  -0.00   0.00    -0.00  -0.00   0.00
  12   1    -0.10  -0.18   0.11    -0.07  -0.12   0.08    -0.04  -0.07   0.04
  13   1    -0.01   0.00   0.00    -0.03   0.01   0.02    -0.01   0.01   0.00
  14   1     0.01  -0.00   0.01     0.01   0.00   0.00     0.00   0.00  -0.00
  15   1    -0.45   0.19   0.15     0.56  -0.21  -0.19     0.08  -0.02  -0.03
  16   1    -0.08  -0.15   0.09    -0.34  -0.45   0.29    -0.16  -0.23   0.15
  17   1    -0.13  -0.14   0.14     0.11   0.15  -0.10    -0.45  -0.56   0.42
  18   1    -0.12  -0.55  -0.43    -0.05  -0.23  -0.17     0.07   0.29   0.19
  19   1     0.01   0.01  -0.00     0.01   0.00  -0.00     0.02   0.01  -0.00
  20   1    -0.00  -0.00   0.00     0.00  -0.00   0.00    -0.00  -0.00  -0.00
  21   1     0.00  -0.00  -0.00    -0.00  -0.00   0.00     0.00   0.00  -0.00
  22   1    -0.00   0.01   0.00    -0.00   0.00   0.00    -0.00   0.00   0.00
                     55                     56                     57
                        a                      a                      a 
 Frequencies --  3091.9186              3103.9169              3115.9184
 Red. masses --     1.8698                 1.7854                 1.8810
 Frc consts  --     0.0000                 0.0000                 0.0000
 IR Inten    --   186.6543                21.7359                15.7533
 Raman Activ --     0.0000                 0.0000                 0.0000
 Depolar     --     0.0000                 0.0000                 0.0000
 Atom AN      X      Y      Z        X      Y      Z        X      Y      Z
   1   7    -0.01  -0.01   0.01     0.00  -0.00  -0.00    -0.00   0.00  -0.00
   2   6     0.00  -0.00   0.00    -0.00  -0.00   0.00     0.00   0.00  -0.00
   3   6    -0.00  -0.00   0.00    -0.00  -0.00  -0.00     0.00   0.00  -0.00
   4   6    -0.01   0.00   0.00     0.01  -0.01  -0.00    -0.01   0.00   0.00
   5   6    -0.22  -0.16   0.04    -0.01  -0.00   0.00     0.01   0.01  -0.00
   6   6     0.00   0.03   0.00    -0.00   0.01   0.00    -0.00   0.02   0.00
   7   6    -0.00   0.00   0.00     0.01   0.00  -0.00     0.01  -0.00  -0.00
   8  17     0.00  -0.00  -0.00    -0.00  -0.00   0.00    -0.00   0.00   0.00
   9   6     0.00   0.00  -0.00     0.11   0.08  -0.02     0.19   0.13  -0.04
  10   6     0.00   0.01   0.00     0.01  -0.22  -0.02    -0.01   0.15   0.02
  11  17     0.00  -0.00   0.00    -0.00  -0.00   0.00     0.00   0.00   0.00
  12   1     0.02   0.03  -0.02     0.00  -0.00  -0.00    -0.00  -0.00   0.00
  13   1     0.01  -0.01  -0.00    -0.01   0.00   0.00     0.00  -0.00  -0.00
  14   1     0.00   0.00   0.00    -0.00   0.00  -0.00     0.00  -0.00   0.00
  15   1    -0.00   0.00   0.00     0.00  -0.00  -0.00    -0.00   0.00   0.00
  16   1     0.00   0.00  -0.00     0.00   0.00  -0.00    -0.00  -0.00   0.00
  17   1     0.01   0.01  -0.01     0.00   0.00  -0.00    -0.00  -0.00   0.00
  18   1     0.00   0.00   0.00    -0.00   0.01   0.01     0.00  -0.00  -0.00
  19   1     0.76   0.54  -0.14     0.02   0.01  -0.00    -0.04  -0.03   0.01
  20   1     0.01  -0.14  -0.02     0.00  -0.03  -0.00     0.01  -0.08  -0.01
  21   1    -0.01  -0.01   0.00    -0.42  -0.29   0.08    -0.66  -0.45   0.13
  22   1     0.00  -0.04  -0.00    -0.05   0.81   0.08     0.03  -0.51  -0.05
                     58                     59                     60
                        a                      a                      a 
 Frequencies --  3118.2355              3160.5098              3188.3339
 Red. masses --     1.8572                 1.8500                 1.6613
 Frc consts  --     0.0000                 0.0000                 0.0000
 IR Inten    --    11.1650                55.6997                27.1811
 Raman Activ --     0.0000                 0.0000                 0.0000
 Depolar     --     0.0000                 0.0000                 0.0000
 Atom AN      X      Y      Z        X      Y      Z        X      Y      Z
   1   7    -0.00  -0.00   0.00    -0.23   0.09   0.05    -0.11   0.04  -0.19
   2   6    -0.00  -0.00   0.00    -0.01   0.01   0.00    -0.00  -0.00  -0.00
   3   6     0.00  -0.00  -0.00     0.00   0.00  -0.00     0.00  -0.00  -0.00
   4   6    -0.00   0.00   0.00     0.00  -0.00   0.00     0.00   0.00   0.00
   5   6    -0.04  -0.03   0.01     0.00   0.00   0.00     0.00  -0.00  -0.00
   6   6     0.02  -0.27  -0.03    -0.00  -0.00   0.00     0.00   0.00  -0.00
   7   6     0.01  -0.00  -0.00    -0.00   0.00  -0.00    -0.00   0.00   0.00
   8  17    -0.00   0.00   0.00    -0.00   0.00  -0.00     0.00  -0.00  -0.00
   9   6     0.02   0.02  -0.00    -0.00  -0.00   0.00    -0.00  -0.00   0.00
  10   6    -0.00   0.01   0.00    -0.00  -0.00  -0.00     0.00  -0.00  -0.00
  11  17     0.00   0.00   0.00     0.00  -0.00   0.00    -0.00  -0.00   0.00
  12   1     0.00   0.00  -0.00    -0.05  -0.05   0.04     0.01   0.04  -0.04
  13   1    -0.00  -0.00  -0.00     0.83  -0.27  -0.38    -0.18   0.06   0.05
  14   1     0.00  -0.00   0.00     0.09  -0.04   0.14     0.59  -0.25   0.70
  15   1     0.00   0.00  -0.00     0.03  -0.01  -0.01    -0.00   0.00   0.00
  16   1     0.00   0.00  -0.00    -0.00  -0.01   0.00     0.00   0.00  -0.00
  17   1     0.00   0.00  -0.00    -0.00  -0.00   0.00    -0.00  -0.00   0.00
  18   1     0.00   0.00   0.00    -0.00  -0.00  -0.00     0.00   0.00   0.00
  19   1     0.11   0.08  -0.02    -0.01  -0.01   0.00    -0.00   0.00  -0.00
  20   1    -0.06   0.94   0.11    -0.00   0.00  -0.00     0.00  -0.00  -0.00
  21   1    -0.07  -0.05   0.01     0.00   0.00  -0.00     0.00   0.00  -0.00
  22   1     0.00  -0.03  -0.00    -0.00   0.01   0.00    -0.00   0.00   0.00
