 Entering Gaussian System
 *********************************************
 Gaussian 98:
 frequency output generated by the xtb code
 *********************************************
                         Standard orientation:
 --------------------------------------------------------------------
  Center     Atomic     Atomic              Coordinates (Angstroms)
  Number     Number      Type              X           Y           Z
 --------------------------------------------------------------------
    1          7             0        4.304033    0.116509    0.614775
    2          6             0        3.654176   -0.356940   -0.640542
    3          6             0        2.251348    0.209427   -0.841458
    4          6             0        1.238169   -0.278036    0.195106
    5          6             0       -0.181549    0.235081   -0.059840
    6          6             0       -1.192238   -0.246702    0.983195
    7          6             0       -2.612706    0.289385    0.772949
    8          6             0       -3.305023   -0.252074   -0.480098
    9          6             0       -4.736561    0.241754   -0.629254
   10          1             0        5.268152   -0.240046    0.702022
   11          1             0        3.787774   -0.192547    1.451137
   12          1             0        4.352909    1.145668    0.641363
   13          1             0        3.615381   -1.452770   -0.637650
   14          1             0        4.293885   -0.087275   -1.490895
   15          1             0        1.887153   -0.045313   -1.844367
   16          1             0        2.295814    1.304227   -0.820930
   17          1             0        1.559064    0.023884    1.198065
   18          1             0        1.232454   -1.373906    0.213768
   19          1             0       -0.503184   -0.072449   -1.060798
   20          1             0       -0.175493    1.330801   -0.084802
   21          1             0       -0.833043    0.038388    1.979833
   22          1             0       -1.213884   -1.342462    0.990997
   23          1             0       -2.587990    1.384325    0.731857
   24          1             0       -3.231284    0.050930    1.647251
   25          1             0       -3.289909   -1.348874   -0.455166
   26          1             0       -2.724545    0.021152   -1.369251
   27          1             0       -4.775596    1.330644   -0.692456
   28          1             0       -5.348650   -0.053872    0.224629
   29          1             0       -5.215417   -0.155495   -1.527012
 --------------------------------------------------------------------
     1 basis functions        1 primitive gaussians
     1 alpha electrons        1 beta electrons

 Harmonic frequencies (cm**-1), IR intensities (km*mol⁻¹),
 Raman scattering activities (A**4/amu), Raman depolarization ratios,
 reduced masses (AMU), force constants (mDyne/A) and normal coordinates:
                      1                      2                      3
                        a                      a                      a 
 Frequencies --    60.8624                75.9000                94.1622
 Red. masses --     9.7594                 9.3208                 6.0248
 Frc consts  --     0.0000                 0.0000                 0.0000
 IR Inten    --    11.5350                 7.5822                 0.0852
 Raman Activ --     0.0000                 0.0000                 0.0000
 Depolar     --     0.0000                 0.0000                 0.0000
 Atom AN      X      Y      Z        X      Y      Z        X      Y      Z
   1   7     0.04  -0.50  -0.02     0.15   0.11  -0.35    -0.03  -0.02  -0.01
   2   6    -0.08  -0.05  -0.12    -0.14  -0.10  -0.10    -0.01   0.16  -0.09
   3   6     0.01   0.23   0.05    -0.15  -0.07   0.07    -0.04   0.10   0.03
   4   6    -0.00   0.26   0.05    -0.01   0.11   0.30    -0.03  -0.18  -0.09
   5   6     0.02   0.34   0.10    -0.03   0.06   0.32     0.00  -0.01   0.08
   6   6     0.01   0.25   0.05    -0.08  -0.11   0.20     0.00   0.02   0.09
   7   6    -0.04   0.07  -0.04    -0.08  -0.16   0.09     0.01   0.02   0.01
   8   6     0.05  -0.15   0.00     0.14   0.04  -0.12    -0.09  -0.36   0.24
   9   6    -0.01  -0.36  -0.07     0.18   0.10  -0.33     0.17   0.25  -0.24
  10   1    -0.01  -0.19  -0.03     0.04   0.02  -0.13    -0.00   0.01  -0.02
  11   1    -0.00  -0.16  -0.02     0.08   0.08  -0.05    -0.00  -0.06  -0.02
  12   1     0.07  -0.14   0.06     0.05   0.03  -0.15    -0.02  -0.01   0.05
  13   1    -0.08  -0.01  -0.11    -0.05  -0.03   0.03     0.02   0.04  -0.08
  14   1    -0.01   0.01  -0.02    -0.09  -0.08  -0.08    -0.01   0.10  -0.01
  15   1    -0.03   0.12   0.01    -0.09  -0.05   0.05    -0.00   0.09  -0.01
  16   1     0.06   0.06   0.05    -0.03  -0.02  -0.03    -0.03   0.03   0.08
  17   1     0.01   0.06   0.02     0.03   0.09   0.06     0.00  -0.15  -0.00
  18   1    -0.02   0.07  -0.00    -0.00   0.03   0.14    -0.02  -0.05  -0.12
  19   1     0.00   0.13   0.02     0.01   0.04   0.08    -0.03   0.04   0.02
  20   1     0.01   0.10   0.06    -0.03   0.02   0.12     0.04  -0.00   0.05
  21   1    -0.02   0.09   0.02    -0.06  -0.06   0.08    -0.00   0.02   0.02
  22   1     0.04   0.07   0.02    -0.01  -0.03   0.02    -0.00   0.01   0.04
  23   1    -0.05   0.02  -0.04    -0.04  -0.04   0.09     0.02   0.00  -0.11
  24   1    -0.01   0.03  -0.01    -0.06  -0.10  -0.01     0.01   0.11   0.04
  25   1     0.06  -0.04   0.03     0.03   0.01  -0.08    -0.18  -0.10   0.25
  26   1     0.01  -0.05  -0.01     0.09   0.04   0.01     0.04  -0.33   0.04
  27   1    -0.04  -0.11  -0.04     0.07   0.03  -0.07     0.21   0.07  -0.26
  28   1     0.00  -0.11  -0.02     0.01   0.01  -0.13    -0.02   0.31  -0.04
  29   1     0.02  -0.13  -0.02     0.09   0.06  -0.13     0.02  -0.02  -0.01
                      4                      5                      6
                        a                      a                      a 
 Frequencies --   112.4840               114.0538               126.0706
 Red. masses --     7.7787                 7.3605                 8.5381
 Frc consts  --     0.0000                 0.0000                 0.0000
 IR Inten    --     2.8863                 8.3497                11.5943
 Raman Activ --     0.0000                 0.0000                 0.0000
 Depolar     --     0.0000                 0.0000                 0.0000
 Atom AN      X      Y      Z        X      Y      Z        X      Y      Z
   1   7    -0.17   0.12   0.00    -0.34  -0.16   0.10    -0.39   0.04   0.16
   2   6    -0.02   0.05  -0.04    -0.06   0.17  -0.15    -0.04  -0.16   0.06
   3   6    -0.09  -0.13  -0.04    -0.11   0.02  -0.13     0.02  -0.13  -0.29
   4   6    -0.10  -0.44  -0.20     0.05   0.12   0.07     0.01   0.21  -0.14
   5   6     0.04   0.12   0.20    -0.07  -0.31  -0.11     0.04   0.35   0.03
   6   6     0.01   0.17   0.18     0.07   0.06   0.19     0.13  -0.07  -0.07
   7   6     0.03   0.16   0.05     0.07   0.02   0.12     0.06  -0.22   0.13
   8   6     0.22   0.16  -0.06     0.22   0.09   0.01     0.06  -0.11   0.08
   9   6     0.10  -0.22  -0.07     0.21   0.01  -0.10     0.14   0.09   0.01
  10   1    -0.03   0.08   0.01    -0.06   0.05   0.00    -0.14  -0.04   0.17
  11   1    -0.04  -0.00  -0.01    -0.08  -0.20  -0.02    -0.22   0.11   0.01
  12   1    -0.09   0.03   0.01    -0.20  -0.04   0.16    -0.04   0.01  -0.03
  13   1     0.04   0.01  -0.02     0.03   0.05  -0.15    -0.03  -0.04   0.07
  14   1    -0.01   0.05  -0.00     0.00   0.15   0.00     0.05  -0.09   0.05
  15   1    -0.00   0.01  -0.03    -0.05  -0.05  -0.02     0.02  -0.13  -0.07
  16   1    -0.07  -0.04   0.05    -0.06   0.01  -0.09     0.02  -0.04  -0.18
  17   1     0.03  -0.31  -0.02    -0.01   0.17  -0.01     0.05   0.08  -0.06
  18   1    -0.11  -0.13  -0.23     0.09   0.04   0.14    -0.04   0.06  -0.00
  19   1    -0.06   0.15   0.04    -0.02  -0.26   0.02     0.00   0.20  -0.02
  20   1     0.12   0.04   0.15    -0.08  -0.09  -0.20     0.01   0.10   0.12
  21   1    -0.01   0.05   0.06     0.05   0.12   0.01     0.04  -0.09   0.00
  22   1    -0.00   0.05   0.06     0.02   0.02   0.17     0.08  -0.02  -0.11
  23   1     0.00   0.05   0.03     0.01   0.01   0.05    -0.03  -0.06   0.09
  24   1    -0.02   0.03  -0.01     0.00  -0.02   0.01     0.04  -0.13   0.04
  25   1     0.15   0.05  -0.06     0.08   0.02  -0.03    -0.02  -0.03   0.01
  26   1     0.05   0.13  -0.00     0.08   0.06   0.02     0.04  -0.04   0.03
  27   1    -0.06  -0.06   0.03     0.04   0.00  -0.00     0.09   0.03  -0.00
  28   1     0.03  -0.16  -0.05     0.04  -0.03  -0.05     0.02   0.05  -0.01
  29   1     0.08  -0.05  -0.05     0.09   0.02  -0.05     0.04   0.04  -0.00
                      7                      8                      9
                        a                      a                      a 
 Frequencies --   158.9299               198.9695               251.1600
 Red. masses --     2.8991                 6.9925                 4.9144
 Frc consts  --     0.0000                 0.0000                 0.0000
 IR Inten    --     0.2908                 6.2678                 0.2562
 Raman Activ --     0.0000                 0.0000                 0.0000
 Depolar     --     0.0000                 0.0000                 0.0000
 Atom AN      X      Y      Z        X      Y      Z        X      Y      Z
   1   7    -0.01   0.00   0.02     0.21   0.02   0.02     0.10  -0.03   0.04
   2   6     0.09  -0.00  -0.04    -0.04  -0.17   0.19     0.22   0.14  -0.09
   3   6     0.01  -0.20  -0.05     0.07   0.09   0.03     0.07  -0.17  -0.08
   4   6     0.06   0.05   0.11    -0.20   0.03  -0.26     0.08  -0.06   0.02
   5   6     0.10   0.18   0.12    -0.19   0.06  -0.27     0.06   0.04   0.06
   6   6    -0.02  -0.03  -0.09     0.05   0.18   0.03    -0.02   0.22   0.10
   7   6    -0.01   0.01  -0.10    -0.11  -0.20   0.26    -0.17  -0.12  -0.00
   8   6    -0.10  -0.03  -0.03     0.05  -0.03   0.10    -0.21  -0.15   0.01
   9   6    -0.10   0.01   0.05     0.10   0.03  -0.09    -0.13   0.11  -0.06
  10   1     0.16   0.39  -0.21     0.13   0.18  -0.14    -0.01  -0.09   0.07
  11   1     0.27  -0.40   0.02     0.24  -0.13   0.07    -0.06   0.03  -0.03
  12   1    -0.45   0.02   0.22    -0.13   0.01   0.04     0.12  -0.01   0.02
  13   1     0.09  -0.00  -0.05    -0.08  -0.05   0.13     0.14   0.04  -0.10
  14   1     0.01   0.07  -0.00    -0.01  -0.15   0.03     0.05   0.14  -0.00
  15   1    -0.01  -0.14   0.01     0.07   0.09  -0.03     0.03  -0.12  -0.01
  16   1    -0.02  -0.06  -0.10     0.07   0.02   0.06    -0.03  -0.05  -0.09
  17   1     0.05   0.05   0.01    -0.09  -0.05  -0.05     0.04   0.00  -0.01
  18   1    -0.02   0.02   0.08    -0.07   0.01  -0.13     0.00  -0.02   0.03
  19   1     0.04   0.12   0.01    -0.09  -0.04  -0.05     0.00  -0.00   0.03
  20   1     0.04   0.05   0.11    -0.06   0.02  -0.14     0.05   0.01  -0.01
  21   1    -0.03  -0.07   0.00     0.06   0.14  -0.03    -0.04   0.16   0.01
  22   1    -0.01  -0.01  -0.09     0.08   0.05   0.09     0.05   0.06   0.12
  23   1     0.01   0.00  -0.05    -0.13  -0.05   0.17    -0.11  -0.03  -0.00
  24   1     0.00   0.03  -0.02     0.00  -0.18   0.06    -0.03  -0.07   0.01
  25   1    -0.04  -0.01   0.01     0.01  -0.01  -0.02    -0.11  -0.04   0.01
  26   1    -0.04  -0.03  -0.02     0.05   0.03   0.07    -0.04  -0.07   0.01
  27   1    -0.02   0.00  -0.00     0.04   0.01   0.04    -0.01   0.05   0.36
  28   1    -0.01   0.02   0.03    -0.03  -0.04  -0.08    -0.16  -0.25  -0.20
  29   1    -0.05  -0.01   0.03     0.08   0.07  -0.08     0.08   0.35  -0.22
                     10                     11                     12
                        a                      a                      a 
 Frequencies --   264.5141               278.6964               335.0964
 Red. masses --     4.8278                 7.5569                 8.3781
 Frc consts  --     0.0000                 0.0000                 0.0000
 IR Inten    --     1.4018                 1.7725                 7.1669
 Raman Activ --     0.0000                 0.0000                 0.0000
 Depolar     --     0.0000                 0.0000                 0.0000
 Atom AN      X      Y      Z        X      Y      Z        X      Y      Z
   1   7    -0.16   0.05  -0.07     0.10  -0.02   0.04     0.27  -0.07   0.09
   2   6    -0.22  -0.14   0.06     0.10   0.05   0.00    -0.04   0.25   0.08
   3   6    -0.07   0.16   0.10     0.05  -0.04  -0.09    -0.26  -0.24   0.02
   4   6    -0.03   0.03   0.03     0.00   0.07  -0.06    -0.32  -0.00   0.03
   5   6     0.01  -0.03  -0.02    -0.06  -0.03  -0.04    -0.20   0.15  -0.15
   6   6     0.04  -0.11  -0.08    -0.10  -0.23  -0.13    -0.04  -0.02  -0.15
   7   6     0.20   0.17  -0.18     0.00   0.28   0.30     0.06   0.04  -0.05
   8   6     0.09  -0.17   0.05    -0.05   0.18   0.36     0.21  -0.09  -0.03
   9   6     0.16   0.01   0.10    -0.10  -0.17  -0.31     0.26   0.00   0.17
  10   1    -0.01   0.09  -0.05     0.02  -0.03   0.01     0.04  -0.13  -0.05
  11   1     0.02  -0.01   0.01     0.02  -0.00   0.01     0.09   0.00   0.04
  12   1    -0.12   0.02  -0.04     0.05  -0.01   0.02     0.20  -0.03   0.07
  13   1    -0.14  -0.04   0.09     0.05   0.01  -0.02     0.08   0.07  -0.06
  14   1    -0.05  -0.14  -0.00     0.03   0.04   0.01    -0.07   0.18   0.02
  15   1    -0.04   0.13   0.02     0.04  -0.06  -0.02    -0.02  -0.21   0.02
  16   1     0.03   0.04   0.10     0.00  -0.01  -0.07    -0.17  -0.06  -0.12
  17   1    -0.03  -0.01   0.02     0.00   0.06  -0.03    -0.10   0.04  -0.00
  18   1     0.01   0.01  -0.02     0.01   0.02   0.02    -0.14   0.00   0.07
  19   1     0.02  -0.00  -0.01     0.00   0.03  -0.03    -0.05   0.07  -0.05
  20   1    -0.01  -0.01   0.01    -0.04  -0.01   0.03    -0.05   0.04  -0.01
  21   1     0.02  -0.08  -0.01     0.05  -0.24  -0.01     0.02  -0.06  -0.04
  22   1    -0.03  -0.03  -0.06    -0.13  -0.06  -0.19    -0.02  -0.01  -0.10
  23   1     0.14   0.04  -0.18     0.08   0.08   0.07     0.03   0.01  -0.04
  24   1     0.04   0.20  -0.02     0.02   0.13   0.12     0.00   0.04  -0.02
  25   1    -0.01  -0.05   0.10     0.02   0.05   0.16     0.06  -0.03   0.01
  26   1     0.02  -0.14  -0.02     0.03   0.01   0.12     0.05  -0.04  -0.01
  27   1     0.06   0.03   0.40    -0.12  -0.05  -0.05     0.11   0.00   0.08
  28   1    -0.04  -0.28  -0.13    -0.15  -0.14  -0.21     0.11  -0.00   0.07
  29   1     0.13   0.32  -0.15     0.16  -0.06  -0.19     0.02   0.04   0.06
                     13                     14                     15
                        a                      a                      a 
 Frequencies --   356.8652               452.5337               521.1682
 Red. masses --     8.8937                 8.5142                 8.4208
 Frc consts  --     0.0000                 0.0000                 0.0000
 IR Inten    --     2.1247                 6.4299                 1.5686
 Raman Activ --     0.0000                 0.0000                 0.0000
 Depolar     --     0.0000                 0.0000                 0.0000
 Atom AN      X      Y      Z        X      Y      Z        X      Y      Z
   1   7     0.18  -0.04   0.13     0.11  -0.05   0.10     0.02  -0.02   0.05
   2   6     0.05   0.01   0.12    -0.38   0.16   0.21    -0.15   0.06   0.08
   3   6     0.09   0.10  -0.36    -0.30   0.07  -0.17    -0.05   0.12  -0.19
   4   6     0.01   0.17  -0.32     0.11  -0.08  -0.00     0.28  -0.11   0.02
   5   6    -0.22  -0.11   0.27     0.23  -0.03   0.02     0.22  -0.13   0.04
   6   6    -0.16  -0.18   0.36     0.31   0.02   0.01    -0.31   0.16  -0.24
   7   6    -0.02   0.06  -0.14     0.23  -0.10  -0.04    -0.38   0.12   0.09
   8   6     0.02  -0.03  -0.13    -0.14   0.08   0.02     0.11  -0.09   0.02
   9   6     0.02   0.02   0.06    -0.22   0.01  -0.12     0.21  -0.02   0.11
  10   1     0.05  -0.02  -0.03     0.02  -0.09  -0.15     0.00  -0.03  -0.06
  11   1     0.10  -0.03   0.06     0.15  -0.02   0.10     0.06  -0.01   0.04
  12   1     0.06  -0.01   0.05     0.12  -0.02   0.07     0.04  -0.01   0.04
  13   1    -0.05   0.00   0.08    -0.19   0.05   0.11    -0.14   0.02   0.08
  14   1     0.06  -0.07   0.05    -0.08  -0.05   0.05     0.01  -0.09   0.03
  15   1     0.09  -0.04  -0.11    -0.05  -0.11  -0.03    -0.01  -0.02  -0.04
  16   1     0.03   0.03  -0.17    -0.18   0.02  -0.14    -0.06   0.04  -0.09
  17   1     0.07   0.04  -0.11     0.08  -0.02  -0.02     0.13  -0.02  -0.01
  18   1     0.04   0.05  -0.10     0.05  -0.02  -0.01     0.14  -0.03  -0.01
  19   1    -0.13  -0.02   0.10     0.06  -0.00   0.01     0.13  -0.03  -0.01
  20   1    -0.12  -0.03   0.10     0.09  -0.01   0.00     0.12  -0.04  -0.01
  21   1    -0.09  -0.02   0.11     0.07   0.08  -0.01    -0.08  -0.07  -0.04
  22   1    -0.07  -0.05   0.13     0.14   0.00   0.06    -0.18   0.05  -0.15
  23   1     0.09   0.01  -0.13     0.08  -0.03   0.01    -0.24   0.04   0.09
  24   1    -0.09   0.14  -0.06     0.10  -0.03   0.01    -0.07  -0.10   0.01
  25   1     0.00  -0.01  -0.03    -0.06   0.02  -0.01     0.06  -0.02   0.03
  26   1    -0.02  -0.01  -0.05    -0.06   0.02  -0.01     0.07  -0.02   0.04
  27   1     0.02   0.01   0.03    -0.10   0.00  -0.06     0.11  -0.00   0.06
  28   1     0.04   0.00   0.04    -0.10  -0.01  -0.06     0.09   0.00   0.06
  29   1    -0.04   0.03   0.03     0.00  -0.03  -0.05    -0.00   0.04   0.05
                     16                     17                     18
                        a                      a                      a 
 Frequencies --   759.7887               773.9255               792.0031
 Red. masses --     1.9684                 2.4726                 2.7277
 Frc consts  --     0.0000                 0.0000                 0.0000
 IR Inten    --    19.4791                 1.2152                16.0629
 Raman Activ --     0.0000                 0.0000                 0.0000
 Depolar     --     0.0000                 0.0000                 0.0000
 Atom AN      X      Y      Z        X      Y      Z        X      Y      Z
   1   7    -0.00  -0.03  -0.05    -0.00  -0.02  -0.06     0.02  -0.02  -0.08
   2   6     0.04   0.02  -0.01     0.04   0.05  -0.01     0.09   0.07  -0.03
   3   6     0.04   0.06   0.08     0.06   0.08   0.07     0.07   0.12   0.10
   4   6     0.01   0.14   0.10     0.05   0.04   0.09    -0.02   0.02   0.08
   5   6     0.00   0.12   0.09     0.01   0.02  -0.09    -0.08  -0.12  -0.07
   6   6     0.06   0.05   0.07    -0.08  -0.07  -0.08    -0.08  -0.11  -0.11
   7   6     0.05   0.03  -0.02    -0.12  -0.12   0.08     0.04   0.01  -0.07
   8   6     0.01   0.01  -0.07    -0.05  -0.11   0.14     0.06   0.17   0.00
   9   6    -0.03   0.01  -0.01     0.03  -0.02   0.02     0.05   0.02   0.01
  10   1     0.00   0.01   0.04    -0.00   0.00   0.04     0.00   0.01   0.09
  11   1    -0.05  -0.03  -0.05    -0.07  -0.05  -0.07    -0.13  -0.10  -0.14
  12   1    -0.03  -0.01   0.01    -0.02  -0.01   0.04    -0.03  -0.01   0.09
  13   1    -0.04   0.01   0.03    -0.08   0.02   0.07    -0.13   0.02   0.13
  14   1     0.00  -0.05  -0.02     0.02  -0.10  -0.03     0.03  -0.18  -0.06
  15   1    -0.04  -0.24   0.10    -0.01  -0.20   0.09     0.00  -0.23   0.10
  16   1    -0.02   0.02  -0.25    -0.04   0.03  -0.20    -0.07   0.04  -0.23
  17   1     0.04  -0.38   0.14    -0.03  -0.17   0.09    -0.12  -0.08   0.08
  18   1    -0.15   0.03  -0.36    -0.01   0.01  -0.16     0.05   0.00  -0.09
  19   1     0.04  -0.36   0.13     0.09   0.05  -0.07     0.04   0.24  -0.12
  20   1    -0.15   0.02  -0.36    -0.02   0.01   0.04    -0.02  -0.02   0.27
  21   1    -0.02  -0.21   0.09    -0.00   0.15  -0.07    -0.01   0.26  -0.12
  22   1    -0.01   0.01  -0.22     0.06  -0.02   0.13     0.01  -0.03   0.27
  23   1    -0.04   0.01   0.08     0.13  -0.04  -0.31     0.01   0.01   0.17
  24   1     0.00  -0.09  -0.04    -0.01   0.32   0.13    -0.00  -0.15  -0.07
  25   1    -0.06   0.00   0.07     0.19  -0.03  -0.33    -0.14   0.05   0.25
  26   1     0.00  -0.10  -0.05    -0.02   0.38   0.15     0.05  -0.24  -0.06
  27   1    -0.04   0.00   0.01     0.17  -0.00  -0.04    -0.16  -0.00   0.02
  28   1     0.02  -0.03   0.01    -0.11   0.12  -0.04     0.10  -0.11   0.02
  29   1    -0.02  -0.00   0.01     0.04   0.04  -0.03     0.03  -0.07   0.02
                     19                     20                     21
                        a                      a                      a 
 Frequencies --   821.3567               869.5719               883.3077
 Red. masses --     2.7458                 4.9755                 5.6063
 Frc consts  --     0.0000                 0.0000                 0.0000
 IR Inten    --    36.0709                 1.5511                 6.3144
 Raman Activ --     0.0000                 0.0000                 0.0000
 Depolar     --     0.0000                 0.0000                 0.0000
 Atom AN      X      Y      Z        X      Y      Z        X      Y      Z
   1   7     0.12   0.10  -0.02     0.08   0.11   0.16    -0.14  -0.00  -0.15
   2   6     0.14   0.12  -0.14     0.01  -0.07  -0.14    -0.07   0.12   0.12
   3   6    -0.05  -0.01  -0.06    -0.15  -0.11  -0.21     0.15  -0.07   0.12
   4   6    -0.09  -0.15   0.03     0.02   0.04   0.11     0.09  -0.04  -0.07
   5   6    -0.04   0.05   0.01     0.04   0.14   0.06     0.09   0.10  -0.18
   6   6     0.07   0.08   0.08    -0.15  -0.10  -0.16     0.07  -0.07   0.17
   7   6     0.04   0.01   0.02    -0.08  -0.19  -0.06    -0.23  -0.04   0.27
   8   6    -0.01  -0.06  -0.04     0.02   0.17   0.12     0.04   0.00  -0.19
   9   6    -0.04  -0.00  -0.01     0.13   0.05   0.03    -0.02   0.07  -0.13
  10   1    -0.01  -0.05   0.14    -0.00  -0.04   0.01    -0.06  -0.09  -0.17
  11   1    -0.23  -0.25  -0.27     0.01  -0.04   0.01     0.02  -0.04  -0.02
  12   1     0.06   0.02   0.37     0.08   0.02   0.16     0.06  -0.01   0.06
  13   1    -0.17   0.04   0.33     0.07  -0.02   0.06    -0.02   0.03   0.05
  14   1     0.06  -0.38  -0.15     0.02  -0.05  -0.03    -0.04   0.01   0.01
  15   1    -0.00   0.10  -0.05    -0.12   0.25  -0.10     0.10  -0.06   0.02
  16   1    -0.10  -0.00   0.11     0.07  -0.03   0.19     0.00  -0.02   0.01
  17   1    -0.04   0.14  -0.04     0.19  -0.11   0.01    -0.02   0.05  -0.02
  18   1    -0.03  -0.04   0.20    -0.18   0.01  -0.04     0.03  -0.01   0.05
  19   1    -0.10  -0.04   0.05     0.18  -0.15   0.02     0.00   0.03  -0.04
  20   1     0.06   0.01  -0.07    -0.14   0.03  -0.14     0.08   0.03  -0.06
  21   1     0.03  -0.15   0.07    -0.14   0.19  -0.07     0.10  -0.08   0.04
  22   1    -0.02   0.02  -0.16     0.14  -0.03   0.13     0.07  -0.02  -0.04
  23   1    -0.03   0.00  -0.01     0.14  -0.06  -0.11     0.11  -0.02  -0.16
  24   1     0.01  -0.01   0.00    -0.04   0.12   0.02    -0.16   0.28   0.08
  25   1     0.03  -0.02  -0.05    -0.15   0.04   0.06    -0.20  -0.00  -0.01
  26   1    -0.03   0.04  -0.02     0.11  -0.05   0.07     0.22  -0.14   0.05
  27   1     0.04   0.00  -0.00    -0.19   0.00  -0.01    -0.22   0.02   0.09
  28   1    -0.03   0.03  -0.01     0.10  -0.11   0.01     0.28  -0.16   0.11
  29   1    -0.03   0.03  -0.01     0.12  -0.12   0.03    -0.20  -0.01   0.08
                     22                     23                     24
                        a                      a                      a 
 Frequencies --   900.3955               922.0736               968.5936
 Red. masses --     5.8464                 5.4866                 5.1528
 Frc consts  --     0.0000                 0.0000                 0.0000
 IR Inten    --    30.9328                 1.0157                12.4519
 Raman Activ --     0.0000                 0.0000                 0.0000
 Depolar     --     0.0000                 0.0000                 0.0000
 Atom AN      X      Y      Z        X      Y      Z        X      Y      Z
   1   7    -0.27   0.09  -0.25    -0.05  -0.15  -0.14     0.21   0.10   0.01
   2   6    -0.10   0.14   0.20     0.06   0.13   0.14    -0.23  -0.18   0.06
   3   6     0.25  -0.21   0.12     0.10   0.09   0.06    -0.14  -0.05   0.17
   4   6     0.06   0.09  -0.09    -0.04  -0.16  -0.06     0.06   0.18  -0.26
   5   6    -0.01  -0.00   0.06    -0.03   0.06   0.07     0.13  -0.14   0.02
   6   6    -0.08  -0.03  -0.04    -0.11   0.13  -0.01     0.04   0.08   0.03
   7   6     0.06   0.01  -0.15     0.01  -0.25  -0.21    -0.05  -0.05  -0.06
   8   6    -0.02   0.03   0.11    -0.03   0.15   0.19    -0.03   0.01   0.04
   9   6     0.04  -0.03   0.08     0.18   0.07   0.13     0.08   0.06   0.04
  10   1    -0.14  -0.25  -0.37     0.02   0.07   0.03     0.04   0.03   0.25
  11   1     0.04  -0.15  -0.06    -0.01   0.05  -0.00    -0.21  -0.12  -0.21
  12   1     0.20   0.01   0.27    -0.11  -0.03  -0.20    -0.02   0.02   0.18
  13   1     0.11   0.03   0.15    -0.14   0.04  -0.03     0.23  -0.06  -0.03
  14   1    -0.10   0.04  -0.00     0.06  -0.02   0.05    -0.34   0.18  -0.12
  15   1     0.13   0.01  -0.00     0.17  -0.10  -0.00    -0.07  -0.04   0.06
  16   1     0.15  -0.06   0.08    -0.15   0.03  -0.04     0.15  -0.02  -0.06
  17   1     0.05  -0.01  -0.02    -0.05   0.14  -0.05    -0.05   0.04  -0.04
  18   1    -0.05   0.02  -0.04     0.07  -0.04   0.16     0.17   0.05  -0.13
  19   1     0.01  -0.03   0.02    -0.14  -0.07   0.09    -0.05   0.04   0.01
  20   1    -0.08  -0.00  -0.00     0.12   0.01  -0.12     0.11  -0.04   0.06
  21   1    -0.08   0.06  -0.01    -0.18  -0.06   0.08    -0.00  -0.07   0.04
  22   1    -0.03  -0.01   0.06     0.06   0.03  -0.15    -0.06   0.02  -0.07
  23   1    -0.04   0.01   0.08     0.02  -0.07  -0.16    -0.09  -0.02  -0.11
  24   1     0.03  -0.12  -0.06     0.00   0.03  -0.03     0.02   0.02   0.02
  25   1     0.08   0.01   0.03    -0.15   0.03  -0.03    -0.10   0.00  -0.07
  26   1    -0.10   0.05  -0.02    -0.01   0.03   0.05     0.02   0.03   0.04
  27   1     0.09  -0.01  -0.05    -0.20   0.00  -0.09    -0.13   0.00  -0.03
  28   1    -0.13   0.07  -0.06    -0.04  -0.08  -0.06     0.02  -0.06  -0.01
  29   1     0.13  -0.01  -0.04     0.32  -0.19  -0.02     0.12  -0.09   0.01
                     25                     26                     27
                        a                      a                      a 
 Frequencies --   974.0851               996.5529              1036.9985
 Red. masses --     5.1355                 6.4726                 4.4350
 Frc consts  --     0.0000                 0.0000                 0.0000
 IR Inten    --    18.9273                 5.3653                 0.7839
 Raman Activ --     0.0000                 0.0000                 0.0000
 Depolar     --     0.0000                 0.0000                 0.0000
 Atom AN      X      Y      Z        X      Y      Z        X      Y      Z
   1   7    -0.11   0.17   0.25     0.06   0.04   0.13    -0.03  -0.08  -0.09
   2   6     0.00  -0.13  -0.35    -0.13  -0.03  -0.16     0.15   0.08   0.13
   3   6     0.10   0.07  -0.04     0.01  -0.03   0.10    -0.12  -0.05  -0.09
   4   6    -0.03  -0.05   0.15     0.16  -0.05  -0.05    -0.01   0.10   0.09
   5   6    -0.12  -0.08  -0.07     0.13   0.21  -0.29     0.06  -0.06  -0.15
   6   6     0.03   0.15   0.07     0.00  -0.23   0.27     0.20  -0.05   0.19
   7   6     0.05  -0.08  -0.04    -0.25   0.03  -0.06    -0.13   0.12  -0.02
   8   6    -0.01  -0.01   0.02    -0.02   0.13  -0.02    -0.05  -0.09  -0.09
   9   6     0.05   0.07   0.05     0.07  -0.09   0.15     0.10   0.10   0.17
  10   1    -0.06  -0.13  -0.26     0.02   0.03   0.05     0.00   0.01  -0.01
  11   1     0.21   0.04   0.21     0.01   0.02   0.04    -0.00   0.01  -0.01
  12   1     0.19   0.03   0.15     0.00   0.01   0.02    -0.04  -0.02  -0.07
  13   1     0.03  -0.04  -0.00    -0.06  -0.01  -0.04    -0.00   0.02   0.05
  14   1     0.13  -0.07  -0.01    -0.04  -0.01  -0.04     0.09  -0.04   0.05
  15   1    -0.22  -0.04   0.09    -0.06  -0.04   0.05    -0.03   0.09  -0.05
  16   1     0.18   0.01  -0.15    -0.03  -0.01  -0.00    -0.07  -0.01   0.11
  17   1    -0.21  -0.06   0.11    -0.03   0.02  -0.00     0.10  -0.09   0.03
  18   1     0.15  -0.02  -0.06     0.05  -0.01   0.02    -0.18   0.03  -0.04
  19   1    -0.16   0.10  -0.01    -0.03   0.03  -0.05     0.18   0.08  -0.12
  20   1     0.12  -0.02   0.07     0.09   0.05  -0.13    -0.16  -0.01   0.14
  21   1     0.05  -0.12   0.05    -0.04  -0.04   0.07     0.32  -0.11  -0.02
  22   1    -0.07   0.04  -0.13     0.16  -0.06   0.04    -0.23  -0.01   0.06
  23   1    -0.07  -0.02  -0.10     0.13   0.01   0.12    -0.27   0.03  -0.10
  24   1     0.03   0.01   0.01    -0.34   0.02  -0.21    -0.08  -0.02  -0.05
  25   1    -0.11  -0.01  -0.09     0.10   0.04   0.18    -0.14  -0.03  -0.15
  26   1    -0.01   0.02   0.01    -0.18  -0.06  -0.15    -0.08   0.01  -0.06
  27   1    -0.14   0.01  -0.04     0.17  -0.02  -0.06    -0.17   0.01  -0.10
  28   1    -0.00  -0.05  -0.02    -0.19   0.10  -0.07    -0.11  -0.04  -0.08
  29   1     0.13  -0.09  -0.00     0.17  -0.00  -0.05     0.30  -0.16  -0.02
                     28                     29                     30
                        a                      a                      a 
 Frequencies --  1054.2618              1075.3571              1088.7209
 Red. masses --     7.2225                 9.6572                 8.7365
 Frc consts  --     0.0000                 0.0000                 0.0000
 IR Inten    --    14.1533                 3.0020                 2.3752
 Raman Activ --     0.0000                 0.0000                 0.0000
 Depolar     --     0.0000                 0.0000                 0.0000
 Atom AN      X      Y      Z        X      Y      Z        X      Y      Z
   1   7    -0.07  -0.05  -0.24    -0.05   0.01   0.05    -0.02   0.01   0.01
   2   6     0.33  -0.10   0.38     0.08   0.01  -0.12     0.03  -0.00  -0.05
   3   6    -0.29   0.19  -0.23     0.01   0.01   0.06     0.02   0.03  -0.01
   4   6    -0.10  -0.02   0.15    -0.40   0.14  -0.14    -0.33   0.11  -0.06
   5   6     0.02  -0.03  -0.03     0.36  -0.17   0.20     0.39  -0.07  -0.04
   6   6     0.02   0.02   0.00     0.27  -0.12  -0.06    -0.18  -0.02   0.10
   7   6    -0.07  -0.05   0.02    -0.26   0.12  -0.09     0.04  -0.09  -0.05
   8   6    -0.01   0.07  -0.02    -0.30   0.13   0.05     0.43  -0.11   0.09
   9   6     0.01  -0.06   0.01     0.25  -0.13  -0.05    -0.35   0.16   0.04
  10   1    -0.03  -0.06  -0.08    -0.01  -0.02  -0.07    -0.00  -0.01  -0.02
  11   1    -0.04  -0.07  -0.09     0.06   0.02   0.06     0.02   0.01   0.02
  12   1     0.02  -0.01   0.02     0.03   0.00  -0.00     0.01   0.00   0.00
  13   1     0.32  -0.04   0.09    -0.05   0.00   0.01    -0.01   0.00  -0.00
  14   1     0.08   0.06   0.11     0.08  -0.07  -0.01     0.03  -0.02  -0.00
  15   1    -0.24   0.10  -0.01     0.04  -0.03   0.01     0.06  -0.00  -0.02
  16   1     0.12   0.05  -0.07    -0.02   0.01  -0.03     0.02   0.01  -0.03
  17   1    -0.13  -0.03   0.08    -0.18   0.07  -0.02    -0.15   0.04   0.00
  18   1     0.16  -0.01  -0.07    -0.16   0.04   0.01    -0.15   0.03   0.00
  19   1    -0.06   0.03   0.00     0.04  -0.08   0.08     0.20  -0.01  -0.05
  20   1     0.20  -0.01  -0.03     0.10  -0.05   0.02     0.18  -0.02  -0.03
  21   1    -0.04  -0.01   0.02    -0.04   0.02   0.01    -0.11  -0.02   0.06
  22   1     0.16   0.00  -0.07     0.13  -0.03   0.03    -0.12  -0.01   0.04
  23   1     0.14  -0.01   0.04    -0.09   0.03   0.00    -0.00  -0.03  -0.04
  24   1    -0.12   0.05  -0.05     0.02   0.00   0.03    -0.08  -0.02  -0.08
  25   1     0.04   0.02   0.09    -0.05   0.04   0.02     0.15  -0.03   0.05
  26   1    -0.04  -0.04  -0.05    -0.03   0.06   0.05     0.16  -0.04   0.05
  27   1     0.08  -0.01   0.00     0.14  -0.03   0.05    -0.15   0.04  -0.04
  28   1    -0.03   0.03  -0.00     0.15  -0.03   0.05    -0.17   0.05  -0.04
  29   1    -0.01   0.03  -0.01    -0.03   0.02   0.02    -0.02   0.01  -0.01
                     31                     32                     33
                        a                      a                      a 
 Frequencies --  1108.8919              1119.5416              1137.2506
 Red. masses --     7.3564                 8.0823                 7.8719
 Frc consts  --     0.0000                 0.0000                 0.0000
 IR Inten    --     2.5517                 1.2210                 4.3721
 Raman Activ --     0.0000                 0.0000                 0.0000
 Depolar     --     0.0000                 0.0000                 0.0000
 Atom AN      X      Y      Z        X      Y      Z        X      Y      Z
   1   7     0.10   0.06  -0.01     0.02  -0.01  -0.01     0.07   0.00  -0.04
   2   6    -0.28  -0.04   0.02    -0.02   0.02   0.03    -0.14   0.02   0.09
   3   6     0.32   0.13  -0.27     0.01  -0.01  -0.06     0.13   0.03  -0.21
   4   6    -0.28  -0.16   0.30    -0.06   0.04   0.04     0.03  -0.13   0.24
   5   6    -0.05  -0.06   0.10     0.23   0.07  -0.24    -0.05   0.10  -0.22
   6   6     0.06   0.06  -0.09    -0.39   0.04   0.24     0.12  -0.14   0.22
   7   6    -0.03   0.01   0.15     0.35  -0.07   0.12    -0.07   0.01  -0.38
   8   6    -0.03  -0.00  -0.17    -0.31   0.03  -0.09    -0.02   0.08   0.35
   9   6     0.03  -0.02   0.09     0.21  -0.12  -0.06    -0.00  -0.01  -0.17
  10   1     0.01   0.01   0.09     0.01   0.01   0.02     0.02   0.02   0.06
  11   1    -0.08  -0.03  -0.09    -0.01   0.00  -0.01    -0.06  -0.02  -0.06
  12   1    -0.01   0.02   0.07    -0.01  -0.00  -0.01    -0.03   0.00   0.01
  13   1     0.00  -0.01  -0.12    -0.01   0.01  -0.00     0.00   0.01  -0.04
  14   1    -0.13   0.14   0.01     0.00   0.01   0.01    -0.04   0.08   0.04
  15   1     0.31   0.02  -0.15    -0.01   0.03  -0.02     0.03   0.06  -0.06
  16   1     0.23   0.03  -0.14     0.04  -0.00   0.00     0.13   0.01  -0.04
  17   1    -0.02  -0.04   0.06    -0.06  -0.02   0.03    -0.06  -0.06   0.09
  18   1    -0.10  -0.04   0.10    -0.10   0.01  -0.01    -0.04  -0.03   0.04
  19   1     0.11  -0.02  -0.01     0.12   0.06  -0.10    -0.03   0.05  -0.06
  20   1     0.06  -0.02   0.01     0.14   0.02  -0.06    -0.04   0.03  -0.00
  21   1     0.15   0.01  -0.06    -0.13  -0.04   0.09    -0.05  -0.07   0.09
  22   1     0.08   0.01  -0.04    -0.31   0.01   0.08    -0.05  -0.04   0.03
  23   1     0.10  -0.00   0.03     0.15  -0.02   0.12    -0.26   0.01  -0.09
  24   1    -0.10   0.07  -0.01     0.15  -0.04   0.07     0.05  -0.13  -0.08
  25   1    -0.05  -0.00   0.00    -0.17   0.00  -0.12     0.10   0.02   0.04
  26   1    -0.08  -0.06  -0.11    -0.12   0.02  -0.05     0.12   0.12   0.20
  27   1     0.03  -0.01  -0.05     0.10  -0.03   0.03     0.00   0.01   0.09
  28   1    -0.09   0.02  -0.04     0.12  -0.03   0.03     0.18  -0.03   0.08
  29   1     0.11  -0.03  -0.02    -0.01   0.00   0.01    -0.19   0.06   0.04
                     34                     35                     36
                        a                      a                      a 
 Frequencies --  1162.4799              1177.6909              1229.6835
 Red. masses --     7.1837                 5.8314                 4.0039
 Frc consts  --     0.0000                 0.0000                 0.0000
 IR Inten    --     7.3220                 4.5005                 7.3096
 Raman Activ --     0.0000                 0.0000                 0.0000
 Depolar     --     0.0000                 0.0000                 0.0000
 Atom AN      X      Y      Z        X      Y      Z        X      Y      Z
   1   7    -0.04   0.16  -0.02    -0.04   0.10   0.01     0.04   0.14  -0.05
   2   6     0.10  -0.36   0.01     0.09  -0.21  -0.04    -0.01  -0.14   0.05
   3   6    -0.09   0.36   0.09    -0.08   0.15   0.10    -0.02  -0.09  -0.02
   4   6    -0.02  -0.24  -0.06    -0.01   0.02  -0.03     0.06   0.22   0.08
   5   6     0.04   0.24  -0.00    -0.06  -0.12  -0.02    -0.03  -0.20  -0.08
   6   6    -0.03  -0.22   0.02     0.01   0.25   0.08    -0.02   0.10   0.01
   7   6     0.03   0.20   0.00     0.01  -0.31  -0.09    -0.00   0.06  -0.01
   8   6    -0.04  -0.16  -0.03     0.01   0.30   0.10    -0.08  -0.21   0.09
   9   6     0.02   0.09   0.01    -0.02  -0.18  -0.04     0.06   0.16  -0.09
  10   1    -0.05  -0.09  -0.09    -0.03  -0.05  -0.06    -0.02  -0.05  -0.00
  11   1     0.01  -0.08  -0.03     0.02  -0.05  -0.00    -0.04  -0.08  -0.08
  12   1     0.11   0.03   0.16     0.07   0.02   0.09     0.05   0.03   0.12
  13   1     0.15  -0.10  -0.14     0.04  -0.06  -0.10    -0.23  -0.03  -0.28
  14   1     0.01   0.08   0.04     0.01   0.02   0.00     0.18   0.06   0.18
  15   1     0.12  -0.14   0.03     0.20  -0.08  -0.02     0.14   0.01  -0.06
  16   1    -0.22   0.09  -0.13    -0.24   0.04  -0.00    -0.24  -0.02   0.15
  17   1     0.08   0.12  -0.09     0.22   0.00  -0.07     0.05  -0.10   0.06
  18   1    -0.01  -0.05   0.16    -0.09   0.01   0.02    -0.09   0.05  -0.11
  19   1     0.07  -0.09   0.02     0.20   0.06  -0.10    -0.10   0.09  -0.03
  20   1    -0.09   0.06  -0.13    -0.11  -0.03   0.11     0.11  -0.05   0.09
  21   1    -0.03   0.07  -0.02     0.20  -0.11  -0.00    -0.10  -0.03   0.05
  22   1    -0.03  -0.05   0.15    -0.16   0.06  -0.12     0.20   0.02  -0.13
  23   1    -0.11   0.05   0.07     0.05  -0.08  -0.16     0.19   0.02   0.18
  24   1     0.09  -0.07   0.03    -0.12   0.06  -0.08    -0.12  -0.02  -0.09
  25   1    -0.01  -0.04  -0.12    -0.03   0.08   0.16     0.19  -0.05  -0.02
  26   1     0.00   0.05   0.03     0.03  -0.06   0.01    -0.16   0.10  -0.02
  27   1    -0.11   0.01  -0.02     0.22  -0.03   0.05    -0.19   0.03   0.02
  28   1     0.02  -0.05  -0.01    -0.01   0.08   0.03     0.14  -0.11   0.02
  29   1     0.05  -0.06   0.01    -0.11   0.10  -0.02    -0.01  -0.07   0.04
                     37                     38                     39
                        a                      a                      a 
 Frequencies --  1231.5196              1252.7699              1268.6691
 Red. masses --     3.3496                 3.1195                 3.0099
 Frc consts  --     0.0000                 0.0000                 0.0000
 IR Inten    --    13.3684                 4.7367                 2.7922
 Raman Activ --     0.0000                 0.0000                 0.0000
 Depolar     --     0.0000                 0.0000                 0.0000
 Atom AN      X      Y      Z        X      Y      Z        X      Y      Z
   1   7    -0.09  -0.14   0.10     0.04   0.01  -0.04    -0.03  -0.06   0.04
   2   6     0.08   0.09  -0.14    -0.04   0.06   0.06    -0.00  -0.03   0.01
   3   6    -0.08   0.06   0.05     0.09   0.03   0.06     0.11   0.17  -0.09
   4   6    -0.11   0.01   0.06    -0.05  -0.15  -0.18     0.16  -0.04   0.04
   5   6    -0.09  -0.02  -0.01     0.05   0.05   0.14     0.16  -0.11  -0.11
   6   6    -0.05   0.04   0.06    -0.04   0.07  -0.07     0.08   0.08  -0.07
   7   6     0.05   0.05  -0.08     0.04  -0.10  -0.02    -0.06  -0.09   0.10
   8   6    -0.10  -0.16   0.14    -0.06  -0.07   0.16     0.03  -0.01  -0.03
   9   6     0.07   0.12  -0.10     0.06   0.09  -0.12     0.02   0.07  -0.03
  10   1     0.01   0.04  -0.02     0.01   0.00   0.02     0.00   0.01  -0.02
  11   1     0.08   0.08   0.13    -0.03  -0.01  -0.04     0.02   0.03   0.04
  12   1    -0.02  -0.03  -0.12    -0.02   0.00   0.01    -0.01  -0.01  -0.05
  13   1     0.27   0.01   0.32    -0.11   0.02  -0.06     0.22  -0.01   0.16
  14   1    -0.26  -0.10  -0.29     0.11   0.03   0.11    -0.22   0.02  -0.16
  15   1     0.26  -0.01  -0.08    -0.41  -0.03   0.18    -0.07  -0.01   0.03
  16   1     0.02   0.02  -0.05     0.26   0.00  -0.13    -0.15   0.05  -0.02
  17   1     0.20  -0.01  -0.05     0.06   0.11  -0.11    -0.08  -0.01   0.05
  18   1     0.14  -0.00  -0.04    -0.12  -0.03   0.15    -0.47   0.00   0.15
  19   1     0.18   0.02  -0.08     0.07  -0.07   0.04    -0.33   0.04   0.07
  20   1     0.11  -0.01  -0.02    -0.09   0.01  -0.03    -0.23  -0.02   0.15
  21   1     0.11  -0.02  -0.02     0.31   0.01  -0.13    -0.22  -0.02   0.08
  22   1     0.11   0.01  -0.07    -0.19   0.02   0.05    -0.09   0.02  -0.01
  23   1     0.12   0.01   0.14     0.14  -0.03   0.05     0.04  -0.03  -0.05
  24   1    -0.15  -0.05  -0.15    -0.26  -0.00  -0.19     0.03   0.07   0.08
  25   1     0.15  -0.04  -0.04     0.16  -0.02   0.03     0.18   0.00   0.12
  26   1    -0.11   0.11   0.02    -0.19   0.08  -0.05    -0.19  -0.02  -0.14
  27   1    -0.14   0.02   0.03    -0.10   0.02   0.04    -0.07   0.02   0.00
  28   1     0.14  -0.09   0.03     0.14  -0.07   0.03     0.05  -0.04   0.00
  29   1    -0.03  -0.05   0.04    -0.06  -0.03   0.04     0.00  -0.02   0.01
                     40                     41                     42
                        a                      a                      a 
 Frequencies --  1280.2158              1283.0460              1291.0870
 Red. masses --     2.5601                 2.0032                 2.0788
 Frc consts  --     0.0000                 0.0000                 0.0000
 IR Inten    --     0.5595                 4.0414                 0.3410
 Raman Activ --     0.0000                 0.0000                 0.0000
 Depolar     --     0.0000                 0.0000                 0.0000
 Atom AN      X      Y      Z        X      Y      Z        X      Y      Z
   1   7     0.01  -0.02  -0.01     0.02  -0.00   0.00     0.01   0.00  -0.02
   2   6    -0.02   0.03   0.02    -0.05  -0.02  -0.01    -0.01   0.03  -0.02
   3   6     0.06   0.06   0.03     0.01  -0.08  -0.10    -0.06  -0.02   0.08
   4   6     0.00  -0.12  -0.10     0.03  -0.07  -0.04    -0.11  -0.05  -0.03
   5   6    -0.05  -0.14  -0.07     0.12   0.12   0.10    -0.04   0.00  -0.05
   6   6     0.03   0.16   0.12     0.02   0.10  -0.02    -0.03  -0.01   0.12
   7   6    -0.01   0.11  -0.07     0.03  -0.06   0.04    -0.07  -0.09   0.06
   8   6    -0.07  -0.07  -0.06    -0.05  -0.02   0.02    -0.04   0.05  -0.12
   9   6    -0.02  -0.03   0.08     0.03   0.04  -0.03     0.04   0.11  -0.02
  10   1     0.00   0.00   0.00     0.01   0.00  -0.01     0.00   0.00   0.02
  11   1    -0.01   0.01  -0.01    -0.01   0.01  -0.01    -0.00   0.00  -0.01
  12   1    -0.01  -0.00  -0.01    -0.01  -0.00   0.01    -0.00   0.00   0.02
  13   1     0.01   0.01   0.02     0.06  -0.01   0.01    -0.05   0.01  -0.02
  14   1     0.00   0.01   0.01     0.01  -0.01   0.01     0.11  -0.01   0.07
  15   1    -0.22  -0.02   0.10     0.11   0.04  -0.08    -0.01  -0.01   0.02
  16   1     0.11   0.01  -0.08    -0.18  -0.02   0.11     0.18  -0.01  -0.06
  17   1     0.05   0.06  -0.07    -0.57   0.04   0.15     0.16   0.03  -0.08
  18   1    -0.13  -0.03   0.12     0.37  -0.02  -0.09     0.14  -0.02  -0.00
  19   1     0.33   0.06  -0.16     0.24  -0.08  -0.01     0.26   0.02  -0.11
  20   1    -0.31  -0.03   0.18    -0.47   0.03   0.06    -0.05  -0.00   0.01
  21   1    -0.27  -0.07   0.16    -0.01  -0.02   0.02    -0.11  -0.05   0.08
  22   1     0.31   0.03  -0.22    -0.08   0.03  -0.01     0.15  -0.01  -0.05
  23   1     0.16   0.04   0.20     0.05  -0.01   0.01    -0.20  -0.03  -0.20
  24   1     0.02  -0.02  -0.02    -0.10   0.03  -0.05     0.34   0.06   0.29
  25   1    -0.12  -0.02  -0.11     0.10  -0.00   0.04     0.40   0.02   0.30
  26   1     0.26   0.02   0.18    -0.08   0.01  -0.04    -0.25  -0.06  -0.21
  27   1     0.04  -0.01  -0.03    -0.04   0.01   0.01    -0.09   0.02  -0.01
  28   1    -0.07   0.02  -0.02     0.04  -0.03   0.01     0.06  -0.06   0.00
  29   1     0.06  -0.01  -0.01    -0.01  -0.02   0.01     0.04  -0.03   0.00
                     43                     44                     45
                        a                      a                      a 
 Frequencies --  1318.9704              1322.5337              1334.5361
 Red. masses --     3.4820                 3.4529                 3.7712
 Frc consts  --     0.0000                 0.0000                 0.0000
 IR Inten    --     5.5891                 4.6145                 5.9720
 Raman Activ --     0.0000                 0.0000                 0.0000
 Depolar     --     0.0000                 0.0000                 0.0000
 Atom AN      X      Y      Z        X      Y      Z        X      Y      Z
   1   7    -0.01   0.03   0.07    -0.03   0.06   0.12     0.05  -0.06  -0.07
   2   6     0.12  -0.04   0.09     0.24  -0.04   0.16    -0.26  -0.01  -0.08
   3   6     0.12  -0.01  -0.11     0.14  -0.01  -0.12     0.23   0.04  -0.05
   4   6     0.05   0.03  -0.01    -0.02   0.00  -0.03     0.09   0.07  -0.08
   5   6    -0.07   0.03   0.07    -0.05  -0.02   0.04    -0.10  -0.05   0.10
   6   6    -0.05   0.02   0.08    -0.11  -0.05   0.02    -0.21  -0.04   0.07
   7   6    -0.17  -0.06  -0.20     0.13   0.05   0.10     0.07   0.04  -0.01
   8   6    -0.18  -0.03  -0.16     0.11   0.04   0.10     0.02   0.03   0.02
   9   6    -0.01   0.06   0.09     0.02  -0.04  -0.07     0.01  -0.02  -0.02
  10   1    -0.01  -0.03  -0.07    -0.02  -0.06  -0.13     0.02   0.04   0.07
  11   1    -0.02  -0.03  -0.01    -0.03  -0.06  -0.02    -0.01   0.05   0.00
  12   1     0.00   0.01  -0.05     0.01   0.01  -0.08    -0.03  -0.01   0.05
  13   1    -0.12  -0.00  -0.09    -0.29   0.01  -0.20     0.35  -0.02   0.21
  14   1    -0.25   0.03  -0.17    -0.40   0.03  -0.29     0.19   0.02   0.18
  15   1    -0.14   0.02   0.03    -0.22   0.03   0.05    -0.17  -0.03   0.08
  16   1    -0.17   0.00   0.07    -0.12  -0.00   0.04    -0.35   0.02   0.11
  17   1    -0.13  -0.01   0.05    -0.07   0.00   0.01    -0.15  -0.00   0.04
  18   1    -0.04   0.01   0.00    -0.00  -0.00   0.01    -0.17   0.02   0.04
  19   1     0.04  -0.01   0.00     0.17   0.00  -0.05     0.16   0.01  -0.04
  20   1     0.16   0.01  -0.08     0.05  -0.01  -0.02     0.20  -0.01  -0.07
  21   1     0.31  -0.05  -0.08    -0.02   0.02  -0.01     0.23   0.00  -0.08
  22   1    -0.09   0.00   0.03     0.25  -0.02  -0.06     0.29  -0.02  -0.07
  23   1     0.24  -0.01   0.15    -0.26   0.01  -0.16    -0.15   0.01  -0.09
  24   1     0.27  -0.01   0.17    -0.08  -0.02  -0.06     0.06  -0.04   0.01
  25   1     0.28   0.00   0.19    -0.15   0.01  -0.09    -0.03   0.01  -0.01
  26   1     0.28   0.00   0.18    -0.22  -0.01  -0.14    -0.05  -0.00  -0.03
  27   1     0.00   0.01  -0.04    -0.01  -0.00   0.03     0.00  -0.00   0.01
  28   1    -0.02  -0.03  -0.01     0.02   0.02   0.01     0.01   0.01   0.00
  29   1     0.13  -0.06  -0.01    -0.08   0.04   0.01    -0.02   0.02  -0.00
                     46                     47                     48
                        a                      a                      a 
 Frequencies --  1368.6018              1378.4129              1383.9772
 Red. masses --     4.6505                 4.9952                 4.9688
 Frc consts  --     0.0000                 0.0000                 0.0000
 IR Inten    --     1.0265                 1.0765                 4.4621
 Raman Activ --     0.0000                 0.0000                 0.0000
 Depolar     --     0.0000                 0.0000                 0.0000
 Atom AN      X      Y      Z        X      Y      Z        X      Y      Z
   1   7    -0.02   0.01   0.01     0.01  -0.00   0.01    -0.04  -0.01  -0.06
   2   6     0.10   0.01  -0.02     0.01  -0.01  -0.01     0.02  -0.00   0.01
   3   6    -0.36   0.02   0.09    -0.08   0.01   0.02     0.03  -0.00  -0.01
   4   6     0.33  -0.04  -0.07     0.22   0.01  -0.09    -0.09   0.01   0.05
   5   6     0.03  -0.03   0.05    -0.34  -0.01   0.12     0.18  -0.01  -0.07
   6   6    -0.23   0.01   0.06     0.28  -0.03  -0.11    -0.19  -0.01  -0.03
   7   6     0.03   0.02  -0.04     0.13  -0.01   0.16     0.33   0.00   0.16
   8   6     0.01   0.01   0.01    -0.17  -0.00  -0.09    -0.31   0.02  -0.18
   9   6    -0.00  -0.01  -0.01     0.02   0.03   0.03    -0.00   0.03   0.07
  10   1     0.00   0.02  -0.02     0.01   0.01  -0.03    -0.00   0.03   0.09
  11   1     0.01   0.00   0.01    -0.01   0.01  -0.00     0.07   0.02   0.05
  12   1     0.03   0.00  -0.00    -0.00  -0.00  -0.00     0.04  -0.00   0.07
  13   1    -0.10   0.01  -0.04    -0.00  -0.00   0.01    -0.03   0.00  -0.02
  14   1     0.02  -0.01  -0.01     0.01   0.01   0.00    -0.03   0.01  -0.02
  15   1     0.30  -0.00  -0.12     0.04  -0.01  -0.02    -0.02   0.00   0.01
  16   1     0.36  -0.01  -0.12     0.05   0.00  -0.01    -0.01  -0.00   0.01
  17   1    -0.33   0.05   0.09    -0.19   0.01   0.05     0.11  -0.01  -0.02
  18   1    -0.33  -0.00   0.07    -0.21   0.01   0.05     0.07  -0.00  -0.02
  19   1    -0.02   0.01   0.02     0.30   0.02  -0.11    -0.23  -0.01   0.08
  20   1    -0.04  -0.01   0.00     0.32  -0.00  -0.12    -0.14  -0.00   0.07
  21   1     0.26  -0.02  -0.09    -0.32   0.05   0.09     0.06   0.01  -0.04
  22   1     0.27  -0.01  -0.07    -0.24   0.00   0.06     0.19  -0.01  -0.02
  23   1    -0.05   0.01  -0.02    -0.13  -0.01  -0.10    -0.30   0.00  -0.18
  24   1     0.07  -0.03   0.02    -0.22   0.01  -0.14    -0.24  -0.01  -0.19
  25   1    -0.02   0.00  -0.01     0.17   0.00   0.09     0.26   0.01   0.16
  26   1    -0.01   0.00  -0.00     0.10  -0.01   0.07     0.32  -0.01   0.21
  27   1     0.00  -0.00   0.00     0.00   0.00  -0.02     0.05   0.00  -0.04
  28   1     0.00   0.01   0.00     0.01  -0.03  -0.00     0.01  -0.05  -0.00
  29   1    -0.01   0.01  -0.00     0.04  -0.02   0.00     0.09  -0.04  -0.01
                     49                     50                     51
                        a                      a                      a 
 Frequencies --  1390.1194              1434.4980              1437.0902
 Red. masses --     3.0415                 1.6523                 1.6337
 Frc consts  --     0.0000                 0.0000                 0.0000
 IR Inten    --   209.5420                79.3419                81.0187
 Raman Activ --     0.0000                 0.0000                 0.0000
 Depolar     --     0.0000                 0.0000                 0.0000
 Atom AN      X      Y      Z        X      Y      Z        X      Y      Z
   1   7     0.19   0.08   0.31     0.05   0.21  -0.05    -0.17   0.06   0.10
   2   6    -0.08   0.02  -0.04    -0.01   0.03  -0.01    -0.07   0.02   0.00
   3   6    -0.02   0.00   0.04    -0.00  -0.01   0.01     0.02   0.01  -0.02
   4   6    -0.02   0.00   0.01     0.02  -0.01  -0.00     0.00  -0.01   0.02
   5   6     0.04  -0.01  -0.02    -0.01   0.00   0.01    -0.01   0.00   0.00
   6   6    -0.04  -0.00  -0.00     0.00  -0.00  -0.00     0.00   0.00  -0.00
   7   6     0.05  -0.00   0.02     0.00   0.00   0.00     0.00  -0.00   0.00
   8   6    -0.05   0.00  -0.03    -0.00  -0.00  -0.00    -0.00  -0.00  -0.00
   9   6    -0.00   0.01   0.01     0.01  -0.00   0.00     0.01  -0.00   0.00
  10   1    -0.02  -0.20  -0.51    -0.24  -0.56   0.36     0.08   0.29   0.13
  11   1    -0.40  -0.13  -0.28     0.38  -0.35   0.08     0.08  -0.55  -0.13
  12   1    -0.25   0.02  -0.39    -0.33   0.04  -0.24     0.56  -0.01  -0.43
  13   1     0.13  -0.01   0.02     0.04   0.01   0.03     0.05   0.00   0.01
  14   1     0.12  -0.07   0.06     0.01  -0.02  -0.01     0.04  -0.02   0.04
  15   1     0.04   0.01  -0.01     0.00   0.02  -0.01    -0.01  -0.05   0.02
  16   1     0.00   0.00  -0.03     0.00   0.00  -0.03     0.01  -0.00   0.05
  17   1     0.05   0.01  -0.01    -0.03   0.02  -0.00    -0.01   0.05  -0.01
  18   1     0.01   0.00  -0.02    -0.02  -0.00  -0.01    -0.01  -0.00  -0.05
  19   1    -0.06  -0.00   0.02     0.01  -0.00  -0.00     0.01  -0.00  -0.00
  20   1    -0.03  -0.00   0.02     0.00   0.00  -0.00     0.00  -0.00   0.00
  21   1     0.02   0.00  -0.01    -0.00   0.00  -0.00    -0.00   0.00   0.00
  22   1     0.04  -0.00  -0.01    -0.00  -0.00   0.00    -0.00  -0.00  -0.00
  23   1    -0.05   0.00  -0.03    -0.00  -0.00  -0.00    -0.00  -0.00  -0.00
  24   1    -0.04  -0.00  -0.03    -0.00  -0.00  -0.00    -0.00  -0.00  -0.00
  25   1     0.04   0.00   0.03     0.00   0.00   0.00     0.00   0.00   0.00
  26   1     0.06  -0.00   0.04     0.00  -0.00   0.00     0.00   0.00   0.00
  27   1     0.01   0.00  -0.01    -0.01  -0.00  -0.00    -0.02  -0.00  -0.00
  28   1     0.00  -0.01   0.00    -0.01   0.00  -0.00    -0.01   0.01  -0.01
  29   1     0.02  -0.01  -0.00    -0.01   0.01   0.00    -0.01   0.01   0.00
                     52                     53                     54
                        a                      a                      a 
 Frequencies --  1438.9999              1478.2712              1490.5335
 Red. masses --     3.2168                 1.8561                 1.9144
 Frc consts  --     0.0000                 0.0000                 0.0000
 IR Inten    --     2.1353                18.2696                 7.9469
 Raman Activ --     0.0000                 0.0000                 0.0000
 Depolar     --     0.0000                 0.0000                 0.0000
 Atom AN      X      Y      Z        X      Y      Z        X      Y      Z
   1   7     0.00  -0.01  -0.00     0.01  -0.00   0.00    -0.02  -0.00  -0.01
   2   6     0.00  -0.00   0.00     0.12  -0.18  -0.17    -0.02   0.01   0.04
   3   6     0.00  -0.00   0.00     0.00  -0.02   0.02     0.07  -0.17   0.21
   4   6    -0.00   0.00   0.00    -0.01  -0.00   0.01     0.02   0.00  -0.01
   5   6     0.00   0.00  -0.00     0.00   0.01  -0.01    -0.02   0.02  -0.02
   6   6    -0.00   0.01   0.00    -0.00  -0.00   0.00     0.00  -0.01   0.01
   7   6     0.01  -0.01  -0.01     0.00  -0.00   0.00     0.00  -0.00  -0.00
   8   6    -0.07   0.00  -0.05     0.00  -0.00  -0.00     0.00  -0.00  -0.00
   9   6     0.41  -0.13   0.06    -0.00  -0.00  -0.00    -0.00  -0.00   0.00
  10   1     0.00   0.00  -0.01     0.00  -0.01  -0.03     0.01   0.05   0.02
  11   1    -0.01   0.02   0.00    -0.03  -0.04  -0.04     0.01  -0.02  -0.00
  12   1    -0.01  -0.00   0.02    -0.00  -0.00  -0.06     0.06  -0.00   0.00
  13   1    -0.00  -0.00  -0.00    -0.35   0.00   0.56     0.05  -0.00  -0.08
  14   1    -0.00   0.00  -0.00    -0.04   0.65   0.17     0.01  -0.09  -0.01
  15   1    -0.00   0.00  -0.00     0.00   0.09  -0.03    -0.03   0.64  -0.14
  16   1    -0.00   0.00  -0.00    -0.05   0.00  -0.08    -0.24   0.01  -0.62
  17   1     0.01  -0.00  -0.00     0.00   0.01  -0.00    -0.01  -0.03   0.01
  18   1     0.00   0.00   0.00     0.02  -0.00  -0.02    -0.01   0.00   0.03
  19   1    -0.01  -0.00   0.00    -0.00  -0.02   0.01     0.01  -0.08   0.02
  20   1    -0.00   0.00   0.00     0.00   0.00   0.02     0.03   0.00   0.08
  21   1     0.01  -0.01   0.00    -0.00   0.00  -0.00    -0.00   0.03  -0.01
  22   1    -0.01   0.00   0.01    -0.00  -0.00  -0.00    -0.01   0.00  -0.03
  23   1     0.01  -0.00  -0.01    -0.00  -0.00  -0.00    -0.00  -0.00   0.00
  24   1     0.00  -0.01  -0.00    -0.00   0.00   0.00     0.00   0.00   0.00
  25   1     0.04   0.00   0.08    -0.00   0.00   0.00    -0.00   0.00   0.01
  26   1     0.06   0.04   0.05    -0.00   0.00   0.00    -0.00   0.00   0.00
  27   1    -0.50  -0.03  -0.08    -0.00  -0.00   0.00    -0.00   0.00  -0.00
  28   1    -0.40   0.21  -0.23    -0.00   0.00   0.00     0.00   0.00   0.00
  29   1    -0.42   0.26   0.13     0.00  -0.00  -0.00     0.00   0.00  -0.00
                     55                     56                     57
                        a                      a                      a 
 Frequencies --  1509.7621              1510.8882              1511.3194
 Red. masses --     1.6130                 1.6981                 1.8222
 Frc consts  --     0.0000                 0.0000                 0.0000
 IR Inten    --     3.5450                 2.6923                 0.1832
 Raman Activ --     0.0000                 0.0000                 0.0000
 Depolar     --     0.0000                 0.0000                 0.0000
 Atom AN      X      Y      Z        X      Y      Z        X      Y      Z
   1   7    -0.00   0.00   0.00     0.00   0.00  -0.00     0.01  -0.01  -0.01
   2   6     0.00  -0.00  -0.00    -0.00   0.00   0.00    -0.00   0.00   0.00
   3   6    -0.01   0.00  -0.00    -0.01   0.01  -0.02     0.01  -0.00  -0.00
   4   6    -0.01   0.03  -0.04     0.01   0.00  -0.01     0.03  -0.08   0.10
   5   6     0.01  -0.01   0.01    -0.04   0.09  -0.11    -0.05   0.07  -0.09
   6   6     0.01  -0.04   0.04     0.00  -0.05   0.06    -0.02   0.06  -0.06
   7   6     0.04  -0.07  -0.07     0.03  -0.04  -0.04    -0.05   0.09   0.09
   8   6     0.00  -0.03   0.03     0.07  -0.05  -0.05     0.01  -0.06  -0.04
   9   6    -0.06  -0.11   0.14     0.02   0.12   0.06    -0.04  -0.08   0.03
  10   1     0.00   0.00  -0.00    -0.00  -0.00   0.00     0.00  -0.00  -0.00
  11   1     0.00  -0.01  -0.00     0.00   0.00   0.00    -0.00   0.03   0.01
  12   1     0.01  -0.00  -0.01    -0.01   0.00   0.00    -0.02  -0.00   0.02
  13   1    -0.00  -0.00   0.00     0.00   0.00  -0.01     0.00   0.00  -0.01
  14   1     0.00   0.00   0.00    -0.00  -0.01  -0.00    -0.00  -0.01  -0.01
  15   1     0.00  -0.01  -0.00     0.00  -0.06   0.01    -0.01  -0.02   0.01
  16   1     0.01   0.00   0.01     0.02  -0.00   0.05    -0.01  -0.00   0.02
  17   1    -0.00  -0.10   0.03    -0.02   0.01  -0.00    -0.01   0.30  -0.09
  18   1     0.03   0.00   0.11    -0.01   0.00  -0.00    -0.09  -0.00  -0.31
  19   1    -0.01   0.03  -0.00     0.05  -0.36   0.10     0.05  -0.28   0.07
  20   1    -0.01  -0.00  -0.03     0.13   0.01   0.35     0.10   0.01   0.27
  21   1     0.00   0.15  -0.05     0.00   0.18  -0.05    -0.01  -0.20   0.06
  22   1    -0.05  -0.00  -0.14    -0.05   0.00  -0.18     0.06   0.00   0.19
  23   1    -0.13   0.01   0.21    -0.07   0.00   0.09     0.20  -0.01  -0.27
  24   1    -0.04   0.24   0.04    -0.00   0.11   0.03     0.03  -0.33  -0.07
  25   1     0.01  -0.01   0.00    -0.16   0.01   0.22    -0.08  -0.00   0.14
  26   1    -0.03   0.02  -0.00    -0.06   0.25   0.04    -0.03   0.17   0.04
  27   1    -0.16  -0.04  -0.49     0.23   0.00  -0.22    -0.12  -0.02  -0.13
  28   1     0.27  -0.04   0.19    -0.10  -0.41  -0.21     0.15   0.10   0.15
  29   1     0.12   0.52  -0.29    -0.22  -0.09   0.16     0.13   0.23  -0.17
                     58                     59                     60
                        a                      a                      a 
 Frequencies --  1513.6738              1515.8645              1519.2069
 Red. masses --     1.9009                 1.7064                 2.0049
 Frc consts  --     0.0000                 0.0000                 0.0000
 IR Inten    --     0.3038                 3.1456                 0.9589
 Raman Activ --     0.0000                 0.0000                 0.0000
 Depolar     --     0.0000                 0.0000                 0.0000
 Atom AN      X      Y      Z        X      Y      Z        X      Y      Z
   1   7     0.00  -0.01  -0.01    -0.00   0.00   0.01    -0.00   0.01   0.01
   2   6    -0.00   0.00   0.00     0.00  -0.00  -0.00     0.00  -0.00  -0.00
   3   6     0.03  -0.02   0.02    -0.01  -0.00   0.01    -0.02   0.01  -0.01
   4   6     0.02  -0.10   0.14    -0.03   0.06  -0.08    -0.01   0.09  -0.13
   5   6     0.00  -0.05   0.07     0.03  -0.05   0.06    -0.05   0.06  -0.07
   6   6    -0.01   0.08  -0.11    -0.01   0.04  -0.03    -0.04   0.12  -0.16
   7   6     0.04  -0.07  -0.08    -0.08   0.10   0.09     0.04  -0.05  -0.06
   8   6     0.01   0.03   0.05     0.01   0.01   0.02     0.03  -0.03  -0.02
   9   6     0.01   0.06   0.07    -0.00   0.07   0.11    -0.01  -0.02  -0.03
  10   1     0.00   0.00  -0.00     0.00   0.00   0.00    -0.00   0.00   0.00
  11   1    -0.00   0.03   0.01     0.00  -0.03  -0.01     0.00  -0.03  -0.01
  12   1    -0.01  -0.00   0.02     0.02  -0.00  -0.02     0.01   0.00  -0.02
  13   1    -0.00  -0.00  -0.01    -0.00  -0.00   0.01     0.00  -0.00   0.01
  14   1    -0.00  -0.00  -0.00     0.00   0.01   0.00     0.00   0.00   0.00
  15   1    -0.02   0.05  -0.00     0.01   0.03  -0.01     0.01  -0.02  -0.00
  16   1    -0.03  -0.00  -0.05    -0.00   0.00  -0.03     0.02   0.00   0.02
  17   1     0.00   0.36  -0.11     0.01  -0.26   0.08     0.00  -0.33   0.10
  18   1    -0.10  -0.01  -0.37     0.09   0.00   0.26     0.09   0.00   0.34
  19   1    -0.01   0.20  -0.06    -0.03   0.22  -0.06     0.04  -0.19   0.04
  20   1    -0.05  -0.01  -0.20    -0.09  -0.00  -0.21     0.09   0.01   0.18
  21   1     0.01  -0.31   0.08    -0.00  -0.13   0.04     0.01  -0.47   0.13
  22   1     0.09  -0.00   0.31     0.04   0.00   0.13     0.14  -0.00   0.46
  23   1    -0.14   0.01   0.21     0.23  -0.02  -0.32    -0.12   0.01   0.17
  24   1    -0.03   0.25   0.04     0.05  -0.38  -0.07    -0.03   0.20   0.03
  25   1     0.01   0.00  -0.07    -0.04   0.01   0.02    -0.06   0.00   0.07
  26   1    -0.01  -0.06  -0.02    -0.02   0.03   0.01    -0.02   0.09   0.02
  27   1     0.13  -0.01  -0.23     0.15  -0.01  -0.36    -0.03   0.00   0.07
  28   1    -0.03  -0.28  -0.12     0.01  -0.36  -0.12     0.01   0.08   0.03
  29   1    -0.14   0.03   0.07    -0.15   0.10   0.04     0.04  -0.02  -0.02
                     61                     62                     63
                        a                      a                      a 
 Frequencies --  1525.6280              2912.4290              2916.2881
 Red. masses --     1.9776                 1.9004                 1.8887
 Frc consts  --     0.0000                 0.0000                 0.0000
 IR Inten    --     0.1862                 7.5308                24.0923
 Raman Activ --     0.0000                 0.0000                 0.0000
 Depolar     --     0.0000                 0.0000                 0.0000
 Atom AN      X      Y      Z        X      Y      Z        X      Y      Z
   1   7     0.00   0.00   0.00    -0.00   0.00   0.00    -0.00   0.00   0.00
   2   6     0.00   0.00  -0.00    -0.00  -0.00   0.00    -0.00  -0.00   0.00
   3   6    -0.01   0.01  -0.01    -0.00  -0.01  -0.00    -0.00  -0.01  -0.00
   4   6     0.01   0.01  -0.02     0.00   0.02   0.01     0.01   0.02   0.02
   5   6    -0.04   0.07  -0.09    -0.01  -0.03  -0.02    -0.02  -0.07  -0.04
   6   6    -0.01   0.01  -0.00     0.02   0.05   0.05     0.06   0.18   0.17
   7   6    -0.03   0.02   0.00     0.06   0.10  -0.08    -0.02  -0.05   0.03
   8   6    -0.10   0.16   0.18    -0.07  -0.18   0.11     0.02   0.04  -0.04
   9   6     0.02   0.02   0.05     0.00   0.01  -0.01    -0.00  -0.00   0.00
  10   1    -0.00  -0.00   0.00     0.00   0.00   0.00     0.00   0.00   0.00
  11   1     0.00   0.00   0.00    -0.00   0.00  -0.00     0.00   0.00  -0.00
  12   1    -0.00   0.00   0.00    -0.00  -0.00  -0.00    -0.00  -0.00  -0.00
  13   1    -0.00   0.00  -0.00     0.00   0.01   0.00     0.00   0.00   0.00
  14   1    -0.00  -0.00  -0.00     0.01   0.00  -0.01     0.00   0.00  -0.00
  15   1     0.00  -0.03   0.01     0.01   0.00   0.02     0.01   0.00   0.02
  16   1     0.01  -0.00   0.03     0.00   0.02  -0.00     0.00   0.02  -0.00
  17   1    -0.01  -0.02   0.01    -0.02  -0.02  -0.06    -0.02  -0.02  -0.07
  18   1    -0.00   0.00   0.02     0.00  -0.06   0.00     0.00  -0.07   0.00
  19   1     0.03  -0.29   0.08     0.03   0.03   0.10     0.06   0.05   0.19
  20   1     0.10   0.01   0.28    -0.00   0.10  -0.00    -0.00   0.22  -0.01
  21   1     0.01  -0.02   0.00    -0.07  -0.06  -0.20    -0.22  -0.18  -0.64
  22   1     0.01   0.00   0.02    -0.00  -0.11   0.01    -0.01  -0.48   0.02
  23   1     0.05   0.00  -0.03    -0.00  -0.29   0.00     0.00   0.21  -0.01
  24   1     0.02  -0.05   0.00    -0.22  -0.08   0.32     0.06   0.02  -0.09
  25   1     0.31  -0.01  -0.50    -0.01   0.56  -0.00     0.00  -0.13  -0.00
  26   1     0.08  -0.57  -0.12     0.27   0.12  -0.42    -0.09  -0.04   0.13
  27   1     0.02  -0.00  -0.12     0.00  -0.05   0.00    -0.00   0.01  -0.00
  28   1    -0.02  -0.11  -0.05    -0.03  -0.01   0.03     0.01   0.00  -0.01
  29   1    -0.07   0.05   0.02     0.00   0.00  -0.00     0.00  -0.00   0.00
                     64                     65                     66
                        a                      a                      a 
 Frequencies --  2919.0068              2926.6635              2937.5289
 Red. masses --     1.8988                 1.9609                 1.9395
 Frc consts  --     0.0000                 0.0000                 0.0000
 IR Inten    --    13.7119                54.7229                32.8694
 Raman Activ --     0.0000                 0.0000                 0.0000
 Depolar     --     0.0000                 0.0000                 0.0000
 Atom AN      X      Y      Z        X      Y      Z        X      Y      Z
   1   7     0.00   0.00  -0.00    -0.00  -0.00   0.00     0.00   0.00  -0.00
   2   6    -0.00  -0.00   0.00     0.00   0.00  -0.00    -0.00  -0.02   0.01
   3   6     0.02   0.05   0.04    -0.00  -0.00  -0.00     0.03   0.10   0.07
   4   6    -0.06  -0.18  -0.17     0.00   0.01   0.01    -0.01  -0.04  -0.05
   5   6     0.01   0.06   0.04    -0.00   0.02  -0.00    -0.04  -0.21  -0.11
   6   6     0.02   0.04   0.05    -0.01   0.01  -0.02    -0.02  -0.04  -0.06
   7   6     0.00  -0.00  -0.00    -0.10  -0.16   0.14    -0.01   0.00   0.02
   8   6    -0.01  -0.02   0.01    -0.04  -0.14   0.07    -0.01   0.01   0.02
   9   6     0.00   0.00   0.00     0.01   0.01  -0.01    -0.00  -0.00  -0.00
  10   1    -0.00   0.00   0.00    -0.00   0.00  -0.00    -0.00   0.00   0.00
  11   1    -0.00  -0.01   0.01     0.00   0.00  -0.00    -0.00  -0.00   0.00
  12   1     0.00  -0.00  -0.00     0.00   0.00   0.00    -0.00  -0.00  -0.00
  13   1    -0.00   0.01  -0.00    -0.00  -0.00  -0.00     0.00   0.06  -0.00
  14   1     0.00   0.00  -0.01    -0.00  -0.00   0.00     0.01   0.00  -0.02
  15   1    -0.05  -0.04  -0.16     0.00   0.00   0.01    -0.09  -0.06  -0.25
  16   1    -0.00  -0.15   0.00    -0.00   0.00  -0.00    -0.01  -0.29  -0.00
  17   1     0.21   0.20   0.67    -0.01  -0.01  -0.03     0.05   0.05   0.17
  18   1     0.00   0.47  -0.03    -0.00  -0.01   0.00     0.00   0.06  -0.01
  19   1    -0.05  -0.04  -0.15     0.00   0.00   0.00     0.13   0.10   0.39
  20   1     0.00  -0.19   0.01     0.00  -0.08  -0.00     0.00   0.66  -0.01
  21   1    -0.06  -0.05  -0.18     0.04   0.04   0.11     0.08   0.07   0.23
  22   1     0.00  -0.09   0.00    -0.00  -0.10  -0.01    -0.00   0.05  -0.01
  23   1     0.00   0.01  -0.00    -0.00   0.42  -0.00    -0.00  -0.04   0.01
  24   1    -0.01  -0.01   0.02     0.36   0.14  -0.52     0.05   0.03  -0.08
  25   1    -0.00   0.06  -0.00    -0.01   0.43  -0.01    -0.00  -0.08   0.01
  26   1     0.02   0.01  -0.03     0.16   0.07  -0.24     0.05   0.03  -0.08
  27   1     0.00  -0.01   0.00     0.00  -0.05   0.00    -0.00   0.00  -0.00
  28   1    -0.00  -0.00   0.00    -0.03  -0.01   0.04    -0.00  -0.00   0.01
  29   1    -0.00  -0.00  -0.00     0.00   0.00  -0.00     0.00   0.00   0.01
                     67                     68                     69
                        a                      a                      a 
 Frequencies --  2944.7939              2947.8015              2950.6824
 Red. masses --     1.9478                 1.4843                 1.9198
 Frc consts  --     0.0000                 0.0000                 0.0000
 IR Inten    --    38.9970                 9.9110                 1.4589
 Raman Activ --     0.0000                 0.0000                 0.0000
 Depolar     --     0.0000                 0.0000                 0.0000
 Atom AN      X      Y      Z        X      Y      Z        X      Y      Z
   1   7     0.00   0.00   0.00    -0.00  -0.00   0.00    -0.00  -0.00   0.00
   2   6     0.01   0.05  -0.02     0.01   0.01  -0.01     0.13   0.18  -0.17
   3   6    -0.06  -0.19  -0.15     0.00   0.01   0.01     0.02   0.01   0.05
   4   6    -0.03  -0.06  -0.08     0.00  -0.00   0.01     0.00  -0.02   0.02
   5   6    -0.01  -0.08  -0.03    -0.01   0.03  -0.02    -0.00  -0.00  -0.02
   6   6    -0.01  -0.01  -0.02     0.00  -0.01   0.00     0.00  -0.01   0.01
   7   6    -0.01   0.00   0.01     0.03  -0.09  -0.04    -0.00   0.00   0.00
   8   6    -0.01   0.01   0.02    -0.09   0.09   0.13     0.00  -0.01  -0.01
   9   6    -0.00  -0.00  -0.00    -0.00  -0.01  -0.02     0.00   0.00   0.00
  10   1     0.00   0.00   0.00    -0.00  -0.00   0.00     0.00  -0.00   0.00
  11   1     0.00  -0.00   0.01     0.00   0.00  -0.00     0.01   0.01  -0.02
  12   1     0.00   0.01   0.00    -0.00   0.00   0.00    -0.00   0.01   0.00
  13   1    -0.01  -0.18   0.00     0.00  -0.01  -0.00    -0.01  -0.45  -0.01
  14   1    -0.03  -0.01   0.04    -0.02  -0.01   0.02    -0.46  -0.20   0.62
  15   1     0.19   0.12   0.51    -0.01  -0.01  -0.03    -0.08  -0.06  -0.21
  16   1     0.02   0.58   0.00    -0.00  -0.02   0.00     0.00   0.05   0.01
  17   1     0.09   0.10   0.30    -0.02  -0.02  -0.05    -0.02  -0.03  -0.07
  18   1    -0.00   0.08  -0.01     0.00   0.04   0.00     0.00   0.09   0.00
  19   1     0.04   0.03   0.11     0.02   0.03   0.07     0.02   0.02   0.06
  20   1    -0.00   0.26  -0.00    -0.00  -0.15  -0.00    -0.00  -0.02  -0.00
  21   1     0.03   0.03   0.09    -0.01  -0.01  -0.02    -0.01  -0.01  -0.03
  22   1    -0.00   0.01  -0.00     0.00   0.05   0.00     0.00   0.04   0.00
  23   1    -0.00  -0.02   0.00     0.02   0.40  -0.03    -0.00  -0.02   0.00
  24   1     0.03   0.01  -0.04    -0.12  -0.07   0.18     0.00   0.00  -0.00
  25   1    -0.00  -0.08   0.01    -0.02  -0.53   0.04     0.00   0.04  -0.00
  26   1     0.04   0.03  -0.07     0.34   0.20  -0.51    -0.02  -0.01   0.03
  27   1    -0.00   0.00  -0.00    -0.00   0.03  -0.01     0.00  -0.00   0.00
  28   1    -0.00  -0.00   0.01    -0.03  -0.02   0.04     0.00   0.00  -0.00
  29   1     0.00   0.00   0.01     0.02   0.02   0.04    -0.00  -0.00  -0.01
                     70                     71                     72
                        a                      a                      a 
 Frequencies --  2952.3386              2956.3254              2959.3522
 Red. masses --     1.5193                 1.4995                 1.5926
 Frc consts  --     0.0000                 0.0000                 0.0000
 IR Inten    --    12.5766                15.1521                94.3605
 Raman Activ --     0.0000                 0.0000                 0.0000
 Depolar     --     0.0000                 0.0000                 0.0000
 Atom AN      X      Y      Z        X      Y      Z        X      Y      Z
   1   7     0.00   0.00  -0.00     0.00  -0.00   0.00    -0.00   0.00  -0.00
   2   6    -0.01  -0.01   0.01    -0.01  -0.01   0.01     0.01   0.00  -0.01
   3   6     0.01  -0.01   0.02    -0.02   0.01  -0.05     0.01  -0.00   0.03
   4   6    -0.01   0.07  -0.05     0.02  -0.14   0.08    -0.00   0.06  -0.02
   5   6    -0.02   0.01  -0.04    -0.02   0.01  -0.07     0.02   0.03   0.05
   6   6     0.03  -0.15   0.10     0.01  -0.02   0.03    -0.00   0.09  -0.01
   7   6    -0.03   0.01   0.05    -0.03   0.07   0.05    -0.05   0.13   0.07
   8   6    -0.01   0.00   0.02    -0.01   0.02   0.02    -0.04   0.06   0.06
   9   6     0.00  -0.00  -0.01    -0.00  -0.01  -0.01    -0.00  -0.02  -0.03
  10   1     0.00   0.00   0.00    -0.00   0.00  -0.00     0.00  -0.00   0.00
  11   1    -0.00  -0.00   0.01     0.00   0.00  -0.01    -0.00  -0.00   0.00
  12   1     0.00  -0.00   0.00    -0.00  -0.00   0.00    -0.00   0.00   0.00
  13   1     0.00   0.01   0.00    -0.00   0.03   0.00     0.00  -0.01  -0.00
  14   1     0.02   0.01  -0.03     0.03   0.01  -0.04    -0.02  -0.01   0.03
  15   1    -0.03  -0.03  -0.09     0.07   0.06   0.20    -0.05  -0.04  -0.13
  16   1     0.00   0.06   0.00    -0.01  -0.12  -0.01     0.00   0.05   0.01
  17   1     0.05   0.07   0.18    -0.10  -0.14  -0.33     0.02   0.03   0.07
  18   1    -0.01  -0.34  -0.01     0.02   0.64   0.02    -0.01  -0.25  -0.01
  19   1     0.05   0.05   0.15     0.09   0.10   0.27    -0.07  -0.07  -0.21
  20   1    -0.00  -0.08  -0.01    -0.00  -0.16  -0.01     0.00  -0.04   0.01
  21   1    -0.14  -0.15  -0.40    -0.04  -0.04  -0.12     0.02   0.03   0.05
  22   1     0.03   0.68   0.03     0.01   0.13   0.01    -0.01  -0.35  -0.01
  23   1    -0.01  -0.12   0.01    -0.02  -0.33   0.03    -0.03  -0.57   0.05
  24   1     0.13   0.06  -0.19     0.14   0.08  -0.20     0.21   0.11  -0.30
  25   1    -0.00  -0.02   0.00    -0.00  -0.09   0.01    -0.01  -0.30   0.02
  26   1     0.04   0.02  -0.05     0.04   0.02  -0.06     0.15   0.09  -0.23
  27   1    -0.00   0.01  -0.00    -0.00   0.04  -0.00    -0.00   0.08  -0.01
  28   1    -0.01  -0.01   0.02    -0.01  -0.01   0.02    -0.03  -0.02   0.04
  29   1     0.01   0.01   0.01     0.01   0.01   0.03     0.04   0.03   0.07
                     73                     74                     75
                        a                      a                      a 
 Frequencies --  2966.0433              2973.9620              2979.9702
 Red. masses --     1.5488                 1.5497                 1.5777
 Frc consts  --     0.0000                 0.0000                 0.0000
 IR Inten    --    16.4980                87.4096                11.5950
 Raman Activ --     0.0000                 0.0000                 0.0000
 Depolar     --     0.0000                 0.0000                 0.0000
 Atom AN      X      Y      Z        X      Y      Z        X      Y      Z
   1   7    -0.00  -0.00  -0.00    -0.00  -0.00   0.00     0.00  -0.00   0.00
   2   6    -0.03  -0.02   0.04    -0.03   0.01   0.05    -0.06   0.19   0.09
   3   6     0.04  -0.09   0.10     0.03  -0.09   0.10    -0.00   0.06  -0.00
   4   6    -0.01  -0.00  -0.01     0.02  -0.07   0.06     0.00   0.02  -0.00
   5   6    -0.04   0.05  -0.13     0.03  -0.06   0.10    -0.00   0.01  -0.01
   6   6    -0.01   0.04  -0.04     0.01  -0.04   0.03    -0.00   0.01  -0.00
   7   6     0.01   0.01  -0.01    -0.00  -0.02   0.01     0.00   0.00  -0.00
   8   6     0.01  -0.00  -0.02    -0.01  -0.00   0.01     0.00   0.00  -0.00
   9   6    -0.00  -0.00   0.01     0.00   0.01  -0.01    -0.00  -0.00   0.00
  10   1     0.00  -0.00   0.00     0.00  -0.00   0.00    -0.00   0.00   0.00
  11   1    -0.00  -0.00   0.01    -0.00  -0.00  -0.00    -0.01  -0.00   0.01
  12   1     0.00   0.00   0.00     0.00   0.01   0.00     0.00   0.02   0.00
  13   1    -0.00   0.01   0.00    -0.01  -0.09   0.01    -0.05  -0.82   0.02
  14   1     0.11   0.05  -0.14     0.13   0.06  -0.17     0.25   0.15  -0.35
  15   1    -0.15  -0.13  -0.40    -0.14  -0.12  -0.39     0.01   0.02   0.02
  16   1     0.02   0.47   0.03     0.02   0.43   0.03    -0.01  -0.23  -0.01
  17   1     0.01   0.01   0.04    -0.07  -0.08  -0.21     0.00   0.01   0.01
  18   1    -0.00  -0.00  -0.00     0.01   0.31   0.01    -0.00  -0.07  -0.00
  19   1     0.16   0.18   0.48    -0.13  -0.14  -0.38     0.01   0.01   0.04
  20   1    -0.01  -0.37  -0.02     0.01   0.35   0.02    -0.00  -0.05  -0.00
  21   1     0.05   0.05   0.14    -0.04  -0.04  -0.12     0.00   0.00   0.01
  22   1    -0.01  -0.18  -0.01     0.01   0.16   0.01    -0.00  -0.03  -0.00
  23   1     0.00  -0.03  -0.00     0.00   0.05  -0.00    -0.00  -0.01   0.00
  24   1    -0.03  -0.01   0.04     0.02   0.01  -0.02    -0.00  -0.00   0.00
  25   1     0.00   0.03  -0.00    -0.00  -0.00   0.00    -0.00  -0.00  -0.00
  26   1    -0.05  -0.03   0.08     0.03   0.01  -0.04    -0.00   0.00   0.00
  27   1    -0.00   0.01   0.00     0.00  -0.02   0.00    -0.00   0.00  -0.00
  28   1     0.02   0.01  -0.02    -0.02  -0.01   0.02     0.00   0.00  -0.00
  29   1    -0.01  -0.01  -0.01     0.00   0.00   0.00     0.00   0.00   0.00
                     76                     77                     78
                        a                      a                      a 
 Frequencies --  2991.5340              2996.7511              3011.2528
 Red. masses --     1.8951                 1.9399                 1.3041
 Frc consts  --     0.0000                 0.0000                 0.0000
 IR Inten    --    48.2517                52.0558                33.7661
 Raman Activ --     0.0000                 0.0000                 0.0000
 Depolar     --     0.0000                 0.0000                 0.0000
 Atom AN      X      Y      Z        X      Y      Z        X      Y      Z
   1   7    -0.00   0.00  -0.00     0.00  -0.00   0.00    -0.00   0.00   0.00
   2   6     0.00  -0.00  -0.00     0.00   0.00  -0.00    -0.00   0.00   0.00
   3   6     0.00  -0.00   0.00    -0.00   0.00  -0.00     0.00  -0.00   0.00
   4   6    -0.00  -0.00  -0.00    -0.00   0.00  -0.00    -0.00  -0.00  -0.00
   5   6    -0.00  -0.00  -0.00    -0.00   0.00  -0.01    -0.00  -0.00  -0.00
   6   6    -0.00  -0.00  -0.00    -0.00   0.00  -0.00    -0.00  -0.00  -0.00
   7   6     0.01  -0.01  -0.01     0.00   0.01  -0.00     0.00  -0.01  -0.01
   8   6     0.01  -0.02  -0.02     0.01   0.03  -0.02     0.01  -0.01  -0.01
   9   6    -0.06  -0.14  -0.24     0.09   0.23  -0.15     0.14  -0.08  -0.05
  10   1     0.00  -0.00   0.00    -0.00  -0.00   0.00     0.00  -0.00   0.00
  11   1     0.00   0.00   0.00     0.00   0.00  -0.00    -0.00   0.00  -0.00
  12   1    -0.00  -0.00   0.00    -0.00   0.00  -0.00    -0.00   0.00  -0.00
  13   1     0.00   0.00   0.00     0.00  -0.00   0.00    -0.00  -0.00   0.00
  14   1    -0.00  -0.00   0.00    -0.00  -0.00   0.00     0.00   0.00  -0.00
  15   1    -0.00  -0.00  -0.00     0.00   0.00   0.01    -0.00  -0.00  -0.00
  16   1     0.00   0.00   0.00    -0.00  -0.01  -0.00     0.00   0.00   0.00
  17   1     0.00   0.00   0.01     0.00   0.00   0.01     0.00   0.00   0.00
  18   1    -0.00   0.00  -0.00    -0.00  -0.01  -0.00    -0.00  -0.00  -0.00
  19   1     0.00   0.00   0.01     0.01   0.01   0.02     0.00   0.00   0.00
  20   1     0.00   0.00  -0.00    -0.00  -0.02  -0.00     0.00   0.00  -0.00
  21   1     0.00   0.00   0.01     0.00   0.00   0.01     0.00   0.00   0.01
  22   1    -0.00   0.01  -0.00    -0.00  -0.02  -0.00    -0.00   0.00  -0.00
  23   1     0.00   0.06  -0.01    -0.00  -0.03   0.00     0.00   0.03  -0.00
  24   1    -0.03  -0.02   0.04    -0.01  -0.00   0.01    -0.01  -0.01   0.02
  25   1     0.00   0.09  -0.01    -0.00  -0.06   0.00     0.00   0.04  -0.00
  26   1    -0.04  -0.03   0.07    -0.04  -0.02   0.06    -0.02  -0.01   0.03
  27   1    -0.01   0.25  -0.05     0.02  -0.68   0.02     0.01   0.62  -0.04
  28   1    -0.14  -0.09   0.16    -0.36  -0.16   0.53    -0.35  -0.20   0.52
  29   1     0.38   0.33   0.73     0.03   0.05   0.00    -0.14  -0.15  -0.32
                     79                     80                     81
                        a                      a                      a 
 Frequencies --  3200.8698              3207.4262              3227.5489
 Red. masses --     2.0247                 2.0416                 1.2843
 Frc consts  --     0.0000                 0.0000                 0.0000
 IR Inten    --    97.4255                82.9539                21.9487
 Raman Activ --     0.0000                 0.0000                 0.0000
 Depolar     --     0.0000                 0.0000                 0.0000
 Atom AN      X      Y      Z        X      Y      Z        X      Y      Z
   1   7    -0.25   0.09   0.08     0.05   0.25  -0.13    -0.03  -0.07  -0.12
   2   6    -0.00   0.00   0.00     0.00   0.01  -0.00    -0.00  -0.01  -0.01
   3   6     0.00   0.00  -0.00     0.00  -0.00   0.00     0.00   0.00  -0.00
   4   6    -0.00  -0.00  -0.00     0.00   0.00   0.00     0.00   0.00   0.00
   5   6    -0.00   0.00  -0.00     0.00  -0.00   0.00     0.00   0.00  -0.00
   6   6    -0.00  -0.00  -0.00    -0.00  -0.00   0.00     0.00  -0.00   0.00
   7   6    -0.00   0.00   0.00     0.00  -0.00   0.00    -0.00   0.00   0.00
   8   6    -0.00  -0.00  -0.00    -0.00   0.00  -0.00     0.00   0.00   0.00
   9   6    -0.00   0.00   0.00     0.00   0.00  -0.00    -0.00  -0.00  -0.00
  10   1     0.77  -0.30   0.06     0.18  -0.04  -0.00     0.43  -0.17   0.02
  11   1     0.21   0.15  -0.36    -0.32  -0.17   0.50    -0.31  -0.19   0.47
  12   1    -0.03  -0.18   0.01    -0.02  -0.71  -0.02     0.02   0.64  -0.01
  13   1     0.00  -0.01   0.00    -0.00  -0.02   0.00     0.00   0.02  -0.00
  14   1     0.01   0.00  -0.01    -0.01  -0.00   0.01    -0.01  -0.00   0.01
  15   1    -0.00   0.00   0.00    -0.00  -0.00  -0.00     0.00   0.00   0.00
  16   1     0.00  -0.00   0.00     0.00   0.00   0.00    -0.00  -0.01  -0.00
  17   1     0.00   0.00   0.01    -0.00  -0.00  -0.01    -0.00  -0.00  -0.01
  18   1    -0.00   0.00  -0.00     0.00   0.00   0.00     0.00   0.00   0.00
  19   1     0.00   0.00   0.00    -0.00  -0.00  -0.00    -0.00   0.00   0.00
  20   1     0.00  -0.00  -0.00    -0.00   0.00  -0.00     0.00  -0.00   0.00
  21   1     0.00   0.00   0.00     0.00  -0.00  -0.00    -0.00  -0.00  -0.00
  22   1    -0.00   0.00  -0.00     0.00   0.00   0.00     0.00   0.00   0.00
  23   1    -0.00  -0.00  -0.00    -0.00   0.00  -0.00     0.00  -0.00   0.00
  24   1     0.00   0.00  -0.00    -0.00   0.00   0.00     0.00   0.00  -0.00
  25   1     0.00   0.00  -0.00     0.00  -0.00   0.00    -0.00  -0.00  -0.00
  26   1     0.00   0.00  -0.00    -0.00  -0.00   0.00    -0.00   0.00  -0.00
  27   1    -0.00  -0.00  -0.00    -0.00  -0.00  -0.00     0.00   0.00   0.00
  28   1     0.00   0.00  -0.00    -0.00  -0.00   0.00    -0.00  -0.00   0.00
  29   1    -0.00  -0.00  -0.00    -0.00  -0.00  -0.00     0.00   0.00   0.00
