 Entering Gaussian System
 *********************************************
 Gaussian 98:
 frequency output generated by the xtb code
 *********************************************
                         Standard orientation:
 --------------------------------------------------------------------
  Center     Atomic     Atomic              Coordinates (Angstroms)
  Number     Number      Type              X           Y           Z
 --------------------------------------------------------------------
    1          7             0       -5.515353   -2.324232   -0.194697
    2          6             0       -5.800604   -0.953189    0.315812
    3          6             0       -4.832901    0.095815   -0.222813
    4          6             0       -3.397190   -0.087102    0.269382
    5          6             0       -2.451416    1.009243   -0.224423
    6          6             0       -1.015035    0.841306    0.274332
    7          6             0       -0.083630    1.956680   -0.203153
    8          6             0        1.345981    1.847964    0.336292
    9          6             0        2.123503    0.646579   -0.203499
   10          6             0        3.570794    0.600612    0.289917
   11          6             0        4.360846   -0.586343   -0.263284
   12          6             0        5.810498   -0.625110    0.224341
   13          6             0        6.594210   -1.803305   -0.332760
   14          1             0       -6.208406   -3.009788    0.143747
   15          1             0       -4.586014   -2.655276    0.103971
   16          1             0       -5.536497   -2.346793   -1.225317
   17          1             0       -5.769591   -0.958857    1.411842
   18          1             0       -6.831804   -0.685314    0.051735
   19          1             0       -5.179755    1.099917    0.051306
   20          1             0       -4.848005    0.075383   -1.318473
   21          1             0       -3.016576   -1.065214   -0.044708
   22          1             0       -3.386456   -0.113530    1.365152
   23          1             0       -2.834000    1.988465    0.086086
   24          1             0       -2.459219    1.035261   -1.320253
   25          1             0       -0.629511   -0.132537   -0.046868
   26          1             0       -1.010141    0.804558    1.369842
   27          1             0       -0.515414    2.923623    0.083987
   28          1             0       -0.060934    1.969058   -1.298943
   29          1             0        1.321765    1.805326    1.431262
   30          1             0        1.902135    2.763380    0.098739
   31          1             0        2.111439    0.665537   -1.299439
   32          1             0        1.615039   -0.283758    0.072615
   33          1             0        3.584628    0.572964    1.385627
   34          1             0        4.078858    1.534299    0.022203
   35          1             0        4.343693   -0.559825   -1.359024
   36          1             0        3.857222   -1.521570    0.007389
   37          1             0        5.822932   -0.650708    1.321281
   38          1             0        6.307472    0.315997   -0.043093
   39          1             0        6.626986   -1.776247   -1.423320
   40          1             0        6.137786   -2.752472   -0.047177
   41          1             0        7.625891   -1.815040    0.025417
 --------------------------------------------------------------------
     1 basis functions        1 primitive gaussians
     1 alpha electrons        1 beta electrons

 Harmonic frequencies (cm**-1), IR intensities (km*mol⁻¹),
 Raman scattering activities (A**4/amu), Raman depolarization ratios,
 reduced masses (AMU), force constants (mDyne/A) and normal coordinates:
                      1                      2                      3
                        a                      a                      a 
 Frequencies --    40.0107                58.5210                69.6738
 Red. masses --    10.2036                 7.2709                 9.7328
 Frc consts  --     0.0000                 0.0000                 0.0000
 IR Inten    --    10.2777                 0.8179                 6.8542
 Raman Activ --     0.0000                 0.0000                 0.0000
 Depolar     --     0.0000                 0.0000                 0.0000
 Atom AN      X      Y      Z        X      Y      Z        X      Y      Z
   1   7     0.38  -0.19  -0.03    -0.09   0.06  -0.12     0.04  -0.04   0.38
   2   6     0.18  -0.20  -0.07     0.10  -0.07   0.31     0.06   0.08   0.05
   3   6     0.10  -0.11  -0.04    -0.02   0.04   0.29     0.04  -0.04  -0.22
   4   6     0.09   0.07   0.06     0.13  -0.19  -0.23     0.08  -0.06  -0.35
   5   6     0.01   0.13   0.07     0.00   0.01  -0.04     0.05  -0.00  -0.27
   6   6     0.01   0.22   0.10     0.08  -0.10  -0.29     0.02  -0.01  -0.19
   7   6    -0.01   0.22   0.04    -0.00   0.07  -0.05     0.03   0.10   0.08
   8   6     0.01   0.20  -0.03    -0.01   0.07  -0.03    -0.03   0.04   0.23
   9   6    -0.06   0.16  -0.05     0.04   0.15  -0.13    -0.05   0.01   0.26
  10   6    -0.06   0.06  -0.06    -0.02   0.06   0.01    -0.04  -0.03   0.23
  11   6    -0.18  -0.04  -0.02    -0.01   0.07  -0.02    -0.09  -0.01   0.11
  12   6    -0.19  -0.19  -0.00    -0.08  -0.08   0.17    -0.03  -0.03  -0.07
  13   6    -0.31  -0.29   0.03    -0.09  -0.07   0.14    -0.09   0.02  -0.28
  14   1     0.12  -0.07  -0.02    -0.01  -0.00  -0.03     0.02   0.01   0.16
  15   1     0.11  -0.02   0.01    -0.01  -0.02  -0.12     0.02   0.01   0.11
  16   1     0.12  -0.06  -0.01    -0.10   0.09  -0.03    -0.00  -0.08   0.10
  17   1     0.04  -0.05  -0.02     0.12  -0.10   0.09     0.03   0.09   0.01
  18   1     0.05  -0.09  -0.04     0.01   0.01   0.19     0.01   0.00   0.01
  19   1    -0.01  -0.04  -0.03     0.03  -0.01   0.20     0.03   0.00  -0.08
  20   1     0.05  -0.04  -0.01    -0.11   0.10   0.08    -0.03  -0.05  -0.06
  21   1     0.06   0.03   0.04     0.00  -0.02  -0.22     0.02  -0.01  -0.14
  22   1     0.01   0.03   0.02     0.13  -0.18  -0.07     0.05  -0.05  -0.10
  23   1    -0.02   0.03   0.02     0.00  -0.03   0.09     0.00  -0.01  -0.07
  24   1     0.01   0.04   0.02    -0.04   0.10  -0.01     0.03   0.02  -0.08
  25   1     0.01   0.06   0.04     0.02   0.00  -0.18     0.02   0.02  -0.09
  26   1     0.00   0.08   0.03     0.06  -0.12  -0.09    -0.02  -0.05  -0.06
  27   1     0.00   0.07   0.01    -0.02  -0.01   0.04    -0.01   0.01   0.05
  28   1    -0.02   0.06   0.01     0.01   0.08  -0.01     0.04   0.08   0.03
  29   1     0.02   0.06  -0.01    -0.01  -0.01  -0.01    -0.04   0.00   0.06
  30   1     0.01   0.05  -0.02    -0.01   0.03   0.02     0.01   0.00   0.08
  31   1    -0.02   0.05  -0.01     0.04   0.09  -0.04    -0.02  -0.01   0.08
  32   1    -0.03   0.05  -0.02     0.00   0.03  -0.09    -0.02   0.01   0.09
  33   1    -0.02   0.03  -0.02    -0.04  -0.01   0.00     0.00  -0.03   0.06
  34   1     0.01   0.00  -0.03     0.01   0.02   0.04    -0.01  -0.01   0.07
  35   1    -0.05  -0.02  -0.01     0.04   0.06  -0.01    -0.06   0.01   0.03
  36   1    -0.08   0.01  -0.00    -0.03   0.02  -0.06    -0.02  -0.01   0.04
  37   1    -0.06  -0.05  -0.00    -0.07  -0.06   0.05     0.03  -0.04  -0.02
  38   1    -0.02  -0.07  -0.01     0.01  -0.03   0.10    -0.02  -0.00  -0.01
  39   1    -0.09  -0.09   0.01     0.01   0.01   0.04    -0.06   0.04  -0.08
  40   1    -0.12  -0.07   0.02    -0.05  -0.02  -0.00    -0.02  -0.00  -0.09
  41   1    -0.09  -0.11   0.01    -0.04  -0.05   0.07    -0.02  -0.00  -0.11
                      4                      5                      6
                        a                      a                      a 
 Frequencies --    77.1536                84.7439               100.4427
 Red. masses --     9.2048                 5.8078                 8.0070
 Frc consts  --     0.0000                 0.0000                 0.0000
 IR Inten    --     4.9435                 2.6212                 7.4577
 Raman Activ --     0.0000                 0.0000                 0.0000
 Depolar     --     0.0000                 0.0000                 0.0000
 Atom AN      X      Y      Z        X      Y      Z        X      Y      Z
   1   7    -0.27  -0.00   0.16     0.11  -0.04   0.20     0.33  -0.00   0.16
   2   6    -0.10   0.12  -0.10    -0.03   0.02  -0.04    -0.02   0.01  -0.06
   3   6     0.07  -0.09  -0.18    -0.03  -0.00  -0.08    -0.12   0.10  -0.05
   4   6     0.02  -0.15  -0.04    -0.06   0.09   0.05    -0.09   0.07  -0.16
   5   6     0.09  -0.19  -0.01    -0.04   0.04  -0.02    -0.13   0.24   0.14
   6   6     0.05  -0.12   0.12    -0.05   0.03   0.01    -0.07  -0.08  -0.14
   7   6    -0.02  -0.00   0.25    -0.01  -0.01  -0.01    -0.03   0.01   0.16
   8   6     0.02   0.02   0.17    -0.01  -0.08  -0.02    -0.03  -0.20   0.13
   9   6     0.11   0.23  -0.15     0.06   0.08  -0.27    -0.07  -0.13  -0.09
  10   6     0.12   0.21  -0.19    -0.08  -0.17   0.11    -0.03  -0.08  -0.19
  11   6     0.07   0.18  -0.19     0.08   0.07  -0.19     0.04  -0.06  -0.13
  12   6     0.02   0.00  -0.05    -0.09  -0.17   0.29     0.04   0.12  -0.10
  13   6    -0.13  -0.21   0.19     0.12   0.13  -0.06     0.11  -0.00   0.26
  14   1    -0.10   0.04   0.06     0.03  -0.01   0.06     0.10  -0.02   0.03
  15   1    -0.09  -0.02   0.07     0.03   0.02   0.09     0.09   0.06   0.10
  16   1    -0.05  -0.05   0.04     0.06  -0.05   0.05     0.14  -0.04   0.04
  17   1    -0.05   0.08  -0.03    -0.04   0.05  -0.01    -0.04   0.04  -0.02
  18   1    -0.01   0.06  -0.06    -0.01  -0.02  -0.05    -0.01  -0.06  -0.06
  19   1     0.04  -0.00  -0.10    -0.02   0.00  -0.06    -0.04   0.02   0.02
  20   1     0.04  -0.07  -0.05     0.02  -0.03  -0.02    -0.06   0.06  -0.01
  21   1     0.00  -0.05   0.01    -0.01   0.02   0.06    -0.01   0.05  -0.13
  22   1    -0.02  -0.03  -0.01    -0.04   0.07   0.02    -0.01  -0.07  -0.05
  23   1     0.01  -0.05  -0.03    -0.00   0.02  -0.03    -0.01   0.04   0.17
  24   1     0.05  -0.07  -0.00    -0.01  -0.01  -0.01    -0.09   0.20   0.04
  25   1     0.05  -0.02   0.03    -0.02   0.00   0.02    -0.06   0.00  -0.16
  26   1    -0.01  -0.05   0.04    -0.02   0.02   0.00     0.02  -0.14  -0.04
  27   1    -0.02  -0.02   0.11     0.01   0.00   0.00     0.01  -0.01   0.13
  28   1    -0.02   0.04   0.07    -0.01  -0.00  -0.00    -0.01   0.09   0.05
  29   1     0.02  -0.07   0.05    -0.01  -0.09  -0.01    -0.01  -0.12   0.03
  30   1    -0.03   0.04   0.10    -0.01  -0.00   0.06     0.00  -0.05   0.09
  31   1     0.02   0.14  -0.04     0.10   0.14  -0.08    -0.05  -0.01  -0.02
  32   1     0.06   0.03  -0.11    -0.02   0.00  -0.22    -0.00  -0.05  -0.04
  33   1     0.04   0.06  -0.06    -0.11  -0.19   0.03     0.01  -0.00  -0.05
  34   1     0.04   0.06  -0.06     0.00  -0.02   0.19    -0.02  -0.02  -0.08
  35   1     0.05   0.07  -0.06     0.13   0.17  -0.05     0.01  -0.04  -0.04
  36   1    -0.01   0.06  -0.08    -0.01  -0.01  -0.23     0.03  -0.02  -0.01
  37   1    -0.03   0.04  -0.01    -0.13  -0.21   0.08     0.00   0.12  -0.03
  38   1     0.06  -0.03  -0.04    -0.00  -0.01   0.27     0.00   0.02  -0.10
  39   1    -0.02  -0.11   0.05     0.14   0.20  -0.01     0.03  -0.10   0.07
  40   1    -0.08  -0.03   0.09     0.02  -0.01  -0.20     0.05   0.02   0.16
  41   1    -0.04  -0.09   0.07     0.00  -0.01   0.08     0.03   0.05   0.08
                      7                      8                      9
                        a                      a                      a 
 Frequencies --   122.0209               124.2910               134.6799
 Red. masses --     8.3136                 7.1807                 6.4943
 Frc consts  --     0.0000                 0.0000                 0.0000
 IR Inten    --     3.7302                 0.2957                 0.0896
 Raman Activ --     0.0000                 0.0000                 0.0000
 Depolar     --     0.0000                 0.0000                 0.0000
 Atom AN      X      Y      Z        X      Y      Z        X      Y      Z
   1   7     0.24   0.05  -0.08    -0.08  -0.03  -0.07     0.03  -0.00   0.00
   2   6    -0.00  -0.06   0.07     0.13  -0.08   0.20     0.02  -0.02   0.05
   3   6    -0.14   0.11   0.15    -0.03  -0.03   0.01    -0.05   0.02  -0.01
   4   6    -0.14   0.22   0.21     0.04   0.05  -0.17    -0.01  -0.01  -0.13
   5   6    -0.01  -0.13  -0.31     0.02   0.01  -0.29    -0.03   0.05  -0.04
   6   6    -0.04  -0.16  -0.24    -0.13   0.29   0.23    -0.07   0.09   0.11
   7   6    -0.00  -0.10  -0.04     0.02   0.12   0.13     0.01  -0.04  -0.02
   8   6    -0.08  -0.09   0.18     0.01  -0.10   0.12    -0.01  -0.03   0.02
   9   6     0.06   0.04   0.11    -0.05  -0.05  -0.11    -0.10  -0.24   0.34
  10   6     0.06   0.08   0.12    -0.08  -0.20  -0.01     0.10   0.14  -0.21
  11   6     0.08   0.19  -0.07     0.01  -0.09  -0.11     0.13   0.20  -0.30
  12   6     0.08   0.04  -0.09     0.02   0.09  -0.12    -0.02  -0.11   0.13
  13   6    -0.14  -0.16   0.02     0.12   0.03   0.16     0.00  -0.05   0.04
  14   1     0.11  -0.04  -0.02     0.04  -0.03   0.07     0.03  -0.01   0.03
  15   1     0.09   0.06  -0.05     0.03  -0.00  -0.17     0.03   0.02  -0.04
  16   1     0.04   0.04  -0.02    -0.18   0.02  -0.02    -0.03  -0.00   0.00
  17   1     0.00  -0.04   0.02     0.14  -0.06   0.06     0.03  -0.01   0.01
  18   1    -0.01  -0.05   0.03     0.01  -0.01   0.17    -0.00  -0.02   0.04
  19   1    -0.07   0.02   0.05    -0.01  -0.01   0.01    -0.01   0.00   0.02
  20   1    -0.02   0.04   0.04    -0.06  -0.02   0.00    -0.04   0.02  -0.00
  21   1    -0.07   0.01   0.19     0.00   0.01  -0.04    -0.01   0.01  -0.08
  22   1    -0.04   0.21   0.06     0.04   0.03  -0.05     0.01  -0.04  -0.04
  23   1     0.04   0.02  -0.21    -0.05   0.02  -0.20    -0.03   0.01  -0.02
  24   1    -0.01  -0.17  -0.09     0.10  -0.10  -0.09     0.02   0.01  -0.01
  25   1    -0.00  -0.04  -0.08     0.00   0.05   0.21    -0.02   0.01   0.09
  26   1    -0.04  -0.07  -0.07    -0.14   0.20   0.07    -0.05   0.08   0.03
  27   1    -0.02  -0.04  -0.01     0.05   0.06   0.02     0.02   0.01  -0.05
  28   1     0.05  -0.01  -0.01     0.00   0.01   0.04     0.01  -0.06  -0.01
  29   1    -0.07  -0.07   0.05     0.00  -0.09   0.03    -0.00   0.08   0.01
  30   1    -0.03  -0.01   0.11     0.02  -0.03   0.09     0.02  -0.04  -0.07
  31   1     0.03   0.04   0.03     0.01   0.06  -0.03    -0.15  -0.23   0.10
  32   1     0.04  -0.01  -0.00    -0.03  -0.02  -0.10     0.03  -0.04   0.29
  33   1     0.02  -0.02   0.03    -0.05  -0.11  -0.01     0.15   0.09  -0.06
  34   1     0.00   0.04   0.08    -0.01  -0.05   0.05    -0.05   0.06  -0.16
  35   1     0.02   0.11  -0.02    -0.01  -0.01  -0.03     0.13   0.14  -0.08
  36   1     0.02   0.04  -0.07     0.04  -0.05  -0.04    -0.02   0.06  -0.19
  37   1     0.03   0.04  -0.03     0.01   0.10  -0.03    -0.11  -0.12   0.04
  38   1     0.06  -0.02  -0.06    -0.01   0.02  -0.09     0.05  -0.03   0.16
  39   1    -0.06  -0.09   0.00     0.02  -0.08   0.04     0.12   0.08   0.02
  40   1    -0.08  -0.01   0.06     0.07   0.02   0.12    -0.07  -0.02  -0.12
  41   1    -0.03  -0.08  -0.01     0.04   0.07   0.04    -0.04  -0.09   0.12
                     10                     11                     12
                        a                      a                      a 
 Frequencies --   142.2592               150.2777               155.3722
 Red. masses --     7.3559                 7.4446                 8.3487
 Frc consts  --     0.0000                 0.0000                 0.0000
 IR Inten    --     1.1974                 9.5814                 0.5599
 Raman Activ --     0.0000                 0.0000                 0.0000
 Depolar     --     0.0000                 0.0000                 0.0000
 Atom AN      X      Y      Z        X      Y      Z        X      Y      Z
   1   7     0.08   0.07  -0.04    -0.35  -0.18  -0.04    -0.02  -0.10   0.02
   2   6     0.05   0.03   0.03     0.07  -0.12   0.05    -0.07  -0.11   0.05
   3   6     0.04   0.04   0.04     0.06  -0.20  -0.15    -0.22  -0.01  -0.05
   4   6     0.01   0.06   0.11    -0.00   0.23   0.21    -0.17   0.09  -0.14
   5   6     0.10  -0.16  -0.20    -0.06   0.24   0.08    -0.16   0.17   0.01
   6   6     0.06  -0.11  -0.08     0.05   0.03  -0.29    -0.17   0.09   0.08
   7   6    -0.03   0.09   0.22     0.07   0.15   0.01     0.01  -0.09  -0.03
   8   6    -0.00  -0.03   0.10     0.05   0.00   0.06    -0.00  -0.08   0.06
   9   6    -0.10  -0.01  -0.09    -0.01  -0.05   0.08     0.23   0.14  -0.11
  10   6    -0.01   0.09  -0.36     0.02  -0.04  -0.01     0.25   0.23  -0.09
  11   6    -0.16  -0.22   0.11     0.05  -0.00  -0.07     0.11  -0.05   0.28
  12   6    -0.18  -0.09   0.18     0.03  -0.01  -0.00     0.17  -0.14   0.11
  13   6     0.10   0.20  -0.03     0.06  -0.02   0.04     0.04  -0.10  -0.19
  14   1     0.04   0.00   0.00    -0.05  -0.03   0.12     0.07  -0.06   0.10
  15   1     0.04   0.04  -0.04    -0.05  -0.06  -0.17     0.05   0.03  -0.10
  16   1    -0.01   0.03  -0.01    -0.27  -0.07  -0.01    -0.12  -0.05   0.01
  17   1     0.02  -0.00   0.01     0.10  -0.04   0.01     0.02  -0.03   0.01
  18   1     0.01   0.01   0.02     0.01   0.01   0.09    -0.04  -0.06   0.05
  19   1     0.01   0.01  -0.00    -0.04  -0.04  -0.17    -0.08  -0.01  -0.00
  20   1     0.03   0.00   0.01     0.08  -0.17  -0.04    -0.09  -0.00  -0.01
  21   1    -0.02  -0.02   0.12     0.06   0.05   0.18    -0.03   0.04  -0.07
  22   1     0.00   0.11   0.03    -0.07   0.16   0.06    -0.04  -0.01  -0.04
  23   1     0.04  -0.01  -0.14     0.03   0.07   0.08    -0.05   0.04   0.03
  24   1     0.04  -0.14  -0.06    -0.09   0.10   0.03    -0.03   0.08   0.01
  25   1     0.06  -0.00  -0.06    -0.02   0.04  -0.21    -0.07   0.00   0.07
  26   1    -0.01  -0.09  -0.02     0.08  -0.12  -0.09    -0.06   0.07   0.02
  27   1    -0.02  -0.01   0.16     0.02   0.02   0.07     0.02  -0.00  -0.06
  28   1    -0.03   0.12   0.06     0.03   0.13   0.00     0.02  -0.07  -0.01
  29   1     0.02  -0.05   0.03    -0.00  -0.00   0.02    -0.02  -0.09   0.01
  30   1     0.00  -0.01   0.05     0.04  -0.01   0.03    -0.03   0.01   0.08
  31   1    -0.10  -0.01  -0.02    -0.02  -0.03   0.02     0.08   0.09  -0.03
  32   1     0.00  -0.01   0.01    -0.00  -0.01   0.05     0.10   0.01  -0.09
  33   1     0.05   0.18  -0.10     0.02  -0.02  -0.00     0.07   0.17  -0.02
  34   1     0.00  -0.02  -0.26    -0.00  -0.01  -0.00     0.09   0.03  -0.12
  35   1    -0.04  -0.19   0.03     0.03   0.02  -0.02     0.01  -0.12   0.08
  36   1    -0.07  -0.02   0.14     0.01  -0.01  -0.04     0.00   0.03   0.18
  37   1    -0.07  -0.09   0.05    -0.01  -0.00  -0.00     0.09  -0.08   0.03
  38   1    -0.10   0.02   0.11     0.01  -0.00   0.01     0.05  -0.04   0.05
  39   1     0.08   0.15  -0.01     0.03  -0.01   0.01    -0.01   0.03  -0.05
  40   1     0.06   0.01  -0.11     0.02  -0.00   0.01    -0.00  -0.04  -0.10
  41   1     0.01   0.08   0.04     0.01  -0.00   0.03     0.02  -0.07  -0.08
                     13                     14                     15
                        a                      a                      a 
 Frequencies --   175.6093               232.9068               255.4416
 Red. masses --     3.4119                 7.9336                 2.0974
 Frc consts  --     0.0000                 0.0000                 0.0000
 IR Inten    --     5.8270                 0.1880                 0.0103
 Raman Activ --     0.0000                 0.0000                 0.0000
 Depolar     --     0.0000                 0.0000                 0.0000
 Atom AN      X      Y      Z        X      Y      Z        X      Y      Z
   1   7    -0.14  -0.14   0.00    -0.01  -0.08   0.03    -0.01  -0.01   0.01
   2   6    -0.04  -0.11   0.05    -0.24  -0.07  -0.10    -0.04  -0.00  -0.04
   3   6    -0.05  -0.06   0.12    -0.21   0.03   0.11     0.00  -0.00   0.04
   4   6     0.01   0.07  -0.01    -0.15  -0.05  -0.01     0.01  -0.03   0.02
   5   6    -0.06   0.10  -0.15    -0.05  -0.12  -0.09    -0.01  -0.01   0.00
   6   6    -0.06   0.17  -0.10    -0.00   0.04  -0.04     0.01   0.03  -0.02
   7   6     0.05   0.13   0.00    -0.08   0.26   0.21     0.01   0.03  -0.04
   8   6     0.02  -0.02   0.09     0.13   0.32  -0.20    -0.01   0.02   0.03
   9   6     0.03   0.00   0.03     0.04   0.09   0.08     0.01   0.04   0.01
  10   6     0.07   0.00  -0.04     0.08  -0.10   0.07    -0.01  -0.05   0.05
  11   6     0.05  -0.04   0.00     0.10  -0.08  -0.04    -0.04  -0.08   0.06
  12   6     0.06  -0.05   0.00     0.13  -0.13  -0.05     0.06   0.12  -0.21
  13   6     0.08  -0.03  -0.01     0.24  -0.11   0.02     0.02  -0.04   0.06
  14   1    -0.33   0.07  -0.39     0.07  -0.06   0.07     0.01  -0.01   0.02
  15   1    -0.25  -0.28   0.38     0.04   0.07  -0.03     0.01   0.02  -0.01
  16   1     0.42   0.09  -0.01    -0.06  -0.07   0.01    -0.02  -0.02   0.00
  17   1    -0.04  -0.05   0.02    -0.14  -0.01  -0.03    -0.04   0.00  -0.01
  18   1    -0.00  -0.01  -0.01    -0.06  -0.05  -0.10    -0.00   0.00  -0.04
  19   1    -0.03  -0.03   0.05    -0.06  -0.01   0.10     0.00  -0.00   0.03
  20   1    -0.03  -0.00   0.03    -0.07   0.08   0.03     0.00   0.02   0.01
  21   1     0.01   0.02   0.01    -0.07  -0.02  -0.02     0.00  -0.01  -0.00
  22   1     0.03   0.04  -0.00    -0.02  -0.02  -0.00     0.01  -0.02   0.01
  23   1    -0.03   0.03  -0.07    -0.02  -0.03  -0.07    -0.01  -0.01   0.00
  24   1    -0.02  -0.00  -0.04    -0.00  -0.07  -0.03    -0.01  -0.01   0.00
  25   1    -0.01   0.05  -0.02     0.04   0.04  -0.06     0.00   0.01  -0.00
  26   1    -0.04   0.05  -0.03    -0.02  -0.05  -0.01     0.01   0.01  -0.01
  27   1     0.03   0.04   0.01    -0.02   0.04   0.18     0.00   0.01  -0.02
  28   1     0.03   0.06   0.00    -0.10   0.19   0.06     0.02  -0.00  -0.01
  29   1    -0.02  -0.04   0.03     0.13   0.21  -0.05    -0.02  -0.01   0.01
  30   1     0.02  -0.01   0.07     0.01   0.07  -0.20     0.00   0.01   0.03
  31   1    -0.00   0.01   0.01     0.01  -0.05   0.02     0.02   0.03   0.00
  32   1     0.02  -0.00   0.01    -0.03   0.07   0.09    -0.01   0.01  -0.02
  33   1     0.03   0.02  -0.01     0.02  -0.06   0.02    -0.01  -0.02   0.01
  34   1     0.02  -0.00  -0.04     0.04  -0.03   0.05     0.01  -0.02   0.02
  35   1     0.01  -0.02   0.00     0.03   0.00  -0.01    -0.09  -0.08   0.02
  36   1     0.01  -0.00   0.01     0.03  -0.03  -0.04     0.03  -0.02   0.10
  37   1     0.02  -0.02   0.00     0.03  -0.03  -0.01     0.05   0.12  -0.06
  38   1     0.02  -0.01   0.01     0.04  -0.04  -0.01     0.00   0.01  -0.15
  39   1     0.03  -0.00  -0.00     0.06  -0.06   0.00     0.47   0.20   0.04
  40   1     0.02  -0.01  -0.01     0.11  -0.04   0.03    -0.32   0.03  -0.37
  41   1     0.02  -0.01   0.01     0.07   0.02  -0.00    -0.15  -0.30   0.45
                     16                     17                     18
                        a                      a                      a 
 Frequencies --   257.9807               272.4263               312.7192
 Red. masses --     7.5512                 8.0050                 9.3864
 Frc consts  --     0.0000                 0.0000                 0.0000
 IR Inten    --     0.0907                 0.1527                 6.9194
 Raman Activ --     0.0000                 0.0000                 0.0000
 Depolar     --     0.0000                 0.0000                 0.0000
 Atom AN      X      Y      Z        X      Y      Z        X      Y      Z
   1   7     0.04   0.04  -0.02     0.06   0.05  -0.03    -0.14  -0.29   0.06
   2   6     0.14  -0.00   0.14     0.16  -0.02   0.21    -0.08  -0.15  -0.14
   3   6    -0.04   0.01  -0.14    -0.13   0.02  -0.23    -0.17   0.16   0.12
   4   6    -0.06   0.11  -0.08    -0.15   0.15  -0.12    -0.04   0.24  -0.11
   5   6     0.04   0.02  -0.03     0.05   0.03   0.05     0.22   0.10  -0.04
   6   6    -0.03  -0.12   0.11     0.00  -0.27   0.12     0.19  -0.10   0.08
   7   6    -0.11   0.01   0.29    -0.05  -0.25   0.04     0.26  -0.15   0.05
   8   6     0.09  -0.10  -0.30     0.00   0.25  -0.01     0.26  -0.01  -0.01
   9   6    -0.03  -0.22  -0.17     0.06   0.23   0.12     0.10  -0.04  -0.02
  10   6    -0.09   0.01   0.05     0.07  -0.02   0.04     0.02  -0.02  -0.01
  11   6     0.15   0.14   0.17    -0.14  -0.11  -0.12    -0.12  -0.01  -0.05
  12   6     0.16   0.14   0.10    -0.13  -0.09  -0.13    -0.20   0.14   0.02
  13   6    -0.23  -0.03  -0.09     0.18   0.01   0.07    -0.23   0.16   0.03
  14   1    -0.05   0.03  -0.09    -0.05   0.03  -0.12    -0.04  -0.04   0.09
  15   1    -0.03  -0.06   0.04    -0.03  -0.07   0.04    -0.04  -0.08   0.01
  16   1     0.08   0.07  -0.01     0.10   0.10  -0.01    -0.07  -0.15   0.02
  17   1     0.14  -0.01   0.04     0.20  -0.02   0.05    -0.08  -0.04  -0.04
  18   1     0.01  -0.01   0.14     0.00  -0.03   0.20    -0.01  -0.05  -0.08
  19   1    -0.03   0.01  -0.09    -0.06   0.02  -0.14    -0.10  -0.01   0.16
  20   1    -0.03  -0.06  -0.04    -0.06  -0.09  -0.06    -0.08   0.16   0.03
  21   1    -0.01   0.02   0.01    -0.04   0.03   0.00    -0.05   0.06  -0.06
  22   1    -0.04   0.06  -0.02    -0.09   0.06  -0.03     0.02   0.04  -0.03
  23   1     0.03   0.02  -0.03     0.06   0.02   0.04     0.11   0.05  -0.03
  24   1     0.04  -0.00  -0.01     0.04   0.04   0.02     0.10   0.03  -0.01
  25   1     0.00  -0.01  -0.01    -0.03  -0.08   0.02     0.03  -0.04   0.03
  26   1    -0.03  -0.09   0.03     0.00  -0.08   0.03     0.04  -0.02   0.02
  27   1     0.01  -0.02   0.23    -0.07  -0.08  -0.05     0.06  -0.04  -0.01
  28   1    -0.15   0.13   0.08    -0.01  -0.13   0.01     0.08  -0.07   0.01
  29   1     0.14   0.05  -0.08     0.04   0.15   0.00     0.11   0.02  -0.00
  30   1     0.01  -0.05  -0.20    -0.06   0.09  -0.09     0.07  -0.01  -0.04
  31   1     0.01  -0.11  -0.05     0.02   0.06   0.03     0.03  -0.02  -0.01
  32   1    -0.01  -0.05  -0.01    -0.01   0.08   0.04     0.02  -0.00  -0.00
  33   1    -0.08   0.01   0.02     0.04  -0.04   0.01     0.01  -0.01  -0.00
  34   1    -0.06   0.03   0.04     0.06  -0.02   0.03     0.02  -0.01   0.00
  35   1     0.05   0.03   0.05    -0.06  -0.02  -0.03    -0.03  -0.00  -0.01
  36   1     0.07   0.03   0.05    -0.06  -0.02  -0.03    -0.03  -0.00  -0.01
  37   1     0.08   0.04   0.03    -0.06  -0.01  -0.04    -0.07   0.05   0.01
  38   1     0.07   0.02   0.01    -0.06  -0.01  -0.04    -0.07   0.05   0.00
  39   1    -0.06   0.05  -0.02     0.13  -0.01   0.02    -0.08   0.05   0.01
  40   1    -0.18   0.03  -0.08     0.09  -0.02   0.00    -0.08   0.05   0.01
  41   1    -0.07  -0.15  -0.02     0.03   0.07   0.09    -0.06   0.03   0.00
                     19                     20                     21
                        a                      a                      a 
 Frequencies --   374.8430               410.2275               437.0361
 Red. masses --     8.9906                 9.0118                 8.7511
 Frc consts  --     0.0000                 0.0000                 0.0000
 IR Inten    --     8.1116                 0.4677                 0.4076
 Raman Activ --     0.0000                 0.0000                 0.0000
 Depolar     --     0.0000                 0.0000                 0.0000
 Atom AN      X      Y      Z        X      Y      Z        X      Y      Z
   1   7     0.11   0.22  -0.05    -0.00  -0.06   0.01    -0.00  -0.05   0.01
   2   6    -0.24  -0.01   0.19     0.00  -0.05   0.02     0.02  -0.03   0.01
   3   6    -0.21  -0.22  -0.13    -0.18   0.10  -0.10    -0.14   0.10  -0.09
   4   6    -0.19  -0.19   0.01    -0.16   0.04  -0.05    -0.13   0.01  -0.03
   5   6    -0.07  -0.15   0.09     0.20  -0.14   0.15     0.16  -0.13   0.14
   6   6     0.11   0.16  -0.07     0.27  -0.01   0.04     0.23   0.08   0.04
   7   6     0.26   0.14  -0.05     0.05   0.12  -0.16     0.03   0.20  -0.09
   8   6     0.25  -0.03   0.04    -0.10   0.18   0.18    -0.05  -0.24  -0.10
   9   6     0.16  -0.06   0.02    -0.31   0.08  -0.02    -0.00  -0.17  -0.07
  10   6     0.12  -0.07  -0.01    -0.22  -0.16  -0.19    -0.08   0.29   0.18
  11   6    -0.04  -0.06  -0.06     0.22  -0.04   0.05    -0.20   0.24   0.09
  12   6    -0.13   0.11   0.04     0.26   0.05   0.13    -0.11  -0.19  -0.17
  13   6    -0.19   0.13   0.02    -0.01  -0.07  -0.05     0.24  -0.11   0.01
  14   1     0.09  -0.05  -0.11    -0.01  -0.01  -0.01    -0.02   0.00   0.00
  15   1     0.05   0.13  -0.00    -0.01  -0.03   0.01    -0.01  -0.03   0.01
  16   1     0.08   0.16  -0.02     0.01  -0.01   0.00     0.00  -0.02   0.00
  17   1    -0.03  -0.00   0.05     0.06  -0.01   0.01     0.06  -0.01   0.00
  18   1    -0.09  -0.03   0.09    -0.02  -0.04   0.07    -0.01  -0.04   0.06
  19   1    -0.02  -0.02  -0.17    -0.07   0.02  -0.01    -0.05   0.02  -0.00
  20   1    -0.06  -0.20  -0.04    -0.07   0.03  -0.03    -0.05   0.04  -0.02
  21   1    -0.04  -0.06   0.03    -0.09  -0.01  -0.01    -0.08  -0.01  -0.01
  22   1    -0.10  -0.05   0.00    -0.08  -0.00  -0.01    -0.07  -0.01  -0.01
  23   1    -0.05  -0.06   0.04     0.08  -0.03   0.04     0.05  -0.03   0.03
  24   1    -0.04  -0.03   0.03     0.07  -0.02   0.04     0.06  -0.04   0.04
  25   1     0.05   0.05  -0.02     0.11   0.01   0.02     0.11   0.04   0.01
  26   1     0.06   0.05  -0.02     0.13   0.02   0.01     0.11   0.04   0.01
  27   1     0.10   0.05  -0.02    -0.05   0.03  -0.14     0.05   0.05   0.05
  28   1     0.10   0.04  -0.01     0.08  -0.04  -0.04    -0.03   0.11  -0.03
  29   1     0.06  -0.02   0.01    -0.10  -0.00   0.05    -0.06  -0.14  -0.03
  30   1     0.10  -0.02   0.03     0.02   0.04   0.13     0.05  -0.08   0.06
  31   1     0.04  -0.02   0.01    -0.14   0.06  -0.01     0.04  -0.06  -0.02
  32   1     0.04  -0.01   0.01    -0.13   0.04  -0.01     0.05  -0.08  -0.02
  33   1     0.05  -0.03  -0.00    -0.07  -0.03  -0.05    -0.05   0.10   0.05
  34   1     0.05  -0.03  -0.00    -0.08  -0.03  -0.05    -0.06   0.10   0.04
  35   1    -0.01  -0.02  -0.02     0.11  -0.04   0.01    -0.11   0.10   0.03
  36   1    -0.01  -0.02  -0.02     0.11  -0.04   0.01    -0.11   0.10   0.02
  37   1    -0.05   0.04   0.01     0.09  -0.00   0.04    -0.02  -0.05  -0.05
  38   1    -0.05   0.04   0.01     0.09   0.00   0.03    -0.02  -0.06  -0.04
  39   1    -0.07   0.04   0.01    -0.05   0.00  -0.02     0.14  -0.07   0.00
  40   1    -0.07   0.05   0.01    -0.05   0.00  -0.02     0.14  -0.07   0.01
  41   1    -0.05   0.01  -0.01     0.02  -0.10  -0.06     0.04   0.09   0.08
                     22                     23                     24
                        a                      a                      a 
 Frequencies --   470.9739               533.0759               758.7613
 Red. masses --     8.5046                 8.7277                 1.8040
 Frc consts  --     0.0000                 0.0000                 0.0000
 IR Inten    --     4.4151                 0.9993                19.5200
 Raman Activ --     0.0000                 0.0000                 0.0000
 Depolar     --     0.0000                 0.0000                 0.0000
 Atom AN      X      Y      Z        X      Y      Z        X      Y      Z
   1   7    -0.01  -0.13   0.04    -0.01   0.02  -0.01    -0.01   0.02   0.02
   2   6     0.37   0.07  -0.12    -0.16  -0.05   0.06    -0.01  -0.01  -0.01
   3   6     0.01   0.33  -0.12    -0.03  -0.10   0.04     0.01  -0.04  -0.03
   4   6    -0.19  -0.13   0.09     0.11   0.16  -0.10     0.02  -0.05  -0.07
   5   6    -0.16  -0.22   0.11     0.28   0.08   0.03     0.00  -0.04  -0.09
   6   6    -0.08   0.09  -0.06     0.16  -0.04   0.12     0.01  -0.08  -0.06
   7   6    -0.10   0.14  -0.06    -0.34   0.15  -0.12     0.05  -0.05  -0.04
   8   6    -0.05  -0.05  -0.04    -0.36  -0.11  -0.13     0.06   0.05  -0.04
   9   6     0.19   0.00   0.08     0.16   0.01   0.11     0.02   0.09  -0.07
  10   6     0.22  -0.10   0.01     0.25  -0.09   0.04     0.00   0.05  -0.08
  11   6     0.04  -0.15  -0.09     0.05  -0.16  -0.10     0.01   0.04  -0.05
  12   6    -0.05   0.08   0.04    -0.03   0.06   0.03     0.01   0.02  -0.02
  13   6    -0.14   0.10   0.02    -0.10   0.08   0.02     0.00  -0.00   0.00
  14   1    -0.09   0.09   0.07     0.04  -0.05  -0.03     0.01  -0.01  -0.00
  15   1    -0.05  -0.16   0.01     0.02   0.06  -0.01     0.00   0.04   0.02
  16   1    -0.03  -0.11   0.01     0.01   0.04  -0.00     0.01   0.00   0.00
  17   1     0.24   0.03  -0.04    -0.11  -0.02   0.02     0.03   0.00  -0.00
  18   1     0.06  -0.01   0.09    -0.03  -0.00  -0.04    -0.01   0.01   0.02
  19   1    -0.01   0.06   0.08    -0.02  -0.02  -0.04     0.05  -0.03   0.13
  20   1     0.01   0.21  -0.03    -0.03  -0.08   0.01    -0.07   0.11  -0.01
  21   1    -0.12  -0.06   0.02     0.05   0.05  -0.03     0.02  -0.08   0.22
  22   1    -0.10  -0.06   0.03     0.05   0.04  -0.03    -0.06   0.22  -0.01
  23   1    -0.07  -0.07   0.02     0.12   0.04   0.00     0.04  -0.08   0.26
  24   1    -0.07  -0.09   0.03     0.13   0.04   0.01    -0.11   0.26  -0.02
  25   1     0.02   0.04  -0.02     0.09   0.01   0.03     0.02  -0.10   0.25
  26   1     0.01   0.03  -0.02     0.08   0.01   0.03    -0.12   0.22  -0.01
  27   1     0.01   0.04   0.04    -0.08   0.02   0.08    -0.01  -0.07   0.15
  28   1    -0.05   0.09  -0.02    -0.20   0.12  -0.03    -0.03   0.15  -0.01
  29   1    -0.06  -0.03  -0.01    -0.21  -0.09  -0.04    -0.05  -0.16  -0.02
  30   1    -0.01  -0.01   0.03    -0.09  -0.01   0.08    -0.01   0.07   0.17
  31   1     0.07  -0.01   0.02     0.08  -0.02   0.03    -0.15  -0.22  -0.02
  32   1     0.07  -0.01   0.02     0.09  -0.03   0.03     0.04   0.09   0.26
  33   1     0.10  -0.05   0.00     0.12  -0.04   0.01    -0.15  -0.22  -0.02
  34   1     0.09  -0.05  -0.00     0.11  -0.05   0.00     0.05   0.06   0.25
  35   1     0.02  -0.04  -0.02     0.02  -0.05  -0.03    -0.07  -0.17  -0.01
  36   1     0.02  -0.04  -0.02     0.02  -0.05  -0.03     0.01   0.06   0.18
  37   1    -0.03   0.03   0.01    -0.03   0.02   0.01    -0.06  -0.07  -0.00
  38   1    -0.03   0.03   0.01    -0.03   0.03   0.01     0.04   0.01   0.09
  39   1    -0.06   0.04   0.01    -0.05   0.03   0.01     0.00  -0.03  -0.00
  40   1    -0.06   0.04   0.00    -0.05   0.03   0.00    -0.01   0.01   0.02
  41   1    -0.03  -0.01  -0.02    -0.02  -0.01  -0.02    -0.00  -0.00   0.00
                     25                     26                     27
                        a                      a                      a 
 Frequencies --   761.8784               772.3360               781.1572
 Red. masses --     1.7784                 2.3375                 2.3053
 Frc consts  --     0.0000                 0.0000                 0.0000
 IR Inten    --    12.6407                 3.8139                 2.3058
 Raman Activ --     0.0000                 0.0000                 0.0000
 Depolar     --     0.0000                 0.0000                 0.0000
 Atom AN      X      Y      Z        X      Y      Z        X      Y      Z
   1   7     0.02  -0.03  -0.02    -0.03   0.04   0.02     0.04  -0.05  -0.02
   2   6     0.03   0.01   0.02    -0.04  -0.02  -0.03     0.03   0.02   0.04
   3   6    -0.01   0.06   0.05     0.01  -0.08  -0.07    -0.02   0.10   0.08
   4   6    -0.04   0.07   0.09     0.05  -0.06  -0.08    -0.04   0.05   0.06
   5   6    -0.04   0.04   0.08     0.04   0.00   0.00     0.01  -0.05  -0.03
   6   6    -0.02   0.01   0.05     0.00   0.10   0.06     0.04  -0.05  -0.14
   7   6     0.00   0.00   0.01    -0.08   0.07   0.07     0.04  -0.05  -0.06
   8   6     0.02   0.02  -0.02    -0.09  -0.07   0.06    -0.03  -0.04   0.05
   9   6     0.03   0.04  -0.07    -0.01  -0.09   0.05    -0.05  -0.04   0.13
  10   6     0.03   0.06  -0.08     0.04   0.02  -0.00    -0.03  -0.03   0.03
  11   6     0.03   0.06  -0.07     0.04   0.06  -0.10     0.02   0.04  -0.07
  12   6     0.01   0.03  -0.04     0.02   0.06  -0.09     0.04   0.07  -0.09
  13   6    -0.00   0.00  -0.00    -0.00   0.01  -0.01     0.01   0.01  -0.01
  14   1    -0.02   0.02   0.01     0.03  -0.03  -0.01    -0.03   0.03   0.01
  15   1    -0.01  -0.06  -0.03     0.01   0.08   0.04    -0.01  -0.09  -0.05
  16   1    -0.03  -0.00  -0.00     0.03   0.00   0.00    -0.04   0.00  -0.01
  17   1    -0.05  -0.00   0.01     0.07   0.00  -0.01    -0.09  -0.00   0.01
  18   1     0.02  -0.01  -0.05    -0.02   0.01   0.07     0.03  -0.02  -0.08
  19   1    -0.07   0.05  -0.18     0.06  -0.06   0.19    -0.06   0.07  -0.20
  20   1     0.11  -0.16   0.01    -0.11   0.17  -0.02     0.10  -0.18   0.02
  21   1    -0.04   0.10  -0.27     0.07  -0.06   0.20    -0.10   0.03  -0.14
  22   1     0.08  -0.27   0.02    -0.09   0.19  -0.02     0.09  -0.12   0.01
  23   1    -0.02   0.09  -0.25    -0.05  -0.03   0.01     0.09  -0.02   0.11
  24   1     0.07  -0.26   0.01     0.08   0.04   0.00    -0.12   0.07  -0.01
  25   1    -0.05   0.04  -0.15     0.04   0.11  -0.20     0.03  -0.10   0.26
  26   1     0.08  -0.14   0.01     0.06  -0.19   0.01    -0.08   0.28  -0.03
  27   1     0.01   0.02  -0.05     0.01   0.10  -0.20    -0.01  -0.08   0.18
  28   1    -0.00  -0.06   0.00     0.05  -0.20   0.02     0.00   0.20  -0.01
  29   1    -0.02  -0.11  -0.01     0.07   0.18   0.02     0.01   0.17   0.02
  30   1    -0.01   0.04   0.10    -0.01  -0.08  -0.19     0.00  -0.06  -0.15
  31   1    -0.13  -0.18  -0.02     0.06   0.15   0.01     0.10   0.23   0.04
  32   1     0.06   0.05   0.21     0.03  -0.10  -0.17    -0.05  -0.07  -0.23
  33   1    -0.13  -0.25  -0.03     0.05  -0.09  -0.00     0.11   0.04   0.01
  34   1     0.04   0.08   0.27    -0.04   0.05   0.07    -0.09   0.01  -0.09
  35   1    -0.11  -0.23  -0.02    -0.16  -0.22  -0.03    -0.13  -0.11  -0.02
  36   1     0.03   0.08   0.25     0.08   0.06   0.25     0.09   0.02   0.15
  37   1    -0.10  -0.12  -0.01    -0.16  -0.22  -0.03    -0.13  -0.21  -0.03
  38   1     0.05   0.03   0.15     0.07   0.06   0.25     0.06   0.06   0.24
  39   1     0.01  -0.05  -0.00     0.02  -0.11  -0.00     0.03  -0.12  -0.00
  40   1    -0.02   0.02   0.04    -0.06   0.05   0.09    -0.06   0.06   0.09
  41   1    -0.00  -0.01   0.01    -0.01  -0.02   0.03    -0.01  -0.03   0.03
                     28                     29                     30
                        a                      a                      a 
 Frequencies --   811.9259               821.0586               842.6969
 Red. masses --     2.7745                 2.9149                 3.5307
 Frc consts  --     0.0000                 0.0000                 0.0000
 IR Inten    --    24.4127                13.7295                10.4108
 Raman Activ --     0.0000                 0.0000                 0.0000
 Depolar     --     0.0000                 0.0000                 0.0000
 Atom AN      X      Y      Z        X      Y      Z        X      Y      Z
   1   7     0.10  -0.02   0.03     0.05   0.05   0.06     0.02   0.12   0.12
   2   6     0.15   0.01   0.13     0.12  -0.01   0.06     0.11  -0.06   0.01
   3   6    -0.01   0.07   0.09     0.01  -0.07  -0.00     0.01  -0.20  -0.12
   4   6    -0.07   0.02  -0.11    -0.06  -0.01  -0.09    -0.06  -0.00  -0.04
   5   6     0.03  -0.13  -0.07    -0.06   0.00   0.02    -0.05   0.10   0.15
   6   6    -0.00   0.04   0.01    -0.04  -0.05   0.10     0.03  -0.00  -0.03
   7   6    -0.08   0.10   0.08     0.03   0.01  -0.03     0.11  -0.12  -0.13
   8   6    -0.05  -0.04   0.06     0.12   0.11  -0.11    -0.02  -0.06   0.02
   9   6     0.02  -0.06  -0.04     0.02   0.03  -0.04    -0.05   0.04   0.12
  10   6     0.06   0.05  -0.05    -0.06  -0.10   0.12    -0.02   0.03  -0.07
  11   6     0.01   0.00  -0.01    -0.02  -0.02   0.05     0.01   0.04  -0.06
  12   6    -0.03  -0.05   0.06     0.04   0.09  -0.13    -0.01  -0.04   0.07
  13   6    -0.01  -0.01   0.02     0.02   0.03  -0.04     0.00  -0.03   0.03
  14   1    -0.09   0.10  -0.02    -0.05   0.06  -0.02    -0.04   0.03  -0.05
  15   1    -0.01  -0.31  -0.21    -0.00  -0.18  -0.14     0.00  -0.12  -0.13
  16   1    -0.16   0.20   0.01    -0.10   0.18   0.01    -0.09   0.24   0.03
  17   1    -0.32   0.08   0.04    -0.18   0.08   0.02    -0.10   0.12   0.00
  18   1     0.12  -0.05  -0.33     0.08  -0.03  -0.21     0.06  -0.04  -0.15
  19   1    -0.02   0.05  -0.12     0.02  -0.04   0.08     0.02  -0.12   0.24
  20   1    -0.03  -0.15   0.02    -0.08   0.03  -0.00    -0.14   0.19  -0.03
  21   1    -0.12  -0.07   0.08     0.01  -0.02   0.08     0.13   0.05   0.01
  22   1    -0.00   0.12  -0.03    -0.08   0.08  -0.02    -0.17  -0.04  -0.01
  23   1     0.00  -0.10   0.19    -0.06  -0.00  -0.04    -0.04   0.10  -0.22
  24   1    -0.04   0.18  -0.01     0.06  -0.02   0.00     0.09  -0.22   0.03
  25   1     0.11   0.07  -0.04    -0.06   0.00  -0.07    -0.13  -0.07   0.03
  26   1    -0.06  -0.06   0.00     0.03  -0.11   0.02     0.14   0.09  -0.01
  27   1    -0.02   0.09  -0.18     0.01   0.00   0.01     0.05  -0.10   0.23
  28   1     0.07  -0.16   0.02    -0.06  -0.01  -0.01    -0.04   0.23  -0.03
  29   1     0.08   0.08   0.02    -0.08  -0.22  -0.04    -0.05   0.11   0.01
  30   1    -0.01  -0.04  -0.10     0.05   0.09   0.24    -0.00  -0.04  -0.08
  31   1    -0.04  -0.00  -0.01     0.08  -0.12  -0.01    -0.01   0.14   0.03
  32   1     0.08  -0.05  -0.00    -0.11   0.10   0.07    -0.01  -0.03  -0.09
  33   1    -0.05  -0.11  -0.02     0.07   0.23   0.04     0.01  -0.10  -0.02
  34   1     0.03   0.04   0.12    -0.02  -0.10  -0.22    -0.04   0.05   0.07
  35   1     0.05  -0.04  -0.00    -0.07   0.13   0.02     0.01  -0.11  -0.02
  36   1    -0.05   0.04   0.01     0.09  -0.08  -0.08    -0.03   0.05   0.08
  37   1     0.04   0.13   0.02    -0.07  -0.24  -0.04     0.01   0.12   0.02
  38   1    -0.01  -0.05  -0.13     0.00   0.10   0.23     0.03  -0.06  -0.10
  39   1    -0.03   0.09   0.01     0.07  -0.20  -0.01    -0.04   0.11   0.01
  40   1     0.05  -0.05  -0.07    -0.11   0.10   0.14     0.06  -0.06  -0.08
  41   1     0.01   0.03  -0.03    -0.02  -0.04   0.07     0.02   0.01  -0.05
                     31                     32                     33
                        a                      a                      a 
 Frequencies --   895.2159               898.4143               916.5673
 Red. masses --     3.6094                 7.5536                 4.6679
 Frc consts  --     0.0000                 0.0000                 0.0000
 IR Inten    --     3.0482                26.5703                10.8413
 Raman Activ --     0.0000                 0.0000                 0.0000
 Depolar     --     0.0000                 0.0000                 0.0000
 Atom AN      X      Y      Z        X      Y      Z        X      Y      Z
   1   7    -0.03  -0.06   0.08     0.02   0.45  -0.01     0.09  -0.04  -0.16
   2   6    -0.05  -0.03   0.02     0.25  -0.16  -0.21    -0.01   0.11   0.08
   3   6     0.02   0.02  -0.13    -0.12  -0.36   0.15    -0.04   0.07   0.13
   4   6     0.03   0.02   0.08    -0.14   0.08  -0.01     0.01  -0.11  -0.15
   5   6     0.06   0.01   0.05    -0.01  -0.01  -0.02     0.00   0.02   0.04
   6   6     0.05   0.08  -0.15     0.06  -0.05  -0.02     0.01   0.16   0.07
   7   6    -0.03  -0.05   0.08    -0.04   0.07   0.02     0.16  -0.18  -0.07
   8   6    -0.16  -0.13   0.12    -0.03  -0.00   0.05    -0.09  -0.16  -0.04
   9   6     0.03   0.07  -0.11     0.01  -0.03  -0.05    -0.03   0.17   0.09
  10   6     0.05   0.06  -0.06     0.03   0.01  -0.01    -0.06   0.07  -0.06
  11   6    -0.06  -0.14   0.16     0.00  -0.03   0.05    -0.10  -0.09   0.01
  12   6     0.02   0.04  -0.06    -0.01   0.00  -0.02     0.06   0.05   0.04
  13   6     0.03   0.06  -0.08    -0.01   0.02  -0.02     0.09  -0.00  -0.03
  14   1     0.03  -0.12  -0.11    -0.12   0.36   0.23    -0.05   0.16   0.14
  15   1     0.02  -0.02  -0.08    -0.06   0.03   0.12    -0.03  -0.05   0.07
  16   1    -0.02   0.20   0.02    -0.01  -0.22   0.00     0.02  -0.29  -0.03
  17   1     0.01   0.10   0.00     0.05  -0.12  -0.06    -0.08  -0.15   0.02
  18   1    -0.02  -0.05   0.00     0.09   0.05  -0.04     0.01   0.05  -0.02
  19   1    -0.00  -0.02   0.07    -0.15  -0.16   0.09     0.09   0.10  -0.12
  20   1     0.01   0.12  -0.03    -0.04  -0.06   0.04    -0.10  -0.17   0.04
  21   1     0.05   0.04  -0.05    -0.00   0.06  -0.08    -0.05  -0.11   0.16
  22   1    -0.04  -0.09   0.02    -0.00  -0.05  -0.00    -0.02   0.18  -0.03
  23   1     0.07   0.04  -0.03     0.08   0.02   0.01    -0.18  -0.05  -0.04
  24   1    -0.05  -0.07   0.01    -0.05   0.01  -0.00     0.18   0.02   0.01
  25   1     0.06   0.01   0.06     0.08  -0.01   0.06    -0.13   0.04  -0.13
  26   1    -0.01   0.12  -0.04    -0.03   0.04  -0.00     0.18  -0.05   0.01
  27   1    -0.02  -0.01  -0.02    -0.05   0.02  -0.06     0.16  -0.06   0.18
  28   1     0.12  -0.00   0.02     0.05  -0.03   0.01    -0.06   0.13  -0.02
  29   1     0.13   0.14   0.04     0.04   0.04   0.02    -0.05   0.08  -0.01
  30   1    -0.13  -0.04  -0.21     0.00  -0.02  -0.04    -0.07  -0.04  -0.10
  31   1    -0.19  -0.06  -0.03    -0.04  -0.02  -0.01    -0.10   0.07   0.02
  32   1     0.18  -0.03   0.12     0.06  -0.03   0.01     0.05   0.02   0.04
  33   1    -0.19   0.00  -0.01    -0.04  -0.00  -0.00    -0.08  -0.03  -0.02
  34   1     0.18  -0.05   0.09     0.05  -0.01   0.02     0.06  -0.00   0.06
  35   1     0.11   0.18   0.04     0.03   0.04   0.01     0.05   0.04   0.00
  36   1    -0.06  -0.08  -0.20    -0.01  -0.02  -0.05    -0.07  -0.03  -0.09
  37   1     0.12  -0.16  -0.02     0.03  -0.04  -0.01     0.07  -0.03   0.01
  38   1    -0.14   0.12   0.08    -0.04   0.02   0.02    -0.08   0.07   0.03
  39   1     0.09  -0.23  -0.02     0.03  -0.06  -0.01    -0.00  -0.08  -0.01
  40   1    -0.14   0.14   0.16    -0.03   0.03   0.04    -0.10   0.08   0.06
  41   1    -0.03  -0.06   0.08    -0.01   0.00   0.03     0.03  -0.13  -0.02
                     34                     35                     36
                        a                      a                      a 
 Frequencies --   938.1673               961.1342               971.5847
 Red. masses --     6.1327                 6.4316                 4.2063
 Frc consts  --     0.0000                 0.0000                 0.0000
 IR Inten    --     3.2027                 5.7943                 2.0700
 Raman Activ --     0.0000                 0.0000                 0.0000
 Depolar     --     0.0000                 0.0000                 0.0000
 Atom AN      X      Y      Z        X      Y      Z        X      Y      Z
   1   7     0.02  -0.07  -0.07    -0.12  -0.13  -0.08    -0.08   0.12   0.16
   2   6    -0.01   0.07   0.07     0.13   0.09   0.13     0.03  -0.20  -0.17
   3   6     0.03   0.03   0.03     0.19  -0.02   0.05    -0.02   0.03   0.03
   4   6    -0.00  -0.01  -0.08    -0.14   0.15  -0.16     0.01   0.00   0.05
   5   6    -0.03   0.01   0.06    -0.13  -0.08   0.09    -0.02  -0.04  -0.14
   6   6    -0.02  -0.04   0.02    -0.08  -0.22   0.05    -0.04  -0.03   0.18
   7   6    -0.04   0.02  -0.09    -0.10   0.21  -0.14     0.09   0.01  -0.10
   8   6     0.03   0.08   0.10     0.18   0.11   0.11     0.10  -0.01  -0.09
   9   6    -0.00  -0.08  -0.03     0.03  -0.17  -0.01    -0.03   0.02   0.18
  10   6     0.10  -0.11  -0.10     0.04   0.07  -0.05    -0.02   0.04  -0.14
  11   6     0.31   0.12   0.24    -0.12  -0.03  -0.01    -0.00  -0.00   0.06
  12   6    -0.18  -0.15  -0.17     0.03   0.03   0.07    -0.02  -0.03   0.04
  13   6    -0.31   0.11  -0.06     0.13   0.00  -0.03     0.00   0.05  -0.09
  14   1     0.00   0.01   0.03     0.10  -0.18  -0.05     0.02  -0.07  -0.07
  15   1    -0.00   0.00   0.03     0.03   0.22   0.09     0.01   0.05  -0.03
  16   1     0.02  -0.10  -0.02     0.10  -0.08  -0.02    -0.02   0.21   0.03
  17   1    -0.05  -0.05   0.02    -0.13  -0.08   0.04     0.11   0.08  -0.05
  18   1     0.01   0.05  -0.02     0.13   0.23  -0.11    -0.02  -0.09   0.04
  19   1     0.07   0.04  -0.02     0.08   0.00   0.03    -0.17  -0.04  -0.04
  20   1    -0.06  -0.04   0.01    -0.08  -0.03   0.01     0.22   0.03   0.00
  21   1     0.02  -0.02   0.05     0.02   0.06  -0.03    -0.14  -0.05  -0.03
  22   1    -0.04   0.06  -0.02    -0.12   0.03  -0.04     0.20   0.03   0.01
  23   1    -0.05   0.01  -0.05     0.02   0.02  -0.03    -0.08  -0.08   0.09
  24   1     0.07  -0.04   0.01    -0.01  -0.07   0.02     0.04   0.14  -0.03
  25   1    -0.07  -0.04   0.01    -0.02  -0.08   0.07    -0.02   0.03  -0.09
  26   1     0.07   0.02   0.00    -0.01   0.01   0.02    -0.01  -0.16   0.04
  27   1    -0.06  -0.03   0.04    -0.12   0.02  -0.06     0.13   0.02   0.06
  28   1    -0.01   0.08  -0.02    -0.00   0.05  -0.04    -0.18   0.01  -0.03
  29   1    -0.02   0.07   0.03    -0.01   0.04   0.03    -0.18   0.02  -0.03
  30   1     0.03   0.00  -0.00     0.19  -0.05   0.05     0.14  -0.05   0.07
  31   1    -0.06   0.03  -0.01     0.01   0.05  -0.00     0.01   0.16   0.05
  32   1     0.00  -0.03  -0.03     0.05  -0.09  -0.08    -0.03  -0.02  -0.09
  33   1    -0.03  -0.05  -0.02    -0.02  -0.08  -0.01     0.02  -0.15  -0.04
  34   1     0.01  -0.01   0.02    -0.01   0.06   0.08    -0.07   0.08   0.09
  35   1     0.16   0.03   0.06     0.05   0.00  -0.00     0.20  -0.05   0.01
  36   1     0.08   0.02   0.03    -0.16   0.05  -0.04    -0.16   0.07  -0.03
  37   1     0.10  -0.12  -0.05     0.08   0.00   0.02     0.19  -0.05   0.01
  38   1     0.01  -0.07  -0.05    -0.13   0.08  -0.00    -0.15   0.05  -0.04
  39   1     0.21  -0.12  -0.01    -0.03  -0.08  -0.01     0.09  -0.17  -0.02
  40   1     0.15  -0.06   0.06    -0.12   0.09   0.06    -0.07   0.08   0.10
  41   1    -0.18   0.42   0.27     0.05  -0.17  -0.05    -0.03   0.00   0.08
                     37                     38                     39
                        a                      a                      a 
 Frequencies --   976.7137              1006.2290              1020.8946
 Red. masses --     5.6664                 4.7871                 4.4698
 Frc consts  --     0.0000                 0.0000                 0.0000
 IR Inten    --    16.8897                 1.6438                 2.4251
 Raman Activ --     0.0000                 0.0000                 0.0000
 Depolar     --     0.0000                 0.0000                 0.0000
 Atom AN      X      Y      Z        X      Y      Z        X      Y      Z
   1   7     0.24  -0.04  -0.07     0.04  -0.11  -0.10    -0.07   0.11   0.05
   2   6    -0.27   0.16   0.01     0.03   0.20   0.12     0.04  -0.22  -0.02
   3   6    -0.15  -0.01  -0.06     0.02  -0.11  -0.04    -0.02   0.14  -0.02
   4   6     0.17  -0.13   0.11    -0.11   0.02   0.07     0.09  -0.03  -0.05
   5   6     0.00   0.15  -0.03     0.03   0.01  -0.05     0.11  -0.02   0.13
   6   6    -0.01  -0.16   0.02     0.09   0.08  -0.06    -0.02   0.17  -0.18
   7   6    -0.11   0.12  -0.06     0.13  -0.07   0.19    -0.08  -0.13   0.12
   8   6     0.11   0.14   0.06    -0.10  -0.09  -0.24    -0.07   0.12   0.03
   9   6     0.01  -0.18  -0.01    -0.07   0.14   0.16    -0.03  -0.14  -0.10
  10   6     0.06   0.05  -0.03    -0.06   0.03  -0.02     0.07   0.02   0.08
  11   6    -0.06  -0.01   0.00     0.05  -0.02  -0.03     0.04   0.01  -0.06
  12   6    -0.00  -0.00   0.04    -0.01  -0.05   0.05    -0.03  -0.07   0.05
  13   6     0.07   0.02  -0.03    -0.04   0.05  -0.07     0.03   0.06  -0.04
  14   1    -0.13   0.25   0.10     0.01  -0.01   0.02     0.01  -0.00   0.01
  15   1    -0.03  -0.34  -0.10     0.00  -0.01   0.02    -0.01   0.08   0.03
  16   1    -0.10  -0.09  -0.01     0.02  -0.11  -0.02     0.01   0.03   0.01
  17   1     0.09   0.06  -0.00    -0.07  -0.00   0.03    -0.05  -0.09  -0.00
  18   1    -0.17  -0.20   0.14     0.04   0.11  -0.04     0.03  -0.04  -0.04
  19   1     0.13   0.05   0.01     0.09  -0.02   0.08    -0.04   0.04  -0.07
  20   1    -0.07   0.03  -0.01    -0.15   0.03  -0.01    -0.01  -0.03  -0.01
  21   1     0.17   0.01   0.05     0.09   0.08  -0.06    -0.05  -0.06   0.05
  22   1     0.01  -0.02   0.03    -0.17  -0.14   0.02     0.00   0.05  -0.01
  23   1     0.05   0.07  -0.06     0.20   0.07   0.02    -0.10  -0.04  -0.03
  24   1    -0.01  -0.03  -0.01    -0.22  -0.04  -0.01     0.12  -0.04   0.03
  25   1    -0.03  -0.07   0.06     0.20   0.08   0.01    -0.14  -0.02  -0.00
  26   1    -0.04   0.01   0.01    -0.19  -0.04  -0.01     0.12   0.15  -0.04
  27   1    -0.15  -0.01  -0.06     0.19   0.07  -0.03    -0.18  -0.09  -0.01
  28   1    -0.02  -0.00  -0.02    -0.05  -0.16   0.05     0.19   0.03   0.04
  29   1    -0.02   0.00   0.01    -0.07  -0.12  -0.07     0.19  -0.13   0.01
  30   1     0.14  -0.01   0.07    -0.09   0.04   0.04    -0.19   0.14   0.03
  31   1     0.05   0.02  -0.00     0.14   0.02   0.04     0.22  -0.16  -0.03
  32   1     0.00  -0.07  -0.08    -0.12   0.08  -0.02    -0.20   0.07  -0.03
  33   1     0.03  -0.08  -0.01     0.15  -0.10  -0.01     0.22  -0.07   0.02
  34   1    -0.05   0.06   0.06    -0.14   0.08   0.01    -0.19   0.11  -0.00
  35   1     0.07  -0.03  -0.00     0.18  -0.13  -0.01     0.13  -0.13  -0.02
  36   1    -0.14   0.06  -0.02    -0.10   0.06   0.02    -0.17   0.11   0.05
  37   1     0.08  -0.00   0.01     0.16  -0.03   0.01     0.12   0.00   0.01
  38   1    -0.12   0.05  -0.02    -0.09   0.02  -0.05    -0.15   0.04  -0.06
  39   1    -0.00  -0.07  -0.01     0.07  -0.11  -0.02     0.01  -0.08  -0.01
  40   1    -0.09   0.07   0.05    -0.02   0.04   0.07    -0.08   0.08   0.06
  41   1     0.02  -0.10  -0.01    -0.04   0.05   0.07    -0.00  -0.06   0.01
                     40                     41                     42
                        a                      a                      a 
 Frequencies --  1043.1771              1053.6033              1071.9033
 Red. masses --     9.3808                 8.9326                 9.0230
 Frc consts  --     0.0000                 0.0000                 0.0000
 IR Inten    --     6.9384                 6.1443                 3.0300
 Raman Activ --     0.0000                 0.0000                 0.0000
 Depolar     --     0.0000                 0.0000                 0.0000
 Atom AN      X      Y      Z        X      Y      Z        X      Y      Z
   1   7     0.03  -0.14  -0.02    -0.04   0.15   0.03     0.09  -0.10  -0.05
   2   6     0.05   0.28  -0.06    -0.05  -0.31   0.05    -0.06   0.28  -0.04
   3   6    -0.01  -0.18   0.13     0.06   0.22  -0.12    -0.09  -0.23   0.05
   4   6    -0.23  -0.11   0.02     0.15   0.03  -0.01     0.17   0.31  -0.11
   5   6    -0.13   0.18  -0.17     0.00  -0.06   0.07     0.10  -0.36   0.22
   6   6     0.24  -0.06   0.11    -0.14  -0.10   0.01    -0.33   0.02  -0.08
   7   6     0.14   0.01   0.05     0.13   0.08  -0.01    -0.05   0.04  -0.09
   8   6    -0.16   0.07  -0.02     0.02  -0.04  -0.08     0.13  -0.14   0.02
   9   6    -0.25  -0.08  -0.15    -0.31   0.05  -0.04    -0.07   0.13   0.02
  10   6     0.18   0.20   0.21     0.12   0.27   0.20    -0.05   0.09   0.07
  11   6     0.15  -0.19  -0.08     0.17  -0.25  -0.09     0.05  -0.09  -0.06
  12   6     0.03  -0.15  -0.09     0.07  -0.18  -0.12     0.06  -0.09  -0.03
  13   6    -0.04   0.14   0.08    -0.08   0.18   0.11    -0.05   0.08   0.03
  14   1     0.03  -0.08  -0.06    -0.03   0.07   0.04    -0.01   0.01  -0.01
  15   1     0.02  -0.02  -0.04    -0.02   0.03   0.04     0.01  -0.09  -0.04
  16   1     0.01   0.04  -0.00    -0.01  -0.02   0.01    -0.01  -0.02  -0.01
  17   1     0.11   0.16  -0.02    -0.11  -0.17   0.02     0.11   0.16  -0.01
  18   1     0.01   0.09   0.03    -0.01  -0.10  -0.02    -0.04   0.05   0.06
  19   1    -0.06  -0.07   0.04     0.11   0.10  -0.05    -0.18  -0.13   0.07
  20   1     0.13  -0.00   0.03    -0.08  -0.00  -0.03     0.01   0.03   0.01
  21   1    -0.13  -0.05   0.00     0.11   0.03   0.01     0.01   0.07  -0.06
  22   1     0.07   0.02   0.00    -0.08  -0.01  -0.00     0.18   0.08  -0.03
  23   1    -0.12   0.01  -0.04     0.06   0.01   0.00     0.02  -0.11   0.09
  24   1     0.07   0.10  -0.04    -0.08  -0.08   0.02     0.10  -0.03   0.06
  25   1    -0.04  -0.05   0.02    -0.02  -0.03   0.02    -0.08   0.01  -0.04
  26   1     0.14   0.01   0.03    -0.14  -0.05   0.00     0.00   0.01  -0.02
  27   1    -0.07  -0.05   0.01     0.09   0.05  -0.01     0.07   0.04  -0.01
  28   1     0.11   0.03   0.02    -0.01  -0.01  -0.00     0.06   0.06  -0.02
  29   1    -0.01  -0.01  -0.01    -0.06  -0.01  -0.02     0.15  -0.06   0.01
  30   1    -0.02   0.00  -0.01     0.14  -0.08   0.01    -0.00  -0.02  -0.04
  31   1    -0.03  -0.04  -0.04    -0.12   0.07  -0.01     0.00  -0.00   0.01
  32   1    -0.05  -0.03  -0.04    -0.03  -0.01  -0.03    -0.08   0.08   0.04
  33   1     0.05   0.06   0.06    -0.03   0.08   0.05     0.03   0.03   0.02
  34   1     0.03   0.06   0.05     0.07   0.05   0.08    -0.04   0.04   0.00
  35   1     0.01  -0.03  -0.02    -0.00  -0.02  -0.02     0.03  -0.05  -0.02
  36   1    -0.00  -0.02  -0.02     0.04  -0.07  -0.04    -0.00  -0.01  -0.00
  37   1    -0.03  -0.02  -0.02    -0.03  -0.04  -0.03     0.03  -0.03  -0.01
  38   1    -0.04  -0.02  -0.03     0.01  -0.04  -0.03     0.01  -0.02  -0.02
  39   1    -0.07   0.06   0.02    -0.08   0.09   0.03    -0.02   0.02   0.01
  40   1    -0.07   0.07   0.02    -0.07   0.06   0.02    -0.02   0.03   0.02
  41   1    -0.00  -0.03  -0.02    -0.01   0.00  -0.01    -0.01   0.02   0.01
                     43                     44                     45
                        a                      a                      a 
 Frequencies --  1090.1521              1095.7974              1099.1198
 Red. masses --     7.9656                 9.1268                 7.5656
 Frc consts  --     0.0000                 0.0000                 0.0000
 IR Inten    --     3.5384                 0.7980                 3.0999
 Raman Activ --     0.0000                 0.0000                 0.0000
 Depolar     --     0.0000                 0.0000                 0.0000
 Atom AN      X      Y      Z        X      Y      Z        X      Y      Z
   1   7     0.03   0.04   0.04     0.02   0.01  -0.00     0.01   0.01   0.03
   2   6    -0.12  -0.10  -0.04    -0.06  -0.01   0.00    -0.03  -0.04  -0.03
   3   6     0.14   0.06   0.04     0.03   0.00  -0.01     0.12  -0.02   0.08
   4   6     0.03   0.15  -0.15     0.11   0.18  -0.08    -0.26  -0.19   0.02
   5   6    -0.41  -0.07   0.01    -0.20  -0.17   0.05     0.29   0.18   0.01
   6   6     0.22  -0.20   0.11     0.05  -0.06   0.06    -0.28  -0.17  -0.04
   7   6     0.06   0.17   0.02     0.20   0.03   0.05     0.04   0.23  -0.05
   8   6    -0.09  -0.12  -0.05    -0.16  -0.00  -0.08    -0.00  -0.17  -0.07
   9   6     0.13   0.13   0.08    -0.31   0.01  -0.12    -0.13   0.16   0.02
  10   6    -0.27   0.12   0.03     0.42  -0.22   0.02     0.06   0.03   0.06
  11   6     0.00  -0.14  -0.13    -0.06   0.23   0.14    -0.04  -0.02  -0.04
  12   6     0.03   0.10   0.10    -0.16   0.17   0.07    -0.05   0.20   0.13
  13   6    -0.06  -0.08  -0.09     0.10  -0.16  -0.08    -0.00  -0.16  -0.12
  14   1    -0.03   0.04   0.01    -0.01   0.03   0.01    -0.00   0.00  -0.01
  15   1    -0.01  -0.05  -0.02    -0.00  -0.03  -0.01     0.00  -0.02  -0.01
  16   1    -0.03   0.03   0.01    -0.01  -0.01   0.00    -0.01   0.03   0.01
  17   1     0.04  -0.04  -0.01     0.01  -0.00  -0.00     0.04  -0.02  -0.01
  18   1    -0.06  -0.08   0.06    -0.03  -0.02   0.03    -0.02  -0.01   0.03
  19   1     0.11   0.05  -0.02    -0.00  -0.00   0.01     0.11   0.03  -0.00
  20   1     0.09   0.00   0.01    -0.00   0.02  -0.00     0.12  -0.01   0.02
  21   1     0.09   0.06  -0.01     0.07   0.07  -0.03    -0.12  -0.08   0.04
  22   1     0.07   0.12  -0.04     0.07   0.06  -0.02    -0.11  -0.04   0.01
  23   1    -0.14  -0.02  -0.05    -0.07  -0.05   0.02     0.17   0.09  -0.03
  24   1    -0.07  -0.06   0.00    -0.10  -0.05   0.01     0.25   0.07   0.00
  25   1     0.09  -0.06   0.09     0.02  -0.02   0.02    -0.18  -0.10   0.03
  26   1     0.17   0.05   0.03     0.03  -0.02   0.02    -0.10   0.00  -0.01
  27   1    -0.05   0.03  -0.06     0.09   0.03   0.01     0.02   0.08  -0.08
  28   1     0.19   0.03   0.01     0.08   0.01   0.01     0.19   0.06  -0.01
  29   1     0.12  -0.05  -0.01    -0.04  -0.01  -0.02     0.14  -0.07  -0.02
  30   1    -0.06  -0.02  -0.06    -0.03  -0.01  -0.02     0.04  -0.08  -0.06
  31   1     0.16  -0.07   0.02    -0.14   0.01  -0.03     0.00  -0.01   0.00
  32   1     0.09   0.01   0.06    -0.15   0.04  -0.03    -0.06   0.06   0.03
  33   1    -0.01   0.03   0.01     0.21  -0.10   0.00     0.11  -0.03   0.01
  34   1    -0.09   0.04  -0.02     0.18  -0.09  -0.01     0.07  -0.03   0.00
  35   1     0.11  -0.12  -0.04    -0.05   0.09   0.04     0.05  -0.04  -0.01
  36   1     0.08  -0.07  -0.02    -0.06   0.09   0.05     0.04  -0.03   0.00
  37   1     0.06   0.01   0.02    -0.06   0.07   0.02     0.01   0.04   0.03
  38   1     0.03   0.01   0.01    -0.07   0.06   0.02     0.00   0.04   0.03
  39   1     0.10  -0.07  -0.02     0.04  -0.06  -0.02     0.11  -0.09  -0.03
  40   1     0.08  -0.06   0.00     0.03  -0.05  -0.03     0.10  -0.09  -0.02
  41   1    -0.04   0.10   0.06     0.03  -0.05  -0.02    -0.02   0.07   0.05
                     46                     47                     48
                        a                      a                      a 
 Frequencies --  1106.4126              1115.5317              1121.5687
 Red. masses --     7.9205                 7.3952                 8.1568
 Frc consts  --     0.0000                 0.0000                 0.0000
 IR Inten    --     0.6021                 4.7374                 0.9614
 Raman Activ --     0.0000                 0.0000                 0.0000
 Depolar     --     0.0000                 0.0000                 0.0000
 Atom AN      X      Y      Z        X      Y      Z        X      Y      Z
   1   7    -0.03  -0.02  -0.03    -0.09  -0.03  -0.04    -0.03  -0.01  -0.02
   2   6     0.09   0.06   0.02     0.21   0.08   0.03     0.09   0.05   0.01
   3   6    -0.15  -0.00  -0.06    -0.32   0.06  -0.10    -0.16   0.01  -0.05
   4   6     0.15  -0.01   0.07     0.26  -0.14   0.14     0.16  -0.04   0.06
   5   6     0.06  -0.03   0.02    -0.05   0.11  -0.05     0.06  -0.02   0.05
   6   6    -0.05   0.04  -0.02     0.14  -0.04  -0.00    -0.19  -0.18   0.05
   7   6     0.06  -0.05   0.03    -0.15   0.02   0.01     0.39   0.18   0.08
   8   6    -0.03   0.13   0.01     0.14  -0.13  -0.05    -0.36   0.19  -0.08
   9   6     0.01  -0.11  -0.03    -0.18   0.11   0.04     0.18  -0.16  -0.04
  10   6    -0.06   0.22   0.10     0.07   0.06   0.05    -0.07  -0.04  -0.08
  11   6     0.30  -0.20  -0.02    -0.21  -0.05  -0.10    -0.16   0.02  -0.03
  12   6    -0.36   0.28   0.06     0.18   0.11   0.14     0.16  -0.04   0.02
  13   6     0.11  -0.28  -0.15    -0.10  -0.04  -0.06    -0.06   0.06   0.03
  14   1     0.02  -0.03  -0.00     0.04  -0.07  -0.02     0.02  -0.03  -0.00
  15   1     0.00   0.04   0.02     0.01   0.11   0.03     0.00   0.04   0.01
  16   1     0.02  -0.02  -0.01     0.05  -0.02  -0.01     0.02  -0.02  -0.01
  17   1    -0.03   0.03   0.01    -0.07   0.05   0.01    -0.03   0.03   0.00
  18   1     0.04   0.03  -0.05     0.09   0.04  -0.11     0.04   0.02  -0.05
  19   1    -0.13  -0.03  -0.00    -0.21  -0.02  -0.04    -0.12  -0.02  -0.01
  20   1    -0.10  -0.01  -0.01    -0.20  -0.04  -0.02    -0.09  -0.01  -0.01
  21   1     0.02  -0.01   0.01     0.06  -0.04   0.05     0.03  -0.02   0.02
  22   1     0.04  -0.02   0.02     0.10  -0.01   0.04     0.05  -0.00   0.02
  23   1    -0.03  -0.03   0.02    -0.12  -0.01  -0.04    -0.01  -0.02   0.01
  24   1    -0.02  -0.01   0.01    -0.05  -0.02  -0.01     0.05  -0.02   0.01
  25   1    -0.04   0.01  -0.02    -0.02  -0.04   0.03    -0.15  -0.09   0.04
  26   1    -0.05  -0.02  -0.01     0.06   0.05   0.00    -0.14  -0.08   0.01
  27   1    -0.00  -0.03   0.03    -0.15  -0.03  -0.05     0.10   0.06  -0.01
  28   1    -0.03  -0.00   0.01    -0.03  -0.06   0.00     0.26   0.08   0.02
  29   1    -0.12   0.05   0.00     0.12  -0.11  -0.01    -0.23   0.11  -0.02
  30   1     0.03   0.02   0.04     0.15  -0.10   0.00    -0.10   0.06   0.00
  31   1     0.03  -0.00  -0.01    -0.05   0.05   0.01     0.13  -0.09  -0.01
  32   1     0.07  -0.07  -0.03    -0.02   0.01  -0.00     0.12  -0.09  -0.03
  33   1    -0.12   0.09   0.03     0.10  -0.04   0.01    -0.04  -0.02  -0.02
  34   1    -0.05   0.09   0.05     0.13  -0.04   0.02    -0.00  -0.02  -0.02
  35   1     0.17  -0.08  -0.01    -0.04  -0.01  -0.03    -0.05   0.02  -0.01
  36   1     0.19  -0.11  -0.01    -0.03  -0.03  -0.03    -0.05   0.00  -0.02
  37   1    -0.22   0.13   0.02     0.13  -0.02   0.03     0.10  -0.05   0.00
  38   1    -0.20   0.13   0.03     0.14  -0.02   0.04     0.11  -0.04   0.01
  39   1     0.07  -0.10  -0.04     0.10  -0.04  -0.01     0.01   0.02   0.01
  40   1     0.08  -0.10  -0.05     0.10  -0.06   0.00     0.01   0.01   0.01
  41   1     0.02  -0.04  -0.02    -0.06   0.15   0.08    -0.02   0.05   0.03
                     49                     50                     51
                        a                      a                      a 
 Frequencies --  1134.8581              1162.6105              1169.9067
 Red. masses --     8.3947                 7.2008                 6.0440
 Frc consts  --     0.0000                 0.0000                 0.0000
 IR Inten    --     1.4290                 5.5310                 5.9618
 Raman Activ --     0.0000                 0.0000                 0.0000
 Depolar     --     0.0000                 0.0000                 0.0000
 Atom AN      X      Y      Z        X      Y      Z        X      Y      Z
   1   7    -0.06  -0.01  -0.00     0.02   0.04  -0.15    -0.05  -0.03   0.10
   2   6     0.13   0.02  -0.01    -0.07  -0.07   0.34     0.11   0.04  -0.22
   3   6    -0.19   0.06  -0.03     0.12  -0.01  -0.34    -0.15   0.03   0.18
   4   6     0.13  -0.14   0.09    -0.02   0.05   0.24     0.03  -0.07  -0.03
   5   6    -0.07   0.12  -0.05    -0.00  -0.02  -0.22    -0.04   0.00  -0.05
   6   6     0.01  -0.22   0.09    -0.02  -0.02   0.21    -0.06  -0.03   0.16
   7   6    -0.01   0.22  -0.07    -0.00   0.03  -0.21    -0.00  -0.02  -0.26
   8   6    -0.01  -0.24  -0.03    -0.01  -0.04   0.19     0.01   0.01   0.28
   9   6     0.09   0.23   0.10     0.03   0.01  -0.14     0.03  -0.04  -0.24
  10   6    -0.09  -0.17  -0.09    -0.00  -0.02   0.10     0.03  -0.02   0.18
  11   6     0.25   0.17   0.16    -0.01  -0.00  -0.08    -0.02  -0.01  -0.15
  12   6    -0.23  -0.17  -0.18     0.02   0.00   0.06     0.04   0.01   0.12
  13   6     0.13   0.08   0.09    -0.01  -0.00  -0.04    -0.02  -0.00  -0.07
  14   1     0.02  -0.05  -0.01    -0.02   0.09   0.09     0.01  -0.08  -0.06
  15   1     0.00   0.07   0.02    -0.03   0.02   0.08     0.02   0.02  -0.04
  16   1     0.03   0.00  -0.00     0.02  -0.19  -0.03     0.00   0.12   0.02
  17   1    -0.03   0.03  -0.00    -0.20   0.02   0.09     0.10  -0.02  -0.06
  18   1     0.05  -0.00  -0.06     0.02  -0.03  -0.08     0.01   0.00   0.02
  19   1    -0.07   0.02  -0.04    -0.08  -0.10   0.14     0.13   0.10  -0.10
  20   1    -0.11  -0.04  -0.01     0.08   0.23  -0.09    -0.16  -0.17   0.05
  21   1     0.07  -0.03   0.05    -0.12   0.02  -0.11     0.20   0.04   0.04
  22   1     0.06   0.00   0.02     0.10  -0.12   0.05    -0.07   0.01  -0.00
  23   1    -0.01   0.04  -0.04    -0.02  -0.06   0.09     0.19   0.07   0.01
  24   1     0.01   0.00  -0.01     0.00   0.15  -0.05    -0.10  -0.01  -0.01
  25   1    -0.01  -0.07   0.06    -0.02   0.03  -0.07     0.15   0.09  -0.05
  26   1     0.02  -0.01   0.03     0.08  -0.11   0.05    -0.04  -0.11   0.03
  27   1     0.03   0.08  -0.07     0.06   0.00   0.06     0.22   0.05   0.09
  28   1     0.13   0.04  -0.02    -0.01   0.13  -0.05    -0.13   0.11  -0.06
  29   1     0.16  -0.04  -0.00     0.11   0.07   0.05     0.08   0.14   0.08
  30   1    -0.05  -0.05  -0.09    -0.11   0.03  -0.07    -0.17   0.07  -0.08
  31   1     0.01  -0.00   0.02    -0.00  -0.10  -0.03    -0.05  -0.12  -0.06
  32   1    -0.05   0.12   0.08    -0.05   0.06   0.06    -0.07   0.07   0.07
  33   1    -0.00   0.00  -0.02     0.06   0.04   0.02     0.07   0.08   0.04
  34   1    -0.10  -0.01  -0.05    -0.06   0.01  -0.04    -0.10   0.02  -0.06
  35   1     0.05   0.02   0.04    -0.00  -0.05  -0.02    -0.03  -0.08  -0.04
  36   1     0.03   0.07   0.07    -0.03   0.03   0.03    -0.05   0.04   0.04
  37   1    -0.13   0.02  -0.04     0.04   0.02   0.02     0.07   0.04   0.03
  38   1    -0.16   0.01  -0.06    -0.01  -0.00  -0.02    -0.01  -0.00  -0.03
  39   1    -0.14   0.06   0.02     0.03  -0.03  -0.01     0.06  -0.07  -0.02
  40   1    -0.14   0.09   0.00     0.01   0.00   0.02     0.01   0.00   0.03
  41   1     0.07  -0.18  -0.10    -0.01   0.02   0.02    -0.03   0.04   0.04
                     52                     53                     54
                        a                      a                      a 
 Frequencies --  1202.3620              1225.2046              1233.5515
 Red. masses --     5.6932                 3.9229                 3.5775
 Frc consts  --     0.0000                 0.0000                 0.0000
 IR Inten    --     1.1552                11.6608                11.0484
 Raman Activ --     0.0000                 0.0000                 0.0000
 Depolar     --     0.0000                 0.0000                 0.0000
 Atom AN      X      Y      Z        X      Y      Z        X      Y      Z
   1   7     0.01   0.00  -0.02    -0.09   0.02  -0.17    -0.12   0.01  -0.08
   2   6    -0.03  -0.00   0.03     0.07  -0.05   0.18     0.14  -0.05   0.02
   3   6     0.03  -0.00   0.00    -0.03   0.04   0.06    -0.10  -0.04   0.03
   4   6     0.01  -0.01  -0.06    -0.03  -0.14  -0.19    -0.12   0.04   0.09
   5   6     0.02   0.04   0.09    -0.09   0.11   0.20    -0.03  -0.14  -0.11
   6   6     0.03  -0.00  -0.11     0.01  -0.10  -0.15    -0.11   0.09   0.08
   7   6     0.02   0.00   0.10    -0.03   0.01   0.03    -0.02  -0.08   0.02
   8   6    -0.01  -0.01  -0.03     0.04   0.00   0.05     0.01   0.08  -0.11
   9   6     0.04   0.08  -0.08     0.02  -0.03  -0.05    -0.07  -0.07   0.13
  10   6    -0.08  -0.14   0.18     0.04  -0.01   0.03     0.01   0.05  -0.08
  11   6     0.09   0.19  -0.25    -0.01  -0.05   0.00    -0.00   0.03   0.00
  12   6    -0.11  -0.22   0.29     0.05   0.05  -0.03    -0.05  -0.08   0.09
  13   6     0.08   0.15  -0.20    -0.03  -0.04   0.03     0.04   0.07  -0.08
  14   1    -0.00   0.01   0.01     0.02   0.01   0.06     0.02  -0.02   0.02
  15   1    -0.00  -0.01   0.01    -0.03   0.12   0.10    -0.01   0.12   0.06
  16   1    -0.00  -0.02  -0.00     0.05  -0.15  -0.04     0.05  -0.06  -0.02
  17   1    -0.01   0.03   0.01    -0.02   0.41   0.05     0.03   0.30   0.01
  18   1    -0.00   0.00   0.00    -0.02  -0.31  -0.10    -0.02  -0.31  -0.09
  19   1    -0.08  -0.03   0.01    -0.11  -0.02  -0.01     0.35   0.12  -0.00
  20   1     0.07   0.02  -0.00     0.29   0.05   0.01    -0.09  -0.05   0.01
  21   1    -0.06  -0.04   0.02     0.04  -0.06   0.10     0.18   0.12  -0.06
  22   1    -0.00   0.03  -0.01     0.11   0.17  -0.04     0.13  -0.01   0.02
  23   1    -0.08  -0.00  -0.04     0.08   0.12  -0.11     0.19   0.01   0.08
  24   1     0.03  -0.05   0.02     0.09  -0.11   0.04     0.09   0.12  -0.02
  25   1    -0.01  -0.03   0.04     0.20   0.01   0.08    -0.00   0.06  -0.07
  26   1    -0.07   0.04  -0.02    -0.09   0.07  -0.03     0.22   0.02   0.02
  27   1    -0.05  -0.01  -0.03     0.20   0.10  -0.02    -0.06  -0.05   0.02
  28   1    -0.06  -0.08   0.02    -0.14  -0.08   0.00     0.18   0.08   0.01
  29   1    -0.14   0.07  -0.01    -0.05   0.05   0.01     0.07  -0.12  -0.03
  30   1     0.15  -0.09   0.00    -0.08   0.05   0.00    -0.01   0.05   0.06
  31   1    -0.15   0.01  -0.02    -0.06   0.01  -0.01     0.06   0.06   0.03
  32   1     0.15  -0.04   0.06    -0.04   0.02   0.01     0.03  -0.07  -0.08
  33   1    -0.05   0.18   0.05     0.01   0.01   0.01    -0.08  -0.02  -0.02
  34   1     0.09  -0.14  -0.13    -0.10   0.06  -0.00     0.14  -0.04   0.04
  35   1    -0.13  -0.13  -0.06     0.00   0.01   0.00    -0.08   0.04   0.00
  36   1     0.11   0.06   0.16    -0.08   0.02  -0.02     0.13  -0.06   0.00
  37   1     0.06   0.20   0.07     0.01  -0.04  -0.01    -0.05   0.10   0.03
  38   1    -0.03  -0.13  -0.19    -0.03   0.05   0.04     0.08  -0.09  -0.06
  39   1     0.08  -0.23  -0.05    -0.00   0.05   0.01     0.03  -0.10  -0.02
  40   1    -0.13   0.16   0.16     0.04  -0.04  -0.03    -0.06   0.07   0.06
  41   1    -0.03  -0.07   0.09    -0.00   0.03  -0.01    -0.01  -0.04   0.03
                     55                     56                     57
                        a                      a                      a 
 Frequencies --  1247.2384              1253.8301              1259.2256
 Red. masses --     3.5326                 3.4386                 3.1758
 Frc consts  --     0.0000                 0.0000                 0.0000
 IR Inten    --     2.1170                 1.2166                 1.9665
 Raman Activ --     0.0000                 0.0000                 0.0000
 Depolar     --     0.0000                 0.0000                 0.0000
 Atom AN      X      Y      Z        X      Y      Z        X      Y      Z
   1   7    -0.06   0.01  -0.05     0.02  -0.00  -0.02    -0.05   0.02  -0.06
   2   6     0.05  -0.02  -0.00    -0.04   0.01   0.04     0.00  -0.01  -0.01
   3   6     0.01  -0.03   0.07     0.03   0.06   0.06     0.10  -0.02   0.15
   4   6    -0.03   0.08   0.00     0.07  -0.08  -0.13     0.08   0.10  -0.09
   5   6     0.07  -0.06  -0.02     0.01   0.06   0.04     0.16  -0.00  -0.05
   6   6     0.01   0.11   0.03    -0.02   0.02   0.09     0.14   0.06   0.10
   7   6     0.06  -0.05   0.00     0.02  -0.08  -0.17     0.04   0.10  -0.06
   8   6    -0.07  -0.00   0.06    -0.03   0.09   0.08    -0.02  -0.12   0.03
   9   6    -0.02   0.16  -0.16    -0.17  -0.02   0.03     0.08  -0.01   0.04
  10   6    -0.16  -0.07   0.14    -0.09   0.13  -0.09     0.08   0.01  -0.08
  11   6    -0.02   0.12  -0.02    -0.09   0.07   0.09     0.03  -0.08   0.02
  12   6    -0.04   0.05  -0.15    -0.12  -0.07  -0.01     0.05  -0.00   0.05
  13   6    -0.00  -0.06   0.15     0.08   0.08  -0.02    -0.01   0.02  -0.07
  14   1     0.01  -0.01   0.01    -0.00   0.01   0.01     0.01  -0.01   0.02
  15   1    -0.01   0.06   0.03    -0.00  -0.02   0.01    -0.01   0.05   0.04
  16   1     0.03  -0.04  -0.01    -0.01  -0.02  -0.00     0.02  -0.05  -0.02
  17   1     0.04   0.21  -0.00    -0.01   0.01   0.01     0.07   0.27  -0.00
  18   1    -0.03  -0.20  -0.03    -0.00   0.03   0.02    -0.06  -0.24  -0.00
  19   1     0.14   0.04  -0.00    -0.29  -0.07  -0.03    -0.05  -0.02  -0.01
  20   1    -0.05  -0.05   0.02     0.19   0.02   0.01    -0.03  -0.08   0.04
  21   1     0.02   0.04  -0.03     0.06  -0.04   0.07    -0.10  -0.04   0.01
  22   1    -0.06  -0.04   0.00    -0.19   0.01  -0.03    -0.32  -0.09  -0.02
  23   1    -0.05  -0.05   0.03     0.03   0.04  -0.03    -0.16  -0.09   0.02
  24   1    -0.06   0.01  -0.00    -0.11  -0.07   0.01    -0.35  -0.09  -0.01
  25   1    -0.09   0.01  -0.04     0.16   0.09  -0.04    -0.30  -0.10  -0.03
  26   1    -0.06  -0.06   0.00    -0.17  -0.12   0.02    -0.15  -0.12   0.02
  27   1    -0.19  -0.11   0.03    -0.00  -0.06   0.07    -0.17  -0.06  -0.01
  28   1    -0.01   0.01   0.00     0.02   0.12  -0.04    -0.03   0.00  -0.01
  29   1    -0.10   0.10   0.01     0.21  -0.11   0.02     0.02   0.03   0.01
  30   1     0.29  -0.20  -0.04    -0.02   0.02  -0.00    -0.05  -0.02  -0.05
  31   1     0.04  -0.15  -0.04     0.27  -0.11   0.00     0.05  -0.01   0.01
  32   1     0.21  -0.04   0.10     0.11  -0.11  -0.05    -0.23   0.14   0.01
  33   1     0.25  -0.03   0.03     0.18  -0.17  -0.03    -0.16   0.03  -0.02
  34   1     0.07  -0.11  -0.10     0.24  -0.09   0.05    -0.07   0.07   0.04
  35   1     0.28  -0.18  -0.01     0.11  -0.01   0.02    -0.11   0.09   0.01
  36   1    -0.03   0.05   0.04     0.27  -0.15  -0.03    -0.08   0.02  -0.03
  37   1     0.17  -0.19  -0.05    -0.02   0.03   0.00    -0.14   0.10   0.02
  38   1    -0.10   0.09   0.05     0.17  -0.13  -0.04     0.06  -0.03  -0.01
  39   1    -0.08   0.13   0.04    -0.02  -0.06  -0.01     0.04  -0.06  -0.02
  40   1     0.03  -0.07  -0.09    -0.07   0.07   0.04    -0.01   0.02   0.04
  41   1     0.04  -0.01  -0.07     0.02  -0.08  -0.01    -0.02   0.02   0.04
                     58                     59                     60
                        a                      a                      a 
 Frequencies --  1270.1019              1276.3118              1281.5530
 Red. masses --     2.4488                 1.5977                 2.0921
 Frc consts  --     0.0000                 0.0000                 0.0000
 IR Inten    --     2.4285                 1.0659                 2.3617
 Raman Activ --     0.0000                 0.0000                 0.0000
 Depolar     --     0.0000                 0.0000                 0.0000
 Atom AN      X      Y      Z        X      Y      Z        X      Y      Z
   1   7     0.00  -0.01  -0.01     0.02  -0.01   0.01    -0.02  -0.00   0.01
   2   6    -0.01   0.02   0.03     0.00   0.01   0.03     0.03   0.02  -0.02
   3   6    -0.01   0.08   0.08    -0.06   0.05   0.00    -0.02  -0.01   0.02
   4   6     0.02  -0.06  -0.04    -0.03  -0.08  -0.03    -0.04   0.10   0.13
   5   6    -0.00  -0.05  -0.08    -0.06  -0.06  -0.04    -0.01  -0.00   0.02
   6   6    -0.08   0.06   0.10    -0.03   0.05   0.01     0.05  -0.07  -0.13
   7   6     0.00  -0.07  -0.04    -0.03  -0.05   0.05     0.02  -0.01  -0.02
   8   6     0.02   0.02  -0.15    -0.02  -0.05   0.03     0.02  -0.04   0.03
   9   6     0.03   0.01   0.07     0.00   0.02   0.01     0.00   0.06  -0.08
  10   6     0.04  -0.10   0.05     0.01  -0.03   0.01     0.02   0.01  -0.02
  11   6     0.09   0.00  -0.09     0.01  -0.03   0.02    -0.03  -0.09   0.11
  12   6     0.07   0.01   0.02     0.05   0.06  -0.07     0.01  -0.00   0.01
  13   6    -0.05  -0.07   0.04     0.01   0.02  -0.05     0.02   0.04  -0.07
  14   1    -0.01   0.01   0.00    -0.01   0.01   0.00    -0.00  -0.01  -0.01
  15   1    -0.00  -0.00  -0.00     0.00  -0.01  -0.00     0.00   0.02  -0.01
  16   1     0.00  -0.01  -0.00    -0.01   0.00   0.00     0.01   0.00   0.00
  17   1    -0.03  -0.01   0.01    -0.03  -0.07   0.01    -0.00  -0.01  -0.00
  18   1    -0.01   0.00   0.01     0.02   0.08   0.00    -0.01  -0.07  -0.00
  19   1    -0.26  -0.05  -0.04    -0.11  -0.01  -0.02     0.10   0.04  -0.00
  20   1     0.22   0.02   0.02     0.18   0.05  -0.00    -0.05  -0.02   0.01
  21   1     0.32   0.10   0.03     0.24   0.07   0.02     0.16   0.13  -0.07
  22   1    -0.32  -0.08  -0.01    -0.04   0.02  -0.01    -0.12  -0.12   0.03
  23   1     0.00  -0.03   0.04     0.14   0.03   0.02    -0.43  -0.16   0.00
  24   1     0.07   0.08  -0.02     0.07   0.05  -0.01     0.44   0.16   0.01
  25   1     0.16   0.11  -0.06     0.03   0.03  -0.02     0.25   0.05   0.06
  26   1    -0.03  -0.08   0.02     0.10   0.03   0.00    -0.29  -0.03  -0.03
  27   1    -0.20  -0.11   0.02    -0.04  -0.03   0.01    -0.03  -0.03   0.01
  28   1     0.28   0.16  -0.00     0.07   0.00   0.02    -0.02   0.00  -0.01
  29   1     0.04  -0.12  -0.04    -0.16   0.12   0.01    -0.07   0.07   0.01
[...]
  33   1    -0.00  -0.01   0.13     0.01   0.02  -0.24     0.00   0.01  -0.16
  34   1     0.06   0.10  -0.04    -0.13  -0.25   0.09    -0.06  -0.11   0.04
  35   1    -0.00  -0.02   0.23    -0.00  -0.03   0.33    -0.00  -0.00   0.01
  36   1     0.09   0.17  -0.06     0.13   0.24  -0.09     0.01   0.03  -0.01
  37   1     0.01   0.05  -0.62    -0.00  -0.01   0.11     0.00   0.00  -0.06
  38   1    -0.28  -0.54   0.20     0.04   0.08  -0.03    -0.02  -0.05   0.02
  39   1    -0.01  -0.00   0.04     0.00   0.00  -0.03    -0.00  -0.00   0.01
  40   1     0.02   0.04  -0.02    -0.01  -0.02   0.01     0.00   0.00  -0.00
  41   1     0.05  -0.00   0.02    -0.03   0.00  -0.01     0.00   0.00   0.00
                    103                    104                    105
                        a                      a                      a 
 Frequencies --  2951.4977              2952.8732              2954.9588
 Red. masses --     1.8567                 1.4781                 1.4931
 Frc consts  --     0.0000                 0.0000                 0.0000
 IR Inten    --     0.8409                 4.6270                 0.8682
 Raman Activ --     0.0000                 0.0000                 0.0000
 Depolar     --     0.0000                 0.0000                 0.0000
 Atom AN      X      Y      Z        X      Y      Z        X      Y      Z
   1   7    -0.00  -0.00  -0.00     0.00   0.00   0.00    -0.00   0.00  -0.00
   2   6     0.19  -0.05   0.17    -0.04   0.01  -0.04    -0.03   0.01  -0.03
   3   6    -0.01   0.06   0.00     0.01  -0.02  -0.01     0.02  -0.05   0.01
   4   6    -0.01   0.02  -0.02    -0.00   0.01  -0.03    -0.03   0.08  -0.13
   5   6     0.01  -0.02   0.01     0.02  -0.05   0.01     0.03  -0.07   0.03
   6   6    -0.01   0.02  -0.01     0.00  -0.01  -0.02    -0.01   0.01  -0.02
   7   6     0.01  -0.02   0.03    -0.02   0.04  -0.05     0.02  -0.04   0.04
   8   6    -0.00  -0.00   0.01     0.03   0.04   0.04    -0.02  -0.03  -0.03
   9   6    -0.01  -0.02  -0.01    -0.03  -0.05  -0.05     0.00   0.00   0.00
  10   6     0.01   0.02   0.02     0.04   0.08   0.06    -0.01  -0.01  -0.01
  11   6    -0.01  -0.02  -0.01    -0.03  -0.06  -0.06     0.01   0.03   0.03
  12   6     0.00   0.00   0.00     0.00   0.00   0.00     0.00   0.01   0.01
  13   6     0.00   0.00  -0.00     0.01   0.00   0.01    -0.00  -0.00  -0.00
  14   1     0.00   0.00  -0.00    -0.00  -0.00   0.00    -0.00  -0.00   0.00
  15   1     0.02  -0.01   0.01    -0.00   0.00  -0.00     0.00  -0.00   0.00
  16   1    -0.00  -0.00   0.01     0.00   0.00  -0.00    -0.00   0.00  -0.00
  17   1     0.00  -0.00  -0.42    -0.00   0.00   0.09    -0.00  -0.00   0.07
  18   1    -0.69   0.18  -0.18     0.15  -0.04   0.04     0.12  -0.03   0.03
  19   1     0.07  -0.21  -0.07    -0.03   0.09   0.03    -0.07   0.20   0.06
  20   1    -0.00   0.01   0.07     0.00  -0.00  -0.01     0.00  -0.01  -0.11
  21   1     0.03  -0.08  -0.03     0.02  -0.05  -0.02     0.13  -0.32  -0.14
  22   1    -0.00   0.00   0.11     0.00   0.00   0.15    -0.00   0.02   0.63
  23   1    -0.04   0.09   0.04    -0.07   0.18   0.07    -0.11   0.29   0.11
  24   1     0.00  -0.00  -0.10     0.00  -0.01  -0.12     0.01  -0.01  -0.24
  25   1     0.04  -0.09  -0.04    -0.01   0.02   0.00     0.03  -0.07  -0.03
  26   1    -0.00   0.00   0.09     0.00  -0.00   0.06    -0.00   0.00   0.10
  27   1    -0.04   0.08   0.03     0.07  -0.16  -0.06    -0.07   0.16   0.06
  28   1     0.01  -0.00  -0.13    -0.01   0.01   0.27     0.01  -0.01  -0.21
  29   1     0.00   0.00  -0.02     0.01   0.02  -0.21    -0.01  -0.01   0.14
  30   1     0.01   0.01  -0.00    -0.11  -0.18   0.06     0.07   0.11  -0.04
  31   1    -0.00  -0.01   0.08    -0.01  -0.02   0.27     0.00   0.00  -0.01
  32   1     0.04   0.07  -0.03     0.12   0.22  -0.08    -0.01  -0.01   0.00
  33   1     0.00   0.01  -0.11     0.01   0.03  -0.37    -0.00  -0.00   0.05
  34   1    -0.05  -0.09   0.03    -0.18  -0.33   0.12     0.02   0.04  -0.01
  35   1    -0.00  -0.01   0.08    -0.01  -0.03   0.33     0.00   0.01  -0.13
  36   1     0.04   0.07  -0.02     0.13   0.25  -0.09    -0.06  -0.10   0.04
  37   1    -0.00   0.00  -0.01    -0.00   0.00  -0.02     0.00   0.00  -0.02
  38   1    -0.00  -0.01   0.00    -0.01  -0.02   0.01    -0.01  -0.02   0.01
  39   1    -0.00   0.00   0.00     0.00   0.00  -0.02    -0.00  -0.00   0.01
  40   1    -0.00  -0.00   0.00    -0.01  -0.02   0.01     0.01   0.01  -0.00
  41   1    -0.00   0.00  -0.00    -0.01   0.00  -0.00     0.01  -0.00   0.00
                    106                    107                    108
                        a                      a                      a 
 Frequencies --  2956.1205              2956.8499              2965.8620
 Red. masses --     1.5589                 1.5103                 1.5562
 Frc consts  --     0.0000                 0.0000                 0.0000
 IR Inten    --     7.5175                 0.6068                49.6852
 Raman Activ --     0.0000                 0.0000                 0.0000
 Depolar     --     0.0000                 0.0000                 0.0000
 Atom AN      X      Y      Z        X      Y      Z        X      Y      Z
   1   7    -0.00   0.00  -0.00     0.00  -0.00   0.00     0.00  -0.00  -0.00
   2   6     0.00  -0.00   0.00    -0.03   0.01  -0.02    -0.05   0.01  -0.02
   3   6     0.01  -0.02   0.02    -0.01   0.04  -0.02    -0.03   0.09  -0.08
   4   6    -0.01   0.03  -0.04     0.01  -0.03   0.05    -0.00  -0.00   0.00
   5   6    -0.02   0.05  -0.02     0.03  -0.09   0.08     0.02  -0.06   0.04
   6   6     0.00  -0.01   0.04    -0.04   0.09  -0.04     0.04  -0.09   0.07
   7   6     0.01  -0.02   0.08    -0.01   0.02  -0.00     0.01  -0.04   0.05
   8   6     0.03   0.05   0.10     0.01   0.02   0.01     0.01   0.01   0.04
   9   6     0.02   0.03   0.05     0.03   0.05   0.02     0.01   0.01   0.03
  10   6    -0.02  -0.04  -0.02    -0.02  -0.03  -0.04     0.02   0.03   0.03
  11   6    -0.04  -0.07  -0.06    -0.02  -0.03  -0.04     0.01   0.02   0.02
  12   6    -0.02  -0.04  -0.03    -0.01  -0.02  -0.02     0.01   0.01   0.01
  13   6     0.02   0.01   0.01     0.01   0.00   0.01    -0.01  -0.00  -0.01
  14   1    -0.00  -0.00   0.00     0.00   0.00   0.00     0.00   0.00  -0.00
  15   1     0.00  -0.00   0.00    -0.01   0.00  -0.00    -0.01   0.00  -0.00
  16   1    -0.00  -0.00  -0.00     0.00   0.00  -0.00     0.00   0.00   0.00
  17   1    -0.00  -0.00  -0.00     0.00   0.00   0.05    -0.00   0.00   0.02
  18   1    -0.01   0.00  -0.00     0.09  -0.02   0.02     0.17  -0.04   0.05
  19   1    -0.03   0.09   0.03     0.05  -0.14  -0.05     0.12  -0.36  -0.12
  20   1     0.00  -0.01  -0.09    -0.00   0.01   0.13    -0.00   0.02   0.43
  21   1     0.05  -0.13  -0.05    -0.04   0.10   0.05    -0.01   0.02   0.01
  22   1     0.00   0.01   0.20    -0.00  -0.01  -0.23     0.00  -0.00  -0.02
  23   1     0.07  -0.18  -0.07    -0.13   0.33   0.13    -0.08   0.21   0.08
  24   1    -0.00   0.01   0.15     0.01  -0.01  -0.42     0.00  -0.01  -0.22
  25   1    -0.02   0.05   0.02     0.15  -0.36  -0.14    -0.13   0.32   0.13
  26   1     0.00  -0.00  -0.16    -0.01   0.01   0.29     0.01  -0.01  -0.36
  27   1    -0.04   0.09   0.04     0.03  -0.07  -0.02    -0.06   0.14   0.06
  28   1     0.01  -0.01  -0.32    -0.00   0.00   0.03     0.01  -0.01  -0.24
  29   1     0.02   0.04  -0.44     0.00   0.01  -0.04     0.01   0.01  -0.17
  30   1    -0.13  -0.21   0.08    -0.05  -0.08   0.03    -0.02  -0.04   0.02
  31   1     0.00   0.01  -0.23     0.01   0.02  -0.17     0.00   0.01  -0.13
  32   1    -0.07  -0.13   0.05    -0.12  -0.21   0.08    -0.02  -0.03   0.02
  33   1    -0.00  -0.01   0.14    -0.00  -0.01   0.19     0.00   0.01  -0.16
  34   1     0.08   0.15  -0.05     0.07   0.14  -0.05    -0.06  -0.11   0.04
  35   1    -0.01  -0.03   0.32    -0.00  -0.01   0.17     0.00   0.01  -0.11
  36   1     0.15   0.27  -0.10     0.07   0.12  -0.05    -0.04  -0.07   0.03
  37   1    -0.00  -0.01   0.16    -0.00  -0.01   0.11     0.00   0.00  -0.05
  38   1     0.07   0.14  -0.05     0.05   0.09  -0.03    -0.02  -0.04   0.01
  39   1     0.00   0.00  -0.04     0.00   0.00  -0.02    -0.00  -0.00   0.02
  40   1    -0.02  -0.04   0.01    -0.01  -0.02   0.01     0.00   0.01  -0.00
  41   1    -0.04   0.00  -0.02    -0.03   0.00  -0.01     0.02  -0.00   0.01
                    109                    110                    111
                        a                      a                      a 
 Frequencies --  2967.6893              2973.1440              2980.4639
 Red. masses --     1.5519                 1.5542                 1.5749
 Frc consts  --     0.0000                 0.0000                 0.0000
 IR Inten    --   195.7628               128.8209                 9.8763
 Raman Activ --     0.0000                 0.0000                 0.0000
 Depolar     --     0.0000                 0.0000                 0.0000
 Atom AN      X      Y      Z        X      Y      Z        X      Y      Z
   1   7     0.00  -0.00  -0.00     0.00   0.00   0.00     0.00   0.00  -0.00
   2   6    -0.02   0.01  -0.00     0.05  -0.02   0.00    -0.10   0.03   0.19
   3   6    -0.01   0.04  -0.03     0.04  -0.10   0.09    -0.00  -0.00   0.06
   4   6    -0.00  -0.00  -0.01     0.03  -0.06   0.07     0.00  -0.00   0.02
   5   6     0.01  -0.02  -0.00     0.03  -0.08   0.06     0.00  -0.00   0.01
   6   6     0.02  -0.05   0.00     0.03  -0.06   0.04     0.00  -0.00   0.00
   7   6     0.01  -0.02  -0.01     0.01  -0.03   0.03     0.00  -0.00   0.00
   8   6    -0.03  -0.05  -0.05    -0.00  -0.01   0.01     0.00  -0.00   0.00
   9   6    -0.05  -0.09  -0.07    -0.01  -0.02   0.00     0.00   0.00   0.00
  10   6    -0.05  -0.08  -0.07    -0.00  -0.01   0.00     0.00   0.00   0.00
  11   6    -0.03  -0.06  -0.05    -0.00  -0.00  -0.00     0.00   0.00   0.00
  12   6    -0.01  -0.02  -0.02    -0.00  -0.00  -0.00    -0.00  -0.00   0.00
  13   6     0.02   0.01   0.02     0.00   0.00   0.00    -0.00   0.00  -0.00
  14   1     0.00   0.00  -0.00    -0.00  -0.00   0.00    -0.00  -0.00   0.00
  15   1    -0.00   0.00  -0.00    -0.00   0.00   0.00    -0.01   0.01  -0.00
  16   1     0.00   0.00   0.00    -0.00  -0.00  -0.01     0.00   0.00   0.02
  17   1    -0.00   0.00  -0.01     0.01  -0.00   0.05    -0.05   0.01  -0.83
  18   1     0.07  -0.02   0.02    -0.20   0.05  -0.06     0.42  -0.12   0.15
  19   1     0.05  -0.14  -0.05    -0.13   0.37   0.13    -0.00   0.01   0.01
  20   1    -0.00   0.01   0.17     0.00  -0.03  -0.44     0.00  -0.01  -0.20
  21   1     0.00   0.00  -0.00    -0.08   0.20   0.09    -0.00   0.00   0.00
  22   1     0.00   0.00   0.04     0.00  -0.01  -0.33    -0.00  -0.00  -0.05
  23   1    -0.02   0.06   0.02    -0.10   0.27   0.11    -0.01   0.02   0.01
  24   1     0.00  -0.00  -0.01     0.01  -0.01  -0.31     0.00  -0.00  -0.04
  25   1    -0.08   0.19   0.07    -0.10   0.24   0.10    -0.00   0.01   0.00
  26   1     0.00  -0.01  -0.09     0.00  -0.01  -0.25    -0.00  -0.00  -0.02
  27   1    -0.03   0.07   0.02    -0.04   0.10   0.04    -0.00   0.00   0.00
  28   1     0.00  -0.00   0.03     0.01  -0.01  -0.14     0.00  -0.00  -0.01
  29   1    -0.01  -0.02   0.24    -0.00   0.00  -0.03     0.00   0.00  -0.00
  30   1     0.11   0.18  -0.06     0.02   0.03  -0.01    -0.00  -0.00   0.00
  31   1    -0.01  -0.03   0.36    -0.00  -0.00   0.01     0.00   0.00  -0.00
  32   1     0.18   0.33  -0.12     0.03   0.06  -0.02    -0.00  -0.00   0.00
  33   1    -0.01  -0.03   0.35    -0.00  -0.00   0.01     0.00   0.00  -0.00
  34   1     0.17   0.31  -0.11     0.01   0.03  -0.01    -0.00  -0.00   0.00
  35   1    -0.01  -0.02   0.26    -0.00  -0.00   0.01     0.00   0.00  -0.00
  36   1     0.11   0.22  -0.08     0.01   0.02  -0.01    -0.00  -0.00   0.00
  37   1    -0.00  -0.01   0.11    -0.00  -0.00   0.00     0.00  -0.00  -0.00
  38   1     0.05   0.09  -0.03     0.00   0.01  -0.00     0.00   0.00  -0.00
  39   1     0.00   0.00  -0.05     0.00   0.00   0.00    -0.00  -0.00   0.01
  40   1    -0.02  -0.04   0.02    -0.00  -0.01   0.00    -0.00  -0.00  -0.00
  41   1    -0.07   0.00  -0.02    -0.01   0.00  -0.00     0.01   0.00   0.00
                    112                    113                    114
                        a                      a                      a 
 Frequencies --  2991.4211              2995.0296              3010.4336
 Red. masses --     1.8978                 1.9398                 1.2942
 Frc consts  --     0.0000                 0.0000                 0.0000
 IR Inten    --    59.9804                59.0480                37.9579
 Raman Activ --     0.0000                 0.0000                 0.0000
 Depolar     --     0.0000                 0.0000                 0.0000
 Atom AN      X      Y      Z        X      Y      Z        X      Y      Z
   1   7    -0.00   0.00  -0.00    -0.00   0.00  -0.00     0.00  -0.00   0.00
   2   6     0.00  -0.00  -0.00    -0.00   0.00  -0.00     0.00  -0.00   0.00
   3   6     0.00  -0.00  -0.00     0.00  -0.00  -0.00     0.00  -0.00   0.00
   4   6     0.00  -0.00   0.00    -0.00   0.00   0.00    -0.00   0.00  -0.00
   5   6     0.00  -0.00  -0.00     0.00   0.00  -0.00     0.00  -0.00   0.00
   6   6     0.00  -0.00  -0.00    -0.00   0.00  -0.00    -0.00   0.00  -0.00
   7   6     0.00  -0.00  -0.00     0.00   0.00  -0.00     0.00  -0.00   0.00
   8   6    -0.00  -0.00  -0.00     0.00   0.00  -0.00     0.00  -0.00   0.00
   9   6    -0.00  -0.00  -0.00     0.00   0.00  -0.00     0.00   0.00   0.00
  10   6    -0.00  -0.01  -0.01     0.00   0.00  -0.00     0.00   0.00   0.00
  11   6    -0.01  -0.01  -0.01     0.00   0.01  -0.01     0.00   0.01   0.01
  12   6    -0.02  -0.02  -0.02     0.01   0.02  -0.03     0.00   0.01   0.01
  13   6    -0.24  -0.05  -0.13     0.09   0.16  -0.22    -0.03   0.13   0.08
  14   1    -0.00  -0.00  -0.00    -0.00  -0.00  -0.00    -0.00  -0.00   0.00
  15   1     0.00   0.00  -0.00     0.00  -0.00  -0.00    -0.00   0.00  -0.00
  16   1     0.00   0.00  -0.00     0.00   0.00   0.00     0.00   0.00  -0.00
  17   1     0.00  -0.00   0.01     0.00  -0.00   0.01    -0.00  -0.00  -0.00
  18   1    -0.00   0.00  -0.00     0.00  -0.00   0.00    -0.00   0.00  -0.00
  19   1    -0.00   0.00   0.00    -0.00   0.00   0.00    -0.00   0.00   0.00
  20   1     0.00  -0.00   0.00     0.00   0.00   0.00    -0.00  -0.00  -0.00
  21   1    -0.00   0.00   0.00     0.00  -0.00  -0.00     0.00  -0.00  -0.00
  22   1     0.00  -0.00  -0.00    -0.00   0.00  -0.00     0.00   0.00   0.00
  23   1    -0.00   0.00   0.00    -0.00   0.00  -0.00    -0.00   0.00   0.00
  24   1     0.00  -0.00   0.00    -0.00   0.00   0.00    -0.00  -0.00  -0.00
  25   1    -0.00   0.00   0.00     0.00  -0.00  -0.00     0.00  -0.00  -0.00
  26   1     0.00  -0.00  -0.00    -0.00   0.00   0.00     0.00   0.00   0.00
  27   1    -0.00   0.01   0.00    -0.00  -0.00  -0.00    -0.00   0.00   0.00
  28   1     0.00  -0.00   0.00    -0.00   0.00   0.01     0.00  -0.00  -0.00
  29   1    -0.00  -0.00   0.01    -0.00  -0.00   0.00     0.00   0.00  -0.00
  30   1     0.00   0.01  -0.00    -0.00  -0.00   0.00     0.00   0.00   0.00
  31   1    -0.00  -0.00   0.02     0.00   0.00   0.00     0.00   0.00  -0.01
  32   1     0.01   0.02  -0.01    -0.00  -0.00   0.00    -0.00  -0.01   0.00
  33   1    -0.00  -0.00   0.03    -0.00   0.00   0.01     0.00   0.00  -0.01
  34   1     0.01   0.02  -0.01    -0.00  -0.01   0.00    -0.00  -0.01   0.00
  35   1     0.00  -0.01   0.07     0.00  -0.00   0.02    -0.00   0.00  -0.03
  36   1     0.03   0.05  -0.02    -0.01  -0.02   0.01    -0.02  -0.03   0.01
  37   1    -0.00  -0.01   0.08     0.00  -0.00   0.06     0.00   0.00  -0.04
  38   1     0.04   0.07  -0.02    -0.03  -0.06   0.02    -0.02  -0.03   0.01
  39   1    -0.04  -0.02   0.27     0.00  -0.01   0.67     0.01   0.05  -0.63
  40   1     0.07   0.21  -0.09    -0.29  -0.58   0.16    -0.28  -0.55   0.19
  41   1     0.83   0.00   0.29    -0.01   0.03  -0.05     0.37   0.02   0.14
                    115                    116                    117
                        a                      a                      a 
 Frequencies --  3196.8791              3201.8929              3222.6455
 Red. masses --     2.0295                 2.0391                 1.2815
 Frc consts  --     0.0000                 0.0000                 0.0000
 IR Inten    --   101.9546                81.1956                21.4151
 Raman Activ --     0.0000                 0.0000                 0.0000
 Depolar     --     0.0000                 0.0000                 0.0000
 Atom AN      X      Y      Z        X      Y      Z        X      Y      Z
   1   7     0.26   0.09  -0.06    -0.09   0.09  -0.25    -0.05   0.12   0.07
   2   6     0.01  -0.00  -0.00    -0.00   0.00  -0.01    -0.01   0.01   0.01
   3   6    -0.00   0.00  -0.00    -0.00  -0.00   0.00    -0.00   0.00  -0.00
   4   6    -0.00   0.00   0.00     0.00  -0.00  -0.00     0.00  -0.00  -0.00
   5   6     0.00   0.00  -0.00    -0.00  -0.00   0.00    -0.00   0.00  -0.00
   6   6    -0.00   0.00   0.00     0.00  -0.00   0.00     0.00  -0.00   0.00
   7   6    -0.00   0.00  -0.00     0.00  -0.00  -0.00    -0.00  -0.00  -0.00
   8   6     0.00   0.00  -0.00     0.00   0.00  -0.00    -0.00  -0.00   0.00
   9   6     0.00   0.00  -0.00    -0.00  -0.00   0.00    -0.00  -0.00  -0.00
  10   6     0.00   0.00  -0.00     0.00   0.00  -0.00    -0.00  -0.00   0.00
  11   6    -0.00  -0.00   0.00    -0.00  -0.00   0.00     0.00  -0.00  -0.00
  12   6     0.00   0.00  -0.00     0.00   0.00  -0.00    -0.00  -0.00   0.00
  13   6    -0.00  -0.00   0.00    -0.00  -0.00   0.00     0.00   0.00  -0.00
  14   1    -0.54  -0.52   0.28    -0.20  -0.17   0.07    -0.33  -0.30   0.17
  15   1    -0.46   0.17  -0.17     0.53  -0.17   0.15     0.53  -0.17   0.19
  16   1     0.03   0.01   0.12     0.01   0.01   0.72    -0.02   0.01  -0.64
  17   1    -0.00  -0.00   0.01     0.00  -0.00   0.02    -0.00  -0.00  -0.02
  18   1    -0.02   0.00  -0.00     0.01  -0.00   0.00     0.02  -0.00   0.00
  19   1     0.00  -0.00  -0.00    -0.00   0.00   0.00     0.00  -0.01  -0.00
  20   1     0.00  -0.00   0.00    -0.00  -0.00  -0.00     0.00   0.00   0.01
  21   1     0.00  -0.01  -0.00    -0.00   0.01   0.00    -0.00   0.01   0.00
  22   1    -0.00   0.00   0.00     0.00  -0.00  -0.00     0.00  -0.00  -0.00
  23   1     0.00  -0.00  -0.00    -0.00   0.00   0.00     0.00  -0.00  -0.00
  24   1    -0.00  -0.00   0.00     0.00   0.00  -0.00    -0.00  -0.00   0.00
  25   1     0.00  -0.00  -0.00    -0.00   0.00   0.00    -0.00   0.00   0.00
  26   1     0.00   0.00   0.00    -0.00  -0.00  -0.00    -0.00  -0.00  -0.00
  27   1     0.00  -0.00  -0.00    -0.00   0.00   0.00    -0.00   0.00   0.00
  28   1    -0.00   0.00   0.00     0.00   0.00   0.00     0.00  -0.00  -0.00
  29   1     0.00   0.00   0.00    -0.00  -0.00   0.00     0.00  -0.00  -0.00
  30   1    -0.00  -0.00   0.00    -0.00  -0.00   0.00     0.00   0.00  -0.00
  31   1     0.00   0.00  -0.00    -0.00   0.00  -0.00    -0.00  -0.00   0.00
  32   1    -0.00  -0.00   0.00     0.00   0.00  -0.00     0.00   0.00  -0.00
  33   1     0.00   0.00   0.00     0.00  -0.00   0.00     0.00  -0.00  -0.00
  34   1    -0.00  -0.00   0.00    -0.00  -0.00   0.00     0.00   0.00  -0.00
  35   1     0.00   0.00  -0.00    -0.00   0.00  -0.00    -0.00  -0.00   0.00
  36   1     0.00   0.00  -0.00     0.00   0.00  -0.00    -0.00   0.00  -0.00
  37   1     0.00   0.00   0.00     0.00  -0.00   0.00     0.00  -0.00  -0.00
  38   1    -0.00  -0.00   0.00    -0.00  -0.00   0.00     0.00   0.00  -0.00
  39   1     0.00   0.00  -0.00     0.00   0.00  -0.00    -0.00  -0.00   0.00
  40   1     0.00   0.00  -0.00     0.00   0.00  -0.00    -0.00  -0.00   0.00
  41   1    -0.00   0.00  -0.00    -0.00  -0.00  -0.00    -0.00  -0.00   0.00
