16
 energy: -21.117173386138 gnorm: 0.000512844273 xtb: 6.5.1 (fef0646)
N            1.28112472945733       -0.44231035522674        0.20515077365857
C            2.70996782626772       -0.21002371696418        0.09554212613086
C            3.67512753109577       -1.16769640335974        0.82940971836216
C            4.37428638858148        0.04835381988209        1.45717643016205
C            3.24215812769460        0.95407484538793        0.94616252760036
Cl          -0.19142659155768        1.96061196198317       -0.63318758048168
H            0.98825138468235       -1.23723241376338       -0.35214355526407
H            0.50318092493372        0.84623054437186       -0.26208863418162
H            1.01839466076719       -0.60393893486939        1.17228818154929
H            2.94813137021457       -0.10217370472794       -0.96384403934439
H            4.29109050742739       -1.80451002815509        0.19858162601270
H            3.16409767448376       -1.78901812788303        1.56393314619137
H            5.33373844727002        0.26768443459224        0.99530256035455
H            4.50312046585329        0.01409463786741        2.53640099573002
H            3.54185250719846        1.84149787278318        0.39681827591533
H            2.53914404563009        1.24475556808112        1.72313744760423
