      -----------------------------------------------------------      
     |                   =====================                   |     
     |                           x T B                           |     
     |                   =====================                   |     
     |                         S. Grimme                         |     
     |          Mulliken Center for Theoretical Chemistry        |     
     |                    University of Bonn                     |     
      -----------------------------------------------------------      

   * xtb version 6.5.1 (fef0646) compiled by 'conda@b96dff2e9fd6' on 2023-01-04

   xtb is free software: you can redistribute it and/or modify it under
   the terms of the GNU Lesser General Public License as published by
   the Free Software Foundation, either version 3 of the License, or
   (at your option) any later version.
   
   xtb is distributed in the hope that it will be useful,
   but WITHOUT ANY WARRANTY; without even the implied warranty of
   MERCHANTABILITY or FITNESS FOR A PARTICULAR PURPOSE.  See the
   GNU Lesser General Public License for more details.
   
   Cite this work as:
   * C. Bannwarth, E. Caldeweyher, S. Ehlert, A. Hansen, P. Pracht,
     J. Seibert, S. Spicher, S. Grimme, WIREs Comput. Mol. Sci., 2020, 11,
     e01493. DOI: 10.1002/wcms.1493
   
   for GFN2-xTB:
   * C. Bannwarth, S. Ehlert and S. Grimme., J. Chem. Theory Comput., 2019,
     15, 1652-1671. DOI: 10.1021/acs.jctc.8b01176
   for GFN1-xTB:
   * S. Grimme, C. Bannwarth, P. Shushkov, J. Chem. Theory Comput., 2017,
     13, 1989-2009. DOI: 10.1021/acs.jctc.7b00118
   for GFN0-xTB:
   * P. Pracht, E. Caldeweyher, S. Ehlert, S. Grimme, ChemRxiv, 2019, preprint.
     DOI: 10.26434/chemrxiv.8326202.v1
   for GFN-FF:
   * S. Spicher and S. Grimme, Angew. Chem. Int. Ed., 2020, 59, 15665-15673.
     DOI: 10.1002/anie.202004239
   
   for ALPB and GBSA implicit solvation:
   * S. Ehlert, M. Stahn, S. Spicher, S. Grimme, J. Chem. Theory Comput.,
     2021, 17, 4250-4261. DOI: 10.1021/acs.jctc.1c00471
   
   for DFT-D4:
   * E. Caldeweyher, C. Bannwarth and S. Grimme, J. Chem. Phys., 2017,
     147, 034112. DOI: 10.1063/1.4993215
   * E. Caldeweyher, S. Ehlert, A. Hansen, H. Neugebauer, S. Spicher,
     C. Bannwarth and S. Grimme, J. Chem. Phys., 2019, 150, 154122.
     DOI: 10.1063/1.5090222
   * E. Caldeweyher, J.-M. Mewes, S. Ehlert and S. Grimme, Phys. Chem. Chem. Phys.
     2020, 22, 8499-8512. DOI: 10.1039/D0CP00502A
   
   for sTDA-xTB:
   * S. Grimme and C. Bannwarth, J. Chem. Phys., 2016, 145, 054103.
     DOI: 10.1063/1.4959605
   
   in the mass-spec context:
   * V. Asgeirsson, C. Bauer and S. Grimme, Chem. Sci., 2017, 8, 4879.
     DOI: 10.1039/c7sc00601b
   * J. Koopman and S. Grimme, ACS Omega 2019, 4, 12, 15120-15133.
     DOI: 10.1021/acsomega.9b02011
   
   for metadynamics refer to:
   * S. Grimme, J. Chem. Theory Comput., 2019, 155, 2847-2862
     DOI: 10.1021/acs.jctc.9b00143
   
   for SPH calculations refer to:
   * S. Spicher and S. Grimme, J. Chem. Theory Comput., 2021, 17, 1701-1714
     DOI: 10.1021/acs.jctc.0c01306
   
   with help from (in alphabetical order)
   P. Atkinson, C. Bannwarth, F. Bohle, G. Brandenburg, E. Caldeweyher
   M. Checinski, S. Dohm, S. Ehlert, S. Ehrlich, I. Gerasimov, C. Hölzer
   A. Katbashev, J. Koopman, C. Lavigne, S. Lehtola, F. März, M. Müller,
   F. Musil, H. Neugebauer, J. Pisarek, C. Plett, P. Pracht, F. Pultar,
   J. Seibert, P. Shushkov, S. Spicher, M. Stahn, M. Steiner, T. Strunk,
   J. Stückrath, T. Rose, and J. Unsleber
   
 * started run on 2023/01/23 at 18:41:18.989     

           -------------------------------------------------
          |                Calculation Setup                |
           -------------------------------------------------

          program call               : xtb init.xyz --opt -c 0 -u 0 -P 16 --input xtb.inp
          hostname                   : gpg-woodward
          coordinate file            : init.xyz
          omp threads                :                    16

   ID    Z sym.   atoms
    1    7 N      1
    2    6 C      2-5
    3   17 Cl     6
    4    1 H      7-16

molecular fragmentation (1/2 indicates fragments):
1111121111111111
# atoms in fragment 1/2:    15     1
 fragment masses (1/2) :       72.13       35.45
CMA distance (Bohr)    :   7.307
constraining FC (au)   :  0.0500

           -------------------------------------------------
          |                 G F N 2 - x T B                 |
           -------------------------------------------------

        Reference                      10.1021/acs.jctc.8b01176
      * Hamiltonian:
        H0-scaling (s, p, d)           1.850000    2.230000    2.230000
        zeta-weighting                 0.500000
      * Dispersion:
        s8                             2.700000
        a1                             0.520000
        a2                             5.000000
        s9                             5.000000
      * Repulsion:
        kExp                           1.500000    1.000000
        rExp                           1.000000
      * Coulomb:
        alpha                          2.000000
        third order                    shell-resolved
        anisotropic                    true
        a3                             3.000000
        a5                             4.000000
        cn-shift                       1.200000
        cn-exp                         4.000000
        max-rad                        5.000000


          ...................................................
          :                      SETUP                      :
          :.................................................:
          :  # basis functions                  40          :
          :  # atomic orbitals                  39          :
          :  # shells                           23          :
          :  # electrons                        38          :
          :  max. iterations                   250          :
          :  Hamiltonian                  GFN2-xTB          :
          :  restarted?                      false          :
          :  GBSA solvation                  false          :
          :  PC potential                    false          :
          :  electronic temp.          300.0000000     K    :
          :  accuracy                    1.0000000          :
          :  -> integral cutoff          0.2500000E+02      :
          :  -> integral neglect         0.1000000E-07      :
          :  -> SCF convergence          0.1000000E-05 Eh   :
          :  -> wf. convergence          0.1000000E-03 e    :
          :  Broyden damping             0.4000000          :
          ...................................................

 iter      E             dE          RMSdq      gap      omega  full diag
   1    -21.1875737 -0.211876E+02  0.380E+00   11.13       0.0  T
   2    -21.3082387 -0.120665E+00  0.209E+00    8.76       1.0  T
   3    -21.3119698 -0.373103E-02  0.129E+00    8.03       1.0  T
   4    -21.3131712 -0.120143E-02  0.475E-01    7.45       1.0  T
   5    -21.3140251 -0.853858E-03  0.319E-01    7.47       1.0  T
   6    -21.3145409 -0.515849E-03  0.134E-01    7.57       1.0  T
   7    -21.3146319 -0.909693E-04  0.714E-02    7.60       1.0  T
   8    -21.3146587 -0.268608E-04  0.162E-02    7.60       1.5  T
   9    -21.3146595 -0.765235E-06  0.611E-03    7.59       4.1  T
  10    -21.3146596 -0.134322E-06  0.155E-03    7.59      16.1  T
  11    -21.3146597 -0.708679E-08  0.625E-04    7.59      40.0  T
  12    -21.3146597 -0.105805E-08  0.337E-04    7.59      74.2  T

   *** convergence criteria satisfied after 12 iterations ***

         #    Occupation            Energy/Eh            Energy/eV
      -------------------------------------------------------------
         1        2.0000           -0.9501915             -25.8560
       ...           ...                  ...                  ...
        13        2.0000           -0.5003478             -13.6152
        14        2.0000           -0.4737850             -12.8923
        15        2.0000           -0.4600534             -12.5187
        16        2.0000           -0.4581846             -12.4678
        17        2.0000           -0.3495682              -9.5122
        18        2.0000           -0.3403577              -9.2616
        19        2.0000           -0.3398962              -9.2490 (HOMO)
        20                         -0.0608854              -1.6568 (LUMO)
        21                         -0.0217619              -0.5922
        22                         -0.0096988              -0.2639
        23                          0.0113838               0.3098
        24                          0.0440111               1.1976
       ...                                ...                  ...
        39                          0.3217006               8.7539
      -------------------------------------------------------------
                  HL-Gap            0.2790108 Eh            7.5923 eV
             Fermi-level           -0.2003908 Eh           -5.4529 eV

 SCC (total)                   0 d,  0 h,  0 min,  0.030 sec
 SCC setup                      ...        0 min,  0.001 sec (  2.447%)
 Dispersion                     ...        0 min,  0.000 sec (  1.222%)
 classical contributions        ...        0 min,  0.000 sec (  0.562%)
 integral evaluation            ...        0 min,  0.002 sec (  6.847%)
 iterations                     ...        0 min,  0.022 sec ( 74.811%)
 molecular gradient             ...        0 min,  0.004 sec ( 13.059%)
 printout                       ...        0 min,  0.000 sec (  0.537%)

         :::::::::::::::::::::::::::::::::::::::::::::::::::::
         ::                     SUMMARY                     ::
         :::::::::::::::::::::::::::::::::::::::::::::::::::::
         :: total energy             -21.093087477950 Eh    ::
         :: gradient norm              0.060834277420 Eh/a0 ::
         :: HOMO-LUMO gap              7.592271416554 eV    ::
         ::.................................................::
         :: SCC energy               -21.314659653818 Eh    ::
         :: -> isotropic ES            0.090102305253 Eh    ::
         :: -> anisotropic ES         -0.023771731023 Eh    ::
         :: -> anisotropic XC          0.000768922401 Eh    ::
         :: -> dispersion             -0.008862282432 Eh    ::
         :: repulsion energy           0.221545128070 Eh    ::
         :: add. restraining           0.000000000000 Eh    ::
         :: total charge              -0.000000000000 e     ::
         :::::::::::::::::::::::::::::::::::::::::::::::::::::

      ----------------------------------------------------------- 
     |                   =====================                   |
     |                        A N C O P T                        |
     |                   =====================                   |
     |               Approximate Normal Coordinate               |
     |                Rational Function Optimizer                |
      ----------------------------------------------------------- 

          ...................................................
          :                      SETUP                      :
          :.................................................:
          :   optimization level            normal          :
          :   max. optcycles                   200          :
          :   ANC micro-cycles                  20          :
          :   degrees of freedom                42          :
          :.................................................:
          :   RF solver                   davidson          :
          :   write xtbopt.log                true          :
          :   linear?                        false          :
          :   energy convergence         0.5000000E-05 Eh   :
          :   grad. convergence          0.1000000E-02 Eh/α :
          :   maximium RF displ.         1.0000000          :
          :   Hlow (freq-cutoff)         0.1000000E-01      :
          :   Hmax (freq-cutoff)         5.0000000          :
          :   S6 in model hess.         20.0000000          :
          ...................................................

generating ANC from model Hessian ...
Using Lindh-Hessian (1995)
 Shifting diagonal of input Hessian by    9.5657703809723573E-003
 Lowest  eigenvalues of input Hessian
    0.000000    0.000000    0.000000    0.000000    0.000000    0.000000
    0.010000    0.011058    0.017915    0.021227    0.024907    0.030186
    0.044974    0.047948    0.048762    0.051258    0.053126    0.056125
 Highest eigenvalues
    1.197725    1.254113    1.298729    1.409085    1.430990    1.680806


........................................................................
.............................. CYCLE    1 ..............................
........................................................................
   1    -21.3146597 -0.213147E+02  0.208E-04    7.59       0.0  T
   2    -21.3146597 -0.904059E-10  0.164E-04    7.59     152.3  T
   3    -21.3146597 -0.883276E-10  0.972E-05    7.59     257.3  T
     SCC iter.                  ...        0 min,  0.006 sec
     gradient                   ...        0 min,  0.003 sec
 * total energy  :   -21.0930875 Eh     change       -0.5618581E-09 Eh
   gradient norm :     0.0608345 Eh/α   predicted     0.0000000E+00 (-100.00%)
   displ. norm   :     0.3364458 α      lambda       -0.1344760E-01
   maximum displ.:     0.1227948 α      in ANC's #7, #20, #3, ...

........................................................................
.............................. CYCLE    2 ..............................
........................................................................
   1    -21.3253305 -0.213253E+02  0.412E-01    7.65       0.0  T
   2    -21.3255525 -0.222026E-03  0.247E-01    7.80       1.0  T
   3    -21.3255686 -0.160948E-04  0.647E-02    7.90       1.0  T
   4    -21.3255776 -0.901084E-05  0.288E-02    7.91       1.0  T
   5    -21.3255804 -0.285020E-05  0.210E-02    7.91       1.2  T
   6    -21.3255826 -0.212067E-05  0.105E-02    7.90       2.4  T
   7    -21.3255832 -0.613530E-06  0.511E-03    7.90       4.9  T
   8    -21.3255834 -0.181208E-06  0.983E-04    7.90      25.4  T
   9    -21.3255834 -0.316160E-08  0.344E-04    7.90      72.8  T
     SCC iter.                  ...        0 min,  0.015 sec
     gradient                   ...        0 min,  0.003 sec
 * total energy  :   -21.1012648 Eh     change       -0.8177300E-02 Eh
   gradient norm :     0.0390835 Eh/α   predicted    -0.7484900E-02 (  -8.47%)
   displ. norm   :     0.4424531 α      lambda       -0.6665080E-02
   maximum displ.:     0.3414068 α      in ANC's #2, #4, #6, ...

........................................................................
.............................. CYCLE    3 ..............................
........................................................................
   1    -21.3296680 -0.213297E+02  0.248E-01    7.60       0.0  T
   2    -21.3297516 -0.835994E-04  0.153E-01    7.71       1.0  T
   3    -21.3297636 -0.119872E-04  0.437E-02    7.79       1.0  T
   4    -21.3297690 -0.545856E-05  0.251E-02    7.80       1.0  T
   5    -21.3297707 -0.170123E-05  0.186E-02    7.80       1.3  T
   6    -21.3297724 -0.165186E-05  0.792E-03    7.80       3.2  T
   7    -21.3297726 -0.241572E-06  0.318E-03    7.80       7.9  T
   8    -21.3297727 -0.429322E-07  0.542E-04    7.80      46.1  T
   9    -21.3297727 -0.562380E-09  0.276E-04    7.80      90.6  T
     SCC iter.                  ...        0 min,  0.015 sec
     gradient                   ...        0 min,  0.004 sec
 * total energy  :   -21.1058191 Eh     change       -0.4554307E-02 Eh
   gradient norm :     0.0335215 Eh/α   predicted    -0.3984935E-02 ( -12.50%)
   displ. norm   :     0.4184991 α      lambda       -0.5572731E-02
   maximum displ.:     0.3064498 α      in ANC's #2, #25, #18, ...

........................................................................
.............................. CYCLE    4 ..............................
........................................................................
   1    -21.3315156 -0.213315E+02  0.364E-01    7.87       0.0  T
   2    -21.3319620 -0.446486E-03  0.214E-01    8.10       1.0  T
   3    -21.3320103 -0.482647E-04  0.963E-02    8.22       1.0  T
   4    -21.3320286 -0.182889E-04  0.524E-02    8.27       1.0  T
   5    -21.3320371 -0.847593E-05  0.400E-02    8.27       1.0  T
   6    -21.3320469 -0.985249E-05  0.164E-02    8.26       1.5  T
   7    -21.3320486 -0.168932E-05  0.620E-03    8.25       4.0  T
   8    -21.3320488 -0.229735E-06  0.221E-03    8.25      11.3  T
   9    -21.3320489 -0.165134E-07  0.156E-03    8.25      16.0  T
  10    -21.3320489 -0.114413E-07  0.886E-04    8.25      28.2  T
  11    -21.3320489 -0.466526E-08  0.161E-04    8.25     155.0  T
     SCC iter.                  ...        0 min,  0.017 sec
     gradient                   ...        0 min,  0.002 sec
 * total energy  :   -21.1097413 Eh     change       -0.3922219E-02 Eh
   gradient norm :     0.0321972 Eh/α   predicted    -0.3274377E-02 ( -16.52%)
   displ. norm   :     0.3436790 α      lambda       -0.3449019E-02
   maximum displ.:     0.2729217 α      in ANC's #2, #25, #1, ...

........................................................................
.............................. CYCLE    5 ..............................
........................................................................
   1    -21.3322991 -0.213323E+02  0.299E-01    8.38       0.0  T
   2    -21.3325685 -0.269451E-03  0.170E-01    8.55       1.0  T
   3    -21.3325953 -0.267838E-04  0.700E-02    8.64       1.0  T
   4    -21.3326046 -0.934982E-05  0.364E-02    8.67       1.0  T
   5    -21.3326089 -0.424487E-05  0.276E-02    8.66       1.0  T
   6    -21.3326134 -0.450862E-05  0.124E-02    8.66       2.0  T
   7    -21.3326144 -0.100097E-05  0.532E-03    8.65       4.7  T
   8    -21.3326146 -0.185475E-06  0.193E-03    8.65      13.0  T
   9    -21.3326146 -0.132193E-07  0.141E-03    8.65      17.7  T
  10    -21.3326146 -0.106403E-07  0.786E-04    8.65      31.8  T
  11    -21.3326146 -0.405258E-08  0.122E-04    8.65     205.2  T
     SCC iter.                  ...        0 min,  0.015 sec
     gradient                   ...        0 min,  0.002 sec
 * total energy  :   -21.1122788 Eh     change       -0.2537505E-02 Eh
   gradient norm :     0.0236783 Eh/α   predicted    -0.1928198E-02 ( -24.01%)
   displ. norm   :     0.3235681 α      lambda       -0.2583194E-02
   maximum displ.:     0.2044834 α      in ANC's #2, #3, #25, ...

........................................................................
.............................. CYCLE    6 ..............................
........................................................................
   1    -21.3332855 -0.213333E+02  0.330E-01    8.94       0.0  T
   2    -21.3336668 -0.381259E-03  0.185E-01    9.10       1.0  T
   3    -21.3337079 -0.411365E-04  0.837E-02    9.17       1.0  T
   4    -21.3337226 -0.146736E-04  0.462E-02    9.19       1.0  T
   5    -21.3337301 -0.750023E-05  0.356E-02    9.19       1.0  T
   6    -21.3337393 -0.919964E-05  0.160E-02    9.18       1.6  T
   7    -21.3337413 -0.201276E-05  0.747E-03    9.17       3.3  T
   8    -21.3337417 -0.447669E-06  0.224E-03    9.17      11.1  T
   9    -21.3337418 -0.169620E-07  0.152E-03    9.17      16.5  T
  10    -21.3337418 -0.973214E-08  0.855E-04    9.17      29.2  T
  11    -21.3337418 -0.423859E-08  0.155E-04    9.17     161.2  T
     SCC iter.                  ...        0 min,  0.012 sec
     gradient                   ...        0 min,  0.002 sec
 * total energy  :   -21.1140901 Eh     change       -0.1811299E-02 Eh
   gradient norm :     0.0221950 Eh/α   predicted    -0.1426820E-02 ( -21.23%)
   displ. norm   :     0.3796671 α      lambda       -0.2117190E-02
   maximum displ.:     0.2938127 α      in ANC's #2, #3, #5, ...

........................................................................
.............................. CYCLE    7 ..............................
........................................................................
   1    -21.3329400 -0.213329E+02  0.247E-01    8.96       0.0  T
   2    -21.3330885 -0.148570E-03  0.139E-01    9.03       1.0  T
   3    -21.3331023 -0.137931E-04  0.494E-02    9.07       1.0  T
   4    -21.3331058 -0.344557E-05  0.217E-02    9.08       1.2  T
   5    -21.3331074 -0.159390E-05  0.149E-02    9.08       1.7  T
   6    -21.3331082 -0.881117E-06  0.829E-03    9.07       3.0  T
   7    -21.3331085 -0.306976E-06  0.420E-03    9.07       5.9  T
   8    -21.3331086 -0.102198E-06  0.878E-04    9.07      28.5  T
   9    -21.3331086 -0.232789E-08  0.604E-04    9.07      41.4  T
     SCC iter.                  ...        0 min,  0.006 sec
     gradient                   ...        0 min,  0.002 sec
 * total energy  :   -21.1153410 Eh     change       -0.1250845E-02 Eh
   gradient norm :     0.0162648 Eh/α   predicted    -0.1211186E-02 (  -3.17%)
   displ. norm   :     0.2036957 α      lambda       -0.1416531E-02
   maximum displ.:     0.1316240 α      in ANC's #3, #25, #24, ...

........................................................................
.............................. CYCLE    8 ..............................
........................................................................
   1    -21.3365772 -0.213366E+02  0.185E-01    9.42       0.0  T
   2    -21.3366845 -0.107276E-03  0.106E-01    9.45       1.0  T
   3    -21.3366996 -0.150798E-04  0.498E-02    9.46       1.0  T
   4    -21.3367056 -0.600070E-05  0.282E-02    9.45       1.0  T
   5    -21.3367083 -0.272929E-05  0.221E-02    9.45       1.1  T
   6    -21.3367125 -0.423037E-05  0.893E-03    9.43       2.8  T
   7    -21.3367132 -0.673441E-06  0.363E-03    9.43       6.9  T
   8    -21.3367133 -0.106394E-06  0.152E-03    9.43      16.5  T
   9    -21.3367133 -0.810671E-08  0.106E-03    9.43      23.6  T
  10    -21.3367133 -0.521726E-08  0.607E-04    9.43      41.2  T
  11    -21.3367133 -0.199941E-08  0.895E-05    9.43     279.2  T
     SCC iter.                  ...        0 min,  0.007 sec
     gradient                   ...        0 min,  0.002 sec
 * total energy  :   -21.1160081 Eh     change       -0.6671525E-03 Eh
   gradient norm :     0.0126617 Eh/α   predicted    -0.7376512E-03 (  10.57%)
   displ. norm   :     0.1102607 α      lambda       -0.7980083E-03
   maximum displ.:     0.0482989 α      in ANC's #3, #15, #21, ...

........................................................................
.............................. CYCLE    9 ..............................
........................................................................
   1    -21.3378278 -0.213378E+02  0.113E-01    9.18       0.0  T
   2    -21.3378377 -0.990320E-05  0.688E-02    9.19       1.0  T
   3    -21.3378422 -0.457320E-05  0.242E-02    9.19       1.0  T
   4    -21.3378443 -0.207425E-05  0.182E-02    9.19       1.4  T
   5    -21.3378459 -0.157423E-05  0.130E-02    9.20       1.9  T
   6    -21.3378474 -0.149197E-05  0.516E-03    9.21       4.8  T
   7    -21.3378476 -0.178843E-06  0.189E-03    9.21      13.2  T
   8    -21.3378476 -0.169554E-07  0.119E-03    9.21      21.0  T
   9    -21.3378476 -0.594485E-08  0.772E-04    9.21      32.4  T
  10    -21.3378476 -0.342748E-08  0.379E-04    9.21      65.9  T
     SCC iter.                  ...        0 min,  0.007 sec
     gradient                   ...        0 min,  0.002 sec
 * total energy  :   -21.1164293 Eh     change       -0.4212039E-03 Eh
   gradient norm :     0.0047675 Eh/α   predicted    -0.4038539E-03 (  -4.12%)
   displ. norm   :     0.0671994 α      lambda       -0.9491194E-04
   maximum displ.:     0.0479474 α      in ANC's #3, #2, #5, ...

........................................................................
.............................. CYCLE   10 ..............................
........................................................................
   1    -21.3374740 -0.213375E+02  0.284E-02    9.21       0.0  T
   2    -21.3374745 -0.504284E-06  0.169E-02    9.21       1.5  T
   3    -21.3374746 -0.103692E-06  0.346E-03    9.21       7.2  T
   4    -21.3374746 -0.248557E-07  0.220E-03    9.21      11.4  T
   5    -21.3374747 -0.131406E-07  0.154E-03    9.21      16.3  T
   6    -21.3374747 -0.127345E-07  0.632E-04    9.21      39.6  T
   7    -21.3374747 -0.187355E-08  0.206E-04    9.21     121.2  T
     SCC iter.                  ...        0 min,  0.004 sec
     gradient                   ...        0 min,  0.002 sec
 * total energy  :   -21.1165075 Eh     change       -0.7820904E-04 Eh
   gradient norm :     0.0036000 Eh/α   predicted    -0.4767003E-04 ( -39.05%)
   displ. norm   :     0.2085181 α      lambda       -0.2288074E-03
   maximum displ.:     0.1285204 α      in ANC's #3, #2, #5, ...

........................................................................
.............................. CYCLE   11 ..............................
........................................................................
   1    -21.3368859 -0.213369E+02  0.702E-02    9.22       0.0  T
   2    -21.3368884 -0.256451E-05  0.415E-02    9.23       1.0  T
   3    -21.3368888 -0.407619E-06  0.680E-03    9.23       3.7  T
   4    -21.3368889 -0.909604E-07  0.397E-03    9.23       6.3  T
   5    -21.3368890 -0.400720E-07  0.288E-03    9.23       8.7  T
   6    -21.3368890 -0.433618E-07  0.151E-03    9.23      16.5  T
   7    -21.3368890 -0.142665E-07  0.719E-04    9.23      34.8  T
   8    -21.3368890 -0.338055E-08  0.299E-04    9.23      83.6  T
     SCC iter.                  ...        0 min,  0.005 sec
     gradient                   ...        0 min,  0.001 sec
 * total energy  :   -21.1166661 Eh     change       -0.1586127E-03 Eh
   gradient norm :     0.0047263 Eh/α   predicted    -0.1193785E-03 ( -24.74%)
   displ. norm   :     0.2046906 α      lambda       -0.1535670E-03
   maximum displ.:     0.1144702 α      in ANC's #2, #5, #3, ...

........................................................................
.............................. CYCLE   12 ..............................
........................................................................
   1    -21.3363486 -0.213363E+02  0.631E-02    9.23       0.0  T
   2    -21.3363496 -0.100780E-05  0.375E-02    9.23       1.0  T
   3    -21.3363499 -0.233623E-06  0.537E-03    9.23       4.7  T
   4    -21.3363500 -0.908911E-07  0.362E-03    9.23       6.9  T
   5    -21.3363500 -0.383136E-07  0.259E-03    9.23       9.7  T
   6    -21.3363500 -0.367101E-07  0.126E-03    9.23      19.9  T
   7    -21.3363500 -0.101411E-07  0.468E-04    9.23      53.4  T
   8    -21.3363500 -0.123732E-08  0.255E-04    9.23      98.2  T
     SCC iter.                  ...        0 min,  0.005 sec
     gradient                   ...        0 min,  0.001 sec
 * total energy  :   -21.1167828 Eh     change       -0.1166977E-03 Eh
   gradient norm :     0.0059537 Eh/α   predicted    -0.8000224E-04 ( -31.44%)
   displ. norm   :     0.2683096 α      lambda       -0.1920582E-03
   maximum displ.:     0.1590311 α      in ANC's #2, #5, #3, ...

........................................................................
.............................. CYCLE   13 ..............................
........................................................................
   1    -21.3359272 -0.213359E+02  0.816E-02    9.22       0.0  T
   2    -21.3359282 -0.960912E-06  0.487E-02    9.23       1.0  T
   3    -21.3359286 -0.478468E-06  0.777E-03    9.23       3.2  T
   4    -21.3359288 -0.203380E-06  0.586E-03    9.23       4.3  T
   5    -21.3359290 -0.131953E-06  0.327E-03    9.23       7.7  T
   6    -21.3359290 -0.574614E-07  0.127E-03    9.23      19.7  T
   7    -21.3359290 -0.709821E-08  0.405E-04    9.23      61.8  T
   8    -21.3359290 -0.735003E-09  0.207E-04    9.23     120.6  T
     SCC iter.                  ...        0 min,  0.005 sec
     gradient                   ...        0 min,  0.002 sec
 * total energy  :   -21.1169201 Eh     change       -0.1372242E-03 Eh
   gradient norm :     0.0062974 Eh/α   predicted    -0.1029458E-03 ( -24.98%)
   displ. norm   :     0.2049300 α      lambda       -0.1557143E-03
   maximum displ.:     0.1264877 α      in ANC's #2, #5, #3, ...

........................................................................
.............................. CYCLE   14 ..............................
........................................................................
   1    -21.3365918 -0.213366E+02  0.658E-02    9.22       0.0  T
   2    -21.3365926 -0.728945E-06  0.397E-02    9.22       1.0  T
   3    -21.3365931 -0.569698E-06  0.778E-03    9.22       3.2  T
   4    -21.3365933 -0.155149E-06  0.622E-03    9.22       4.0  T
   5    -21.3365935 -0.182861E-06  0.261E-03    9.22       9.6  T
   6    -21.3365935 -0.363212E-07  0.102E-03    9.22      24.4  T
   7    -21.3365935 -0.331323E-08  0.256E-04    9.22      97.6  T
   8    -21.3365935 -0.259462E-09  0.886E-05    9.22     282.2  T
     SCC iter.                  ...        0 min,  0.005 sec
     gradient                   ...        0 min,  0.002 sec
 * total energy  :   -21.1170305 Eh     change       -0.1104482E-03 Eh
   gradient norm :     0.0041888 Eh/α   predicted    -0.8112840E-04 ( -26.55%)
   displ. norm   :     0.1438810 α      lambda       -0.9569654E-04
   maximum displ.:     0.0854106 α      in ANC's #2, #5, #1, ...

........................................................................
.............................. CYCLE   15 ..............................
........................................................................
   1    -21.3376123 -0.213376E+02  0.475E-02    9.23       0.0  T
   2    -21.3376129 -0.597262E-06  0.290E-02    9.22       1.0  T
   3    -21.3376132 -0.376391E-06  0.616E-03    9.22       4.1  T
   4    -21.3376133 -0.870524E-07  0.481E-03    9.22       5.2  T
   5    -21.3376134 -0.917758E-07  0.266E-03    9.22       9.4  T
   6    -21.3376135 -0.419155E-07  0.915E-04    9.22      27.3  T
   7    -21.3376135 -0.339370E-08  0.324E-04    9.22      77.2  T
     SCC iter.                  ...        0 min,  0.005 sec
     gradient                   ...        0 min,  0.002 sec
 * total energy  :   -21.1170943 Eh     change       -0.6377427E-04 Eh
   gradient norm :     0.0021530 Eh/α   predicted    -0.4883966E-04 ( -23.42%)
   displ. norm   :     0.1309563 α      lambda       -0.4118376E-04
   maximum displ.:     0.0702930 α      in ANC's #2, #5, #1, ...

........................................................................
.............................. CYCLE   16 ..............................
........................................................................
   1    -21.3376187 -0.213376E+02  0.379E-02    9.23       0.0  T
   2    -21.3376192 -0.542784E-06  0.228E-02    9.23       1.1  T
   3    -21.3376194 -0.171737E-06  0.460E-03    9.23       5.4  T
   4    -21.3376195 -0.553629E-07  0.327E-03    9.23       7.7  T
   5    -21.3376195 -0.313477E-07  0.235E-03    9.23      10.6  T
   6    -21.3376195 -0.319807E-07  0.904E-04    9.23      27.6  T
   7    -21.3376195 -0.449788E-08  0.297E-04    9.23      84.1  T
     SCC iter.                  ...        0 min,  0.005 sec
     gradient                   ...        0 min,  0.001 sec
 * total energy  :   -21.1171228 Eh     change       -0.2856829E-04 Eh
   gradient norm :     0.0022771 Eh/α   predicted    -0.2094579E-04 ( -26.68%)
   displ. norm   :     0.0743796 α      lambda       -0.3080640E-04
   maximum displ.:     0.0366774 α      in ANC's #2, #1, #5, ...

........................................................................
.............................. CYCLE   17 ..............................
........................................................................
   1    -21.3384550 -0.213385E+02  0.262E-02    9.25       0.0  T
   2    -21.3384556 -0.537555E-06  0.158E-02    9.25       1.6  T
   3    -21.3384557 -0.944597E-07  0.415E-03    9.24       6.0  T
   4    -21.3384557 -0.521898E-07  0.250E-03    9.24      10.0  T
   5    -21.3384558 -0.180271E-07  0.171E-03    9.24      14.6  T
   6    -21.3384558 -0.136278E-07  0.925E-04    9.25      27.0  T
   7    -21.3384558 -0.476976E-08  0.347E-04    9.25      72.0  T
     SCC iter.                  ...        0 min,  0.004 sec
     gradient                   ...        0 min,  0.002 sec
 * total energy  :   -21.1171419 Eh     change       -0.1907208E-04 Eh
   gradient norm :     0.0023815 Eh/α   predicted    -0.1548747E-04 ( -18.80%)
   displ. norm   :     0.1154371 α      lambda       -0.2386452E-04
   maximum displ.:     0.0737617 α      in ANC's #2, #3, #1, ...

........................................................................
.............................. CYCLE   18 ..............................
........................................................................
   1    -21.3377326 -0.213377E+02  0.361E-02    9.24       0.0  T
   2    -21.3377328 -0.243584E-06  0.217E-02    9.24       1.2  T
   3    -21.3377330 -0.151902E-06  0.398E-03    9.24       6.3  T
   4    -21.3377330 -0.410437E-07  0.312E-03    9.24       8.0  T
   5    -21.3377331 -0.376514E-07  0.190E-03    9.24      13.1  T
   6    -21.3377331 -0.220271E-07  0.602E-04    9.24      41.5  T
   7    -21.3377331 -0.137266E-08  0.235E-04    9.24     106.5  T
     SCC iter.                  ...        0 min,  0.005 sec
     gradient                   ...        0 min,  0.002 sec
 * total energy  :   -21.1171563 Eh     change       -0.1442334E-04 Eh
   gradient norm :     0.0021669 Eh/α   predicted    -0.1209117E-04 ( -16.17%)
   displ. norm   :     0.0484189 α      lambda       -0.2155335E-04
   maximum displ.:     0.0306382 α      in ANC's #2, #1, #6, ...

........................................................................
.............................. CYCLE   19 ..............................
........................................................................
   1    -21.3380056 -0.213380E+02  0.184E-02    9.25       0.0  T
   2    -21.3380057 -0.120843E-06  0.109E-02    9.25       2.3  T
   3    -21.3380057 -0.298744E-07  0.215E-03    9.25      11.6  T
   4    -21.3380058 -0.175626E-07  0.144E-03    9.25      17.3  T
   5    -21.3380058 -0.616723E-08  0.981E-04    9.25      25.5  T
   6    -21.3380058 -0.467573E-08  0.466E-04    9.25      53.7  T
     SCC iter.                  ...        0 min,  0.004 sec
     gradient                   ...        0 min,  0.002 sec
 * total energy  :   -21.1171726 Eh     change       -0.1627791E-04 Eh
   gradient norm :     0.0017277 Eh/α   predicted    -0.1080066E-04 ( -33.65%)
   displ. norm   :     0.0970320 α      lambda       -0.2597455E-04
   maximum displ.:     0.0635292 α      in ANC's #2, #6, #7, ...

........................................................................
.............................. CYCLE   20 ..............................
........................................................................
   1    -21.3379792 -0.213380E+02  0.363E-02    9.25       0.0  T
   2    -21.3379794 -0.187680E-06  0.216E-02    9.25       1.2  T
   3    -21.3379795 -0.137903E-06  0.340E-03    9.25       7.3  T
   4    -21.3379796 -0.267870E-07  0.255E-03    9.25       9.8  T
   5    -21.3379796 -0.288739E-07  0.140E-03    9.25      17.8  T
   6    -21.3379796 -0.968459E-08  0.488E-04    9.25      51.2  T
   7    -21.3379796 -0.842196E-09  0.118E-04    9.25     212.0  T
     SCC iter.                  ...        0 min,  0.005 sec
     gradient                   ...        0 min,  0.002 sec
 * total energy  :   -21.1171911 Eh     change       -0.1845512E-04 Eh
   gradient norm :     0.0015377 Eh/α   predicted    -0.1304102E-04 ( -29.34%)
   displ. norm   :     0.0191930 α      lambda       -0.5535605E-05
   maximum displ.:     0.0105571 α      in ANC's #2, #1, #8, ...
 * RMSD in coord.:     0.7475306 α      energy gain  -0.2410359E-01 Eh

generating ANC from model Hessian ...
Using Lindh-Hessian (1995)
 Shifting diagonal of input Hessian by    9.7346245265171032E-003
 Lowest  eigenvalues of input Hessian
    0.000000    0.000000    0.000000    0.000000    0.000000    0.000000
    0.010000    0.011732    0.014303    0.018139    0.023016    0.027908
    0.040668    0.042434    0.049566    0.052442    0.054794    0.055454
 Highest eigenvalues
    1.207436    1.270302    1.278899    1.371136    1.383821    1.519959


........................................................................
.............................. CYCLE   21 ..............................
........................................................................
   1    -21.3379706 -0.213380E+02  0.106E-02    9.25       0.0  T
   2    -21.3379706 -0.612128E-07  0.636E-03    9.25       3.9  T
   3    -21.3379706 -0.122694E-07  0.185E-03    9.25      13.5  T
   4    -21.3379706 -0.166164E-07  0.120E-03    9.25      20.9  T
   5    -21.3379707 -0.581385E-08  0.674E-04    9.25      37.1  T
   6    -21.3379707 -0.262341E-08  0.289E-04    9.25      86.6  T
     SCC iter.                  ...        0 min,  0.004 sec
     gradient                   ...        0 min,  0.002 sec
 * total energy  :   -21.1171965 Eh     change       -0.5442322E-05 Eh
   gradient norm :     0.0008110 Eh/α   predicted     0.0000000E+00 (-100.00%)
   displ. norm   :     0.0110670 α      lambda       -0.2289140E-05
   maximum displ.:     0.0058612 α      in ANC's #1, #4, #3, ...

........................................................................
.............................. CYCLE   22 ..............................
........................................................................
   1    -21.3379866 -0.213380E+02  0.887E-03    9.25       0.0  T
   2    -21.3379867 -0.444232E-07  0.546E-03    9.25       4.6  T
   3    -21.3379867 -0.174269E-07  0.187E-03    9.25      13.4  T
   4    -21.3379867 -0.147901E-07  0.132E-03    9.25      19.0  T
   5    -21.3379867 -0.778699E-08  0.649E-04    9.25      38.5  T
   6    -21.3379867 -0.238599E-08  0.187E-04    9.25     133.4  T
     SCC iter.                  ...        0 min,  0.004 sec
     gradient                   ...        0 min,  0.002 sec
 * total energy  :   -21.1171976 Eh     change       -0.1112842E-05 Eh
   gradient norm :     0.0002738 Eh/α   predicted    -0.1146078E-05 (   2.99%)
   displ. norm   :     0.0100423 α      lambda       -0.1047554E-05
   maximum displ.:     0.0073488 α      in ANC's #3, #1, #4, ...

   *** GEOMETRY OPTIMIZATION CONVERGED AFTER 22 ITERATIONS ***

------------------------------------------------------------------------
 total energy gain   :        -0.0241101 Eh      -15.1293 kcal/mol
 total RMSD          :         0.7474674 a0        0.3955 Å
 total power (kW/mol):        -2.8773268 (step) -248.1399 (real)
------------------------------------------------------------------------

 ANCopt (total)                0 d,  0 h,  0 min,  0.255 sec
 optimizer setup                ...        0 min,  0.000 sec (  0.036%)
 model hessian                  ...        0 min,  0.022 sec (  8.481%)
 ANC generation                 ...        0 min,  0.002 sec (  0.652%)
 coordinate transformation      ...        0 min,  0.000 sec (  0.109%)
 single point calculation       ...        0 min,  0.224 sec ( 87.682%)
 optimization log               ...        0 min,  0.002 sec (  0.727%)
 hessian update                 ...        0 min,  0.001 sec (  0.559%)
 rational function              ...        0 min,  0.003 sec (  1.123%)

================
 final structure:
================
16
 xtb: 6.5.1 (fef0646)
N            1.15759936133351       -0.04571112872248       -0.34033810458359
C            2.60992812785830       -0.14509698778515       -0.28734665012768
C            3.14261578527430       -1.16941017836899        0.72744743011960
C            4.06051675629448       -0.08676158445492        1.31522778273180
C            3.29732888638833        0.97550063993296        0.50926183283201
Cl          -0.00908099233215        0.30355258651138        2.32885303772561
H            0.74761564447097       -0.88699122452509       -0.73242022654579
H            0.86583397329477        0.75325822756053       -0.89360898982006
H            0.57112131395548        0.13559907778406        1.09013213128493
H            3.04896594258781       -0.27806495506559       -1.28558911875744
H            3.63136354903895       -2.04784335855788        0.31259756835937
H            2.36681287517919       -1.47758281774833        1.42280120426198
H            5.09686524582036       -0.19313607208658        1.00254903919285
H            4.02357966017934        0.02554309812132        2.39481984053050
H            3.90031839207473        1.67373159594584       -0.06657317566336
H            2.58365547858084        1.52449308145839        1.11714639845882

 Bond Distances (Angstroems)
 ---------------------------
N1-C2=1.4567         N1-H7=1.0147         N1-H8=1.0147         C2-N1=1.4567         C2-C3=1.5371         C2-C5=1.5372         
C2-H10=1.0986        C3-C2=1.5371         C3-C4=1.5363         C3-H11=1.0875        C3-H12=1.0864        C4-C3=1.5363         
C4-C5=1.5364         C4-H13=1.0877        C4-H14=1.0860        C5-C2=1.5372         C5-C4=1.5364         C5-H15=1.0875        
C5-H16=1.0864        Cl6-H9=1.3781        H7-N1=1.0147         H8-N1=1.0147         H9-Cl6=1.3781        H10-C2=1.0986        
H11-C3=1.0875        H12-C3=1.0864        H13-C4=1.0877        H14-C4=1.0860        H15-C5=1.0875        H16-C5=1.0864        
 C  H  Rav=1.0886 sigma=0.0041  Rmin=1.0860  Rmax=1.0986     7
 C  C  Rav=1.5367 sigma=0.0004  Rmin=1.5363  Rmax=1.5372     4
 N  H  Rav=1.0147 sigma=0.0000  Rmin=1.0147  Rmax=1.0147     2
 N  C  Rav=1.4567 sigma=0.0000  Rmin=1.4567  Rmax=1.4567     1
 Cl H  Rav=1.3781 sigma=0.0000  Rmin=1.3781  Rmax=1.3781     1

 selected bond angles (degree)
 --------------------
H7-N1-C2=111.12                H8-N1-C2=111.11                H8-N1-H7=109.02                C3-C2-N1=114.52                
C5-C2-N1=114.52                C5-C2-C3= 89.35                H10-C2-N1=111.94               H10-C2-C3=112.38               
H10-C2-C5=112.36               C4-C3-C2= 89.43                H11-C3-C2=116.24               H11-C3-C4=116.53               
H12-C3-C2=111.35               H12-C3-C4=112.44               H12-C3-H11=109.63              C5-C4-C3= 89.41                
H13-C4-C3=112.98               H13-C4-C5=112.96               H14-C4-C3=115.65               H14-C4-C5=115.66               
H14-C4-H13=109.16              C4-C5-C2= 89.42                H15-C5-C2=116.21               H15-C5-C4=116.50               
H16-C5-C2=111.38               H16-C5-C4=112.47               H16-C5-H15=109.64              

 selected dihedral angles (degree)
 ---------------------------------
C3-C2-N1-H7=291.20            C3-C2-N1-H8=169.61            C5-C2-N1-H7=189.99            C5-C2-N1-H8= 68.41            
H10-C2-N1-H7= 60.61           H10-C2-N1-H8=299.03           C4-C3-C2-N1=231.55            C4-C3-C2-C5=348.36            
C4-C3-C2-H10=102.36           H11-C3-C2-N1=112.01           H11-C3-C2-C5=228.81           H11-C3-C2-H10=342.82          
H12-C3-C2-N1=345.50           H12-C3-C2-C5=102.31           H12-C3-C2-H10=216.31          C5-C4-C3-C2= 11.65            
C5-C4-C3-H11=130.94           C5-C4-C3-H12=258.70           H13-C4-C3-C2=256.85           H13-C4-C3-H11= 16.14          
H13-C4-C3-H12=143.91          H14-C4-C3-C2=130.04           H14-C4-C3-H11=249.33          H14-C4-C3-H12= 17.10          
C4-C5-C2-N1=128.45            C4-C5-C2-C3= 11.64            C4-C5-C2-H10=257.62           H15-C5-C2-N1=247.95           
H15-C5-C2-C3=131.14           H15-C5-C2-H10= 17.12          H16-C5-C2-N1= 14.46           H16-C5-C2-C3=257.65           
H16-C5-C2-H10=143.63          C2-C5-C4-C3=348.35            C2-C5-C4-H13=103.17           C2-C5-C4-H14=229.97           
H15-C5-C4-C3=229.11           H15-C5-C4-H13=343.93          H15-C5-C4-H14=110.73          H16-C5-C4-C3=101.34           
H16-C5-C4-H13=216.15          H16-C5-C4-H14=342.95          

 CMA Distance (Angstroems)
 ---------------------------
R(CMA):  3.4322
           -------------------------------------------------
          |                Final Singlepoint                |
           -------------------------------------------------

          ...................................................
          :                      SETUP                      :
          :.................................................:
          :  # basis functions                  40          :
          :  # atomic orbitals                  39          :
          :  # shells                           23          :
          :  # electrons                        38          :
          :  max. iterations                   250          :
          :  Hamiltonian                  GFN2-xTB          :
          :  restarted?                      false          :
          :  GBSA solvation                  false          :
          :  PC potential                    false          :
          :  electronic temp.          300.0000000     K    :
          :  accuracy                    1.0000000          :
          :  -> integral cutoff          0.2500000E+02      :
          :  -> integral neglect         0.1000000E-07      :
          :  -> SCF convergence          0.1000000E-05 Eh   :
          :  -> wf. convergence          0.1000000E-03 e    :
          :  Broyden damping             0.4000000          :
          ...................................................

 iter      E             dE          RMSdq      gap      omega  full diag
   1    -21.3379867 -0.213380E+02  0.730E-05    9.25       0.0  T
   2    -21.3379867 -0.108429E-10  0.495E-05    9.25     505.2  T
   3    -21.3379867 -0.598632E-11  0.323E-05    9.25     775.1  T

   *** convergence criteria satisfied after 3 iterations ***

         #    Occupation            Energy/Eh            Energy/eV
      -------------------------------------------------------------
         1        2.0000           -1.0161675             -27.6513
       ...           ...                  ...                  ...
        13        2.0000           -0.4729407             -12.8694
        14        2.0000           -0.4407100             -11.9923
        15        2.0000           -0.4331696             -11.7871
        16        2.0000           -0.4309509             -11.7268
        17        2.0000           -0.3959000             -10.7730
        18        2.0000           -0.3931581             -10.6984
        19        2.0000           -0.3930818             -10.6963 (HOMO)
        20                         -0.0532326              -1.4485 (LUMO)
        21                          0.0143355               0.3901
        22                          0.0286390               0.7793
        23                          0.0322419               0.8773
        24                          0.0624026               1.6981
       ...                                ...                  ...
        39                          0.3753979              10.2151
      -------------------------------------------------------------
                  HL-Gap            0.3398492 Eh            9.2478 eV
             Fermi-level           -0.2231572 Eh           -6.0724 eV

 SCC (total)                   0 d,  0 h,  0 min,  0.005 sec
 SCC setup                      ...        0 min,  0.000 sec (  1.881%)
 Dispersion                     ...        0 min,  0.000 sec (  2.652%)
 classical contributions        ...        0 min,  0.000 sec (  0.403%)
 integral evaluation            ...        0 min,  0.001 sec ( 13.953%)
 iterations                     ...        0 min,  0.002 sec ( 44.121%)
 molecular gradient             ...        0 min,  0.002 sec ( 33.666%)
 printout                       ...        0 min,  0.000 sec (  1.949%)

         :::::::::::::::::::::::::::::::::::::::::::::::::::::
         ::                     SUMMARY                     ::
         :::::::::::::::::::::::::::::::::::::::::::::::::::::
         :: total energy             -21.117197627993 Eh    ::
         :: gradient norm              0.000273843810 Eh/a0 ::
         :: HOMO-LUMO gap              9.247767367786 eV    ::
         ::.................................................::
         :: SCC energy               -21.337986721622 Eh    ::
         :: -> isotropic ES            0.028391087220 Eh    ::
         :: -> anisotropic ES         -0.005845324195 Eh    ::
         :: -> anisotropic XC          0.007380027814 Eh    ::
         :: -> dispersion             -0.009831623642 Eh    ::
         :: repulsion energy           0.220755259693 Eh    ::
         :: add. restraining           0.000000000000 Eh    ::
         :: total charge              -0.000000000000 e     ::
         :::::::::::::::::::::::::::::::::::::::::::::::::::::

           -------------------------------------------------
          |                Property Printout                |
           -------------------------------------------------

    * Orbital Energies and Occupations

         #    Occupation            Energy/Eh            Energy/eV
      -------------------------------------------------------------
         1        2.0000           -1.0161675             -27.6513
       ...           ...                  ...                  ...
         7        2.0000           -0.5541715             -15.0798
         8        2.0000           -0.5492813             -14.9467
         9        2.0000           -0.5306408             -14.4395
        10        2.0000           -0.5056865             -13.7604
        11        2.0000           -0.4908435             -13.3565
        12        2.0000           -0.4774053             -12.9909
        13        2.0000           -0.4729407             -12.8694
        14        2.0000           -0.4407100             -11.9923
        15        2.0000           -0.4331696             -11.7871
        16        2.0000           -0.4309509             -11.7268
        17        2.0000           -0.3959000             -10.7730
        18        2.0000           -0.3931581             -10.6984
        19        2.0000           -0.3930818             -10.6963 (HOMO)
        20                         -0.0532326              -1.4485 (LUMO)
        21                          0.0143355               0.3901
        22                          0.0286390               0.7793
        23                          0.0322419               0.8773
        24                          0.0624026               1.6981
        25                          0.0686021               1.8668
        26                          0.0688016               1.8722
        27                          0.0744272               2.0253
        28                          0.0745948               2.0298
        29                          0.0941801               2.5628
        30                          0.1105951               3.0094
       ...                                ...                  ...
        39                          0.3753979              10.2151
      -------------------------------------------------------------
                  HL-Gap            0.3398492 Eh            9.2478 eV
             Fermi-level           -0.2231572 Eh           -6.0724 eV

     #   Z          covCN         q      C6AA      α(0)
     1   7 N        2.697    -0.306    27.861     7.839
     2   6 C        3.969     0.047    19.716     6.309
     3   6 C        3.991    -0.077    21.885     6.646
     4   6 C        3.989    -0.060    21.577     6.599
     5   6 C        3.991    -0.077    21.884     6.646
     6  17 Cl       0.836    -0.493   115.437    16.436
     7   1 H        0.860     0.167     1.292     1.780
     8   1 H        0.860     0.167     1.291     1.780
     9   1 H        0.903     0.335     0.616     1.228
    10   1 H        0.923     0.018     2.768     2.602
    11   1 H        0.925     0.035     2.515     2.480
    12   1 H        0.925     0.063     2.162     2.299
    13   1 H        0.925     0.038     2.479     2.462
    14   1 H        0.925     0.045     2.384     2.415
    15   1 H        0.925     0.035     2.516     2.480
    16   1 H        0.925     0.063     2.163     2.300

 Mol. C6AA /au·bohr⁶  :       2337.899043
 Mol. C8AA /au·bohr⁸  :      58366.081411
 Mol. α(0) /au        :         72.301977


Wiberg/Mayer (AO) data.
largest (>0.10) Wiberg bond orders for each atom

 ---------------------------------------------------------------------------
     #   Z sym  total        # sym  WBO       # sym  WBO       # sym  WBO
 ---------------------------------------------------------------------------
     1   7 N    3.246 --     2 C    0.998     7 H    0.956     8 H    0.956
                             9 H    0.211
     2   6 C    3.968 --     1 N    0.998     5 C    0.993     3 C    0.993
                            10 H    0.967
     3   6 C    3.989 --     4 C    1.004     2 C    0.993    11 H    0.982
                            12 H    0.976
     4   6 C    3.991 --     3 C    1.004     5 C    1.004    13 H    0.983
                            14 H    0.983
     5   6 C    3.989 --     4 C    1.004     2 C    0.993    15 H    0.982
                            16 H    0.976
     6  17 Cl   0.760 --     9 H    0.670
     7   1 H    0.972 --     1 N    0.956
     8   1 H    0.972 --     1 N    0.956
     9   1 H    0.888 --     6 Cl   0.670     1 N    0.211
    10   1 H    1.000 --     2 C    0.967
    11   1 H    0.999 --     3 C    0.982
    12   1 H    0.996 --     3 C    0.976
    13   1 H    0.999 --     4 C    0.983
    14   1 H    0.998 --     4 C    0.983
    15   1 H    0.999 --     5 C    0.982
    16   1 H    0.996 --     5 C    0.976
 ---------------------------------------------------------------------------

Topologies differ in total number of bonds
Writing topology from bond orders to xtbtopo.mol

molecular dipole:
                 x           y           z       tot (Debye)
 q only:        0.945      -0.228      -1.602
   full:        0.725      -0.211      -1.604       4.505
molecular quadrupole (traceless):
                xx          xy          yy          xz          yz          zz
 q only:        6.744       0.151       2.675       2.357      -1.725      -9.419
  q+dip:        4.322      -0.281       0.903      -1.877      -0.804      -5.225
   full:        4.448      -0.228       1.002      -1.342      -0.875      -5.450

           -------------------------------------------------
          |                Geometry Summary                 |
           -------------------------------------------------

      molecular mass/u    :      107.5819919
   center of mass at/Å    :        1.8628292       0.0393250       1.0168390
  moments of inertia/u·Å² :        0.1257922E+03   0.3570914E+03   0.4006120E+03
rotational constants/cm⁻¹ :        0.1340117E+00   0.4720817E-01   0.4207970E-01

 * 14 selected distances

     #   Z          #   Z                                           value/Å
     1   7 N        2   6 C                                       1.4566897
     2   6 C        3   6 C                                       1.5371341
     3   6 C        4   6 C                                       1.5362800
     2   6 C        5   6 C                                       1.5371546 (max)
     4   6 C        5   6 C                                       1.5363718
     1   7 N        7   1 H                                       1.0146760 (min)
     1   7 N        8   1 H                                       1.0146861
     2   6 C       10   1 H                                       1.0986004
     3   6 C       11   1 H                                       1.0874833
     3   6 C       12   1 H                                       1.0864426
     4   6 C       13   1 H                                       1.0877049
     4   6 C       14   1 H                                       1.0860460
     5   6 C       15   1 H                                       1.0875242
     5   6 C       16   1 H                                       1.0863914

 * 4 distinct bonds (by element types)

   Z      Z             #   av. dist./Å        max./Å        min./Å
   1 H    6 C           7     1.0885990     1.0986004     1.0860460
   6 C    6 C           4     1.5367351     1.5371546     1.5362800
   1 H    7 N           2     1.0146811     1.0146861     1.0146760
   6 C    7 N           1     1.4566897     1.4566897     1.4566897


optimized geometry written to: xtbopt.xyz


           -------------------------------------------------
          | TOTAL ENERGY              -21.117197627993 Eh   |
          | GRADIENT NORM               0.000273843810 Eh/α |
          | HOMO-LUMO GAP               9.247767367786 eV   |
           -------------------------------------------------

------------------------------------------------------------------------
 * finished run on 2023/01/23 at 18:41:19.302     
------------------------------------------------------------------------
 total:
 * wall-time:     0 d,  0 h,  0 min,  0.313 sec
 *  cpu-time:     0 d,  0 h,  0 min, 25.970 sec
 * ratio c/w:    82.874 speedup
 SCF:
 * wall-time:     0 d,  0 h,  0 min,  0.030 sec
 *  cpu-time:     0 d,  0 h,  0 min,  3.833 sec
 * ratio c/w:   128.222 speedup
 ANC optimizer:
 * wall-time:     0 d,  0 h,  0 min,  0.261 sec
 *  cpu-time:     0 d,  0 h,  0 min, 19.353 sec
 * ratio c/w:    74.271 speedup

