16
 energy: -21.117197627993 gnorm: 0.000273843810 xtb: 6.5.1 (fef0646)
N            1.15759936133351       -0.04571112872248       -0.34033810458359
C            2.60992812785830       -0.14509698778515       -0.28734665012768
C            3.14261578527430       -1.16941017836899        0.72744743011960
C            4.06051675629448       -0.08676158445492        1.31522778273180
C            3.29732888638833        0.97550063993296        0.50926183283201
Cl          -0.00908099233215        0.30355258651138        2.32885303772561
H            0.74761564447097       -0.88699122452509       -0.73242022654579
H            0.86583397329477        0.75325822756053       -0.89360898982006
H            0.57112131395548        0.13559907778406        1.09013213128493
H            3.04896594258781       -0.27806495506559       -1.28558911875744
H            3.63136354903895       -2.04784335855788        0.31259756835937
H            2.36681287517919       -1.47758281774833        1.42280120426198
H            5.09686524582036       -0.19313607208658        1.00254903919285
H            4.02357966017934        0.02554309812132        2.39481984053050
H            3.90031839207473        1.67373159594584       -0.06657317566336
H            2.58365547858084        1.52449308145839        1.11714639845882
