15
 energy: -18.079297010655 gnorm: 0.000413523613 xtb: 6.5.1 (fef0646)
O            2.88793339107719       -1.24505593329796       -0.14838123874923
C            2.40707269167702        0.08240504214138        0.07442059337884
C            2.92913975800713        0.98834713281058       -1.04085152285424
C            4.45185436597171        1.03724420513977       -1.06018177481824
N            4.96413619427145       -0.32143713290186       -1.39854810058980
H            2.48381394663782       -1.84998210553227        0.48232019564799
H            2.75442993929991        0.44280510968829        1.05002239012946
H            1.31412160527699        0.09038514901878        0.06815860954678
H            2.53702769761537        1.99145169051389       -0.88352931076225
H            2.55577917832597        0.62910146610809       -2.00087238680810
H            4.82970306306528        1.31126584574228       -0.07377288246787
H            4.81272563487756        1.76536034320181       -1.78728169281545
H            4.33968937369198       -0.98540607760906       -0.85188858923356
H            5.95074664584534       -0.44531515230296       -1.15732659265419
H            4.83542651435930       -0.52266958272077       -2.39513769695011
