15
 energy: -16.219909508167 gnorm: 0.000329005261 xtb: 6.5.1 (fef0646)
N            0.96416396915521       -0.04432256762744        0.05952819928762
C            2.44707334072709       -0.06777643498970        0.07799395921528
C            2.95669829612808       -1.43013295605565        0.54753307425027
C            4.45592860443379       -1.44868181564509        0.56686757287302
C            5.17957589939712       -1.68724838466622        1.64416555788362
H            0.61761662277214        0.87204142544535       -0.24723252920669
H            0.59708817756010       -0.23780778742939        0.99902246771390
H            0.60575158644197       -0.76385709055528       -0.57973986594921
H            2.81163889264482        0.70718272065909        0.75201545240598
H            2.82305597215096        0.13973931423909       -0.92383889296487
H            2.61488051746847       -2.21030221910257       -0.13616086311898
H            2.58756809934177       -1.65396131373942        1.54857165290487
H            4.94116349369658       -1.25235777583185       -0.37965504329235
H            4.73033486544666       -1.89247808132676        2.60248089395462
H            6.25588166263524       -1.70119703337415        1.61893836404292
