      -----------------------------------------------------------      
     |                   =====================                   |     
     |                           x T B                           |     
     |                   =====================                   |     
     |                         S. Grimme                         |     
     |          Mulliken Center for Theoretical Chemistry        |     
     |                    University of Bonn                     |     
      -----------------------------------------------------------      

   * xtb version 6.5.1 (fef0646) compiled by 'conda@b96dff2e9fd6' on 2023-01-04

   xtb is free software: you can redistribute it and/or modify it under
   the terms of the GNU Lesser General Public License as published by
   the Free Software Foundation, either version 3 of the License, or
   (at your option) any later version.
   
   xtb is distributed in the hope that it will be useful,
   but WITHOUT ANY WARRANTY; without even the implied warranty of
   MERCHANTABILITY or FITNESS FOR A PARTICULAR PURPOSE.  See the
   GNU Lesser General Public License for more details.
   
   Cite this work as:
   * C. Bannwarth, E. Caldeweyher, S. Ehlert, A. Hansen, P. Pracht,
     J. Seibert, S. Spicher, S. Grimme, WIREs Comput. Mol. Sci., 2020, 11,
     e01493. DOI: 10.1002/wcms.1493
   
   for GFN2-xTB:
   * C. Bannwarth, S. Ehlert and S. Grimme., J. Chem. Theory Comput., 2019,
     15, 1652-1671. DOI: 10.1021/acs.jctc.8b01176
   for GFN1-xTB:
   * S. Grimme, C. Bannwarth, P. Shushkov, J. Chem. Theory Comput., 2017,
     13, 1989-2009. DOI: 10.1021/acs.jctc.7b00118
   for GFN0-xTB:
   * P. Pracht, E. Caldeweyher, S. Ehlert, S. Grimme, ChemRxiv, 2019, preprint.
     DOI: 10.26434/chemrxiv.8326202.v1
   for GFN-FF:
   * S. Spicher and S. Grimme, Angew. Chem. Int. Ed., 2020, 59, 15665-15673.
     DOI: 10.1002/anie.202004239
   
   for ALPB and GBSA implicit solvation:
   * S. Ehlert, M. Stahn, S. Spicher, S. Grimme, J. Chem. Theory Comput.,
     2021, 17, 4250-4261. DOI: 10.1021/acs.jctc.1c00471
   
   for DFT-D4:
   * E. Caldeweyher, C. Bannwarth and S. Grimme, J. Chem. Phys., 2017,
     147, 034112. DOI: 10.1063/1.4993215
   * E. Caldeweyher, S. Ehlert, A. Hansen, H. Neugebauer, S. Spicher,
     C. Bannwarth and S. Grimme, J. Chem. Phys., 2019, 150, 154122.
     DOI: 10.1063/1.5090222
   * E. Caldeweyher, J.-M. Mewes, S. Ehlert and S. Grimme, Phys. Chem. Chem. Phys.
     2020, 22, 8499-8512. DOI: 10.1039/D0CP00502A
   
   for sTDA-xTB:
   * S. Grimme and C. Bannwarth, J. Chem. Phys., 2016, 145, 054103.
     DOI: 10.1063/1.4959605
   
   in the mass-spec context:
   * V. Asgeirsson, C. Bauer and S. Grimme, Chem. Sci., 2017, 8, 4879.
     DOI: 10.1039/c7sc00601b
   * J. Koopman and S. Grimme, ACS Omega 2019, 4, 12, 15120-15133.
     DOI: 10.1021/acsomega.9b02011
   
   for metadynamics refer to:
   * S. Grimme, J. Chem. Theory Comput., 2019, 155, 2847-2862
     DOI: 10.1021/acs.jctc.9b00143
   
   for SPH calculations refer to:
   * S. Spicher and S. Grimme, J. Chem. Theory Comput., 2021, 17, 1701-1714
     DOI: 10.1021/acs.jctc.0c01306
   
   with help from (in alphabetical order)
   P. Atkinson, C. Bannwarth, F. Bohle, G. Brandenburg, E. Caldeweyher
   M. Checinski, S. Dohm, S. Ehlert, S. Ehrlich, I. Gerasimov, C. Hölzer
   A. Katbashev, J. Koopman, C. Lavigne, S. Lehtola, F. März, M. Müller,
   F. Musil, H. Neugebauer, J. Pisarek, C. Plett, P. Pracht, F. Pultar,
   J. Seibert, P. Shushkov, S. Spicher, M. Stahn, M. Steiner, T. Strunk,
   J. Stückrath, T. Rose, and J. Unsleber
   
 * started run on 2023/01/24 at 14:57:43.448     

           -------------------------------------------------
          |                Calculation Setup                |
           -------------------------------------------------

          program call               : xtb init.xyz --opt -c 0 -u 0 -P 16 --alpb water
          hostname                   : gpg-woodward
          coordinate file            : init.xyz
          omp threads                :                    16

   ID    Z sym.   atoms
    1    7 N      1
    2    6 C      2-7
    3   16 S      8
    4   17 Cl     9
    5    1 H      10-19

molecular fragmentation (1/2 indicates fragments):
1111111121111111111
# atoms in fragment 1/2:    18     1
 fragment masses (1/2) :      128.22       35.45
CMA distance (Bohr)    :  10.819
constraining FC (au)   :  0.0500

           -------------------------------------------------
          |                 G F N 2 - x T B                 |
           -------------------------------------------------

        Reference                      10.1021/acs.jctc.8b01176
      * Hamiltonian:
        H0-scaling (s, p, d)           1.850000    2.230000    2.230000
        zeta-weighting                 0.500000
      * Dispersion:
        s8                             2.700000
        a1                             0.520000
        a2                             5.000000
        s9                             5.000000
      * Repulsion:
        kExp                           1.500000    1.000000
        rExp                           1.000000
      * Coulomb:
        alpha                          2.000000
        third order                    shell-resolved
        anisotropic                    true
        a3                             3.000000
        a5                             4.000000
        cn-shift                       1.200000
        cn-exp                         4.000000
        max-rad                        5.000000

      * Solvation model:               ALPB
        Solvent                        water
        Parameter file                 internal GFN2-xTB/ALPB
        Dielectric constant                8.0200E+01
        Reference state                gsolv [1 M gas/solution]
        Free energy shift                  1.0808E-03 Eh       6.7819E-01 kcal/mol
        Temperature                        2.9815E+02 K
        Density                            1.0000E+00 kg/L
        Solvent mass                       1.8000E+01 g/mol
        Interaction kernel             P16
        Born radius scaling (c1)           1.4744E+00
        Born radii integrator          GBOBC
        Born offset                        0.0000E+00 a0       0.0000E+00 AA
        H-bond correction              true
        Ion screening                  false
        Surface tension                    1.0000E-05 Eh       1.5569E+01 dyn/cm
        Grid points                               230 per atom

          ...................................................
          :                      SETUP                      :
          :.................................................:
          :  # basis functions                  58          :
          :  # atomic orbitals                  56          :
          :  # shells                           30          :
          :  # electrons                        52          :
          :  max. iterations                   250          :
          :  Hamiltonian                  GFN2-xTB          :
          :  restarted?                      false          :
          :  GBSA solvation                   true          :
          :  PC potential                    false          :
          :  electronic temp.          300.0000000     K    :
          :  accuracy                    1.0000000          :
          :  -> integral cutoff          0.2500000E+02      :
          :  -> integral neglect         0.1000000E-07      :
          :  -> SCF convergence          0.1000000E-05 Eh   :
          :  -> wf. convergence          0.1000000E-03 e    :
          :  Broyden damping             0.4000000          :
          ...................................................

 iter      E             dE          RMSdq      gap      omega  full diag
   1    -28.9197886 -0.289198E+02  0.434E+00    3.78       0.0  T
   2    -28.9987504 -0.789618E-01  0.245E+00    3.85       1.0  T
   3    -29.0012581 -0.250764E-02  0.124E+00    3.86       1.0  T
   4    -29.0008552  0.402846E-03  0.789E-01    3.85       1.0  T
   5    -29.0059591 -0.510386E-02  0.331E-01    3.84       1.0  T
   6    -29.0062391 -0.280017E-03  0.255E-01    3.84       1.0  T
   7    -29.0067417 -0.502582E-03  0.119E-01    3.83       1.0  T
   8    -29.0068242 -0.825579E-04  0.372E-02    3.83       1.0  T
   9    -29.0068313 -0.710140E-05  0.164E-02    3.83       1.4  T
  10    -29.0068316 -0.292526E-06  0.855E-03    3.83       2.7  T
  11    -29.0068319 -0.276180E-06  0.325E-03    3.83       7.1  T
  12    -29.0068319 -0.263168E-07  0.152E-03    3.83      15.1  T
  13    -29.0068320 -0.621790E-08  0.399E-04    3.83      57.5  T
  14    -29.0068320 -0.233626E-09  0.990E-05    3.83     231.8  T

   *** convergence criteria satisfied after 14 iterations ***

         #    Occupation            Energy/Eh            Energy/eV
      -------------------------------------------------------------
         1        2.0000           -1.0116164             -27.5275
       ...           ...                  ...                  ...
        20        2.0000           -0.4441289             -12.0854
        21        2.0000           -0.4318898             -11.7523
        22        2.0000           -0.4028775             -10.9629
        23        2.0000           -0.4025692             -10.9545
        24        2.0000           -0.4024899             -10.9523
        25        2.0000           -0.3902697             -10.6198
        26        2.0000           -0.3788562             -10.3092 (HOMO)
        27                         -0.2380720              -6.4783 (LUMO)
        28                         -0.1931564              -5.2561
        29                         -0.1677881              -4.5657
        30                         -0.1095211              -2.9802
        31                         -0.0291753              -0.7939
       ...                                ...                  ...
        56                          0.6848291              18.6351
      -------------------------------------------------------------
                  HL-Gap            0.1407842 Eh            3.8309 eV
             Fermi-level           -0.3084641 Eh           -8.3937 eV

 SCC (total)                   0 d,  0 h,  0 min,  0.035 sec
 SCC setup                      ...        0 min,  0.000 sec (  1.149%)
 Dispersion                     ...        0 min,  0.000 sec (  1.400%)
 classical contributions        ...        0 min,  0.000 sec (  0.215%)
 integral evaluation            ...        0 min,  0.002 sec (  4.887%)
 iterations                     ...        0 min,  0.029 sec ( 82.665%)
 molecular gradient             ...        0 min,  0.003 sec (  8.385%)
 printout                       ...        0 min,  0.000 sec (  0.447%)

         :::::::::::::::::::::::::::::::::::::::::::::::::::::
         ::                     SUMMARY                     ::
         :::::::::::::::::::::::::::::::::::::::::::::::::::::
         :: total energy             -28.673294006796 Eh    ::
         :: total w/o Gsasa/hb       -28.667809503260 Eh    ::
         :: gradient norm              0.043808707853 Eh/a0 ::
         :: HOMO-LUMO gap              3.830933215171 eV    ::
         ::.................................................::
         :: SCC energy               -29.006831950500 Eh    ::
         :: -> isotropic ES            0.105991311718 Eh    ::
         :: -> anisotropic ES         -0.029043661263 Eh    ::
         :: -> anisotropic XC          0.004674396910 Eh    ::
         :: -> dispersion             -0.014454205594 Eh    ::
         :: -> Gsolv                  -0.061417204432 Eh    ::
         ::    -> Gelec               -0.055932700896 Eh    ::
         ::    -> Gsasa                0.000323362404 Eh    ::
         ::    -> Ghb                 -0.006888625639 Eh    ::
         ::    -> Gshift               0.001080759698 Eh    ::
         :: repulsion energy           0.333555849931 Eh    ::
         :: add. restraining           0.000000000000 Eh    ::
         :: total charge              -0.000000000000 e     ::
         :::::::::::::::::::::::::::::::::::::::::::::::::::::

      ----------------------------------------------------------- 
     |                   =====================                   |
     |                        A N C O P T                        |
     |                   =====================                   |
     |               Approximate Normal Coordinate               |
     |                Rational Function Optimizer                |
      ----------------------------------------------------------- 

          ...................................................
          :                      SETUP                      :
          :.................................................:
          :   optimization level            normal          :
          :   max. optcycles                   200          :
          :   ANC micro-cycles                  20          :
          :   degrees of freedom                51          :
          :.................................................:
          :   RF solver                   davidson          :
          :   write xtbopt.log                true          :
          :   linear?                        false          :
          :   energy convergence         0.5000000E-05 Eh   :
          :   grad. convergence          0.1000000E-02 Eh/α :
          :   maximium RF displ.         1.0000000          :
          :   Hlow (freq-cutoff)         0.1000000E-01      :
          :   Hmax (freq-cutoff)         5.0000000          :
          :   S6 in model hess.         20.0000000          :
          ...................................................

generating ANC from model Hessian ...
Using Lindh-Hessian (1995)
 Shifting diagonal of input Hessian by    9.8041877855466284E-003
 Lowest  eigenvalues of input Hessian
    0.000000    0.000000    0.000000    0.000000    0.000000    0.000000
    0.010000    0.011135    0.012170    0.012569    0.014041    0.022179
    0.024870    0.027705    0.029156    0.032922    0.050876    0.051813
 Highest eigenvalues
    1.460037    1.510822    1.544467    1.622655    1.805380    1.817738


........................................................................
.............................. CYCLE    1 ..............................
........................................................................
   1    -29.0068320 -0.290068E+02  0.603E-05    3.83       0.0  T
   2    -29.0068320 -0.516209E-11  0.442E-05    3.83     518.6  T
   3    -29.0068320 -0.849099E-12  0.318E-05    3.83     721.7  T
     SCC iter.                  ...        0 min,  0.006 sec
     gradient                   ...        0 min,  0.003 sec
 * total energy  :   -28.6732940 Eh     change       -0.3167600E-10 Eh
   gradient norm :     0.0438090 Eh/α   predicted     0.0000000E+00 (-100.00%)
   displ. norm   :     0.3029264 α      lambda       -0.7470972E-02
   maximum displ.:     0.2516190 α      in ANC's #12, #5, #23, ...

........................................................................
.............................. CYCLE    2 ..............................
........................................................................
   1    -29.0238121 -0.290238E+02  0.239E-01    3.90       0.0  T
   2    -29.0239291 -0.116911E-03  0.126E-01    3.90       1.0  T
   3    -29.0239320 -0.293696E-05  0.487E-02    3.91       1.0  T
   4    -29.0239306  0.143385E-05  0.260E-02    3.91       1.0  T
   5    -29.0239371 -0.654537E-05  0.825E-03    3.91       2.8  T
   6    -29.0239372 -0.130943E-06  0.514E-03    3.91       4.5  T
   7    -29.0239373 -0.637284E-07  0.300E-03    3.91       7.6  T
   8    -29.0239373 -0.466227E-07  0.173E-03    3.91      13.2  T
   9    -29.0239374 -0.145852E-07  0.603E-04    3.91      38.1  T
  10    -29.0239374 -0.121827E-08  0.333E-04    3.91      68.8  T
     SCC iter.                  ...        0 min,  0.018 sec
     gradient                   ...        0 min,  0.003 sec
 * total energy  :   -28.6780472 Eh     change       -0.4753202E-02 Eh
   gradient norm :     0.0252431 Eh/α   predicted    -0.4078390E-02 ( -14.20%)
   displ. norm   :     0.1756870 α      lambda       -0.1833782E-02
   maximum displ.:     0.1126467 α      in ANC's #12, #5, #2, ...

........................................................................
.............................. CYCLE    3 ..............................
........................................................................
   1    -29.0299518 -0.290300E+02  0.120E-01    3.93       0.0  T
   2    -29.0299793 -0.274940E-04  0.628E-02    3.94       1.0  T
   3    -29.0299799 -0.674680E-06  0.258E-02    3.94       1.0  T
   4    -29.0299804 -0.455886E-06  0.150E-02    3.94       1.5  T
   5    -29.0299822 -0.183668E-05  0.604E-03    3.94       3.8  T
   6    -29.0299823 -0.784233E-07  0.387E-03    3.94       5.9  T
   7    -29.0299824 -0.525758E-07  0.249E-03    3.94       9.2  T
   8    -29.0299824 -0.346886E-07  0.135E-03    3.94      17.0  T
   9    -29.0299824 -0.101482E-07  0.449E-04    3.94      51.1  T
  10    -29.0299824 -0.640771E-09  0.239E-04    3.94      96.1  T
     SCC iter.                  ...        0 min,  0.018 sec
     gradient                   ...        0 min,  0.003 sec
 * total energy  :   -28.6791926 Eh     change       -0.1145440E-02 Eh
   gradient norm :     0.0111808 Eh/α   predicted    -0.9454935E-03 ( -17.46%)
   displ. norm   :     0.1130154 α      lambda       -0.3683672E-03
   maximum displ.:     0.0555835 α      in ANC's #5, #2, #12, ...

........................................................................
.............................. CYCLE    4 ..............................
........................................................................
   1    -29.0301731 -0.290302E+02  0.533E-02    3.93       0.0  T
   2    -29.0301768 -0.371389E-05  0.298E-02    3.93       1.0  T
   3    -29.0301769 -0.871756E-07  0.117E-02    3.93       2.0  T
   4    -29.0301773 -0.405519E-06  0.690E-03    3.93       3.3  T
   5    -29.0301776 -0.328410E-06  0.385E-03    3.93       6.0  T
   6    -29.0301777 -0.440792E-07  0.259E-03    3.93       8.9  T
   7    -29.0301777 -0.341972E-07  0.140E-03    3.93      16.4  T
   8    -29.0301777 -0.125299E-07  0.587E-04    3.93      39.1  T
   9    -29.0301777 -0.136945E-08  0.193E-04    3.93     119.2  T
     SCC iter.                  ...        0 min,  0.016 sec
     gradient                   ...        0 min,  0.002 sec
 * total energy  :   -28.6794315 Eh     change       -0.2388071E-03 Eh
   gradient norm :     0.0047140 Eh/α   predicted    -0.1865575E-03 ( -21.88%)
   displ. norm   :     0.0986313 α      lambda       -0.1195849E-03
   maximum displ.:     0.0623615 α      in ANC's #5, #2, #3, ...

........................................................................
.............................. CYCLE    5 ..............................
........................................................................
   1    -29.0299498 -0.290299E+02  0.339E-02    3.93       0.0  T
   2    -29.0299503 -0.512795E-06  0.202E-02    3.93       1.1  T
   3    -29.0299505 -0.189582E-06  0.606E-03    3.93       3.8  T
   4    -29.0299506 -0.121924E-06  0.439E-03    3.93       5.2  T
   5    -29.0299507 -0.903834E-07  0.297E-03    3.93       7.7  T
   6    -29.0299508 -0.438736E-07  0.135E-03    3.93      16.9  T
   7    -29.0299508 -0.107001E-07  0.604E-04    3.93      38.0  T
   8    -29.0299508 -0.222798E-08  0.210E-04    3.93     109.4  T
     SCC iter.                  ...        0 min,  0.014 sec
     gradient                   ...        0 min,  0.002 sec
 * total energy  :   -28.6795146 Eh     change       -0.8316325E-04 Eh
   gradient norm :     0.0022423 Eh/α   predicted    -0.6037640E-04 ( -27.40%)
   displ. norm   :     0.1272025 α      lambda       -0.8308726E-04
   maximum displ.:     0.0902867 α      in ANC's #5, #2, #3, ...

........................................................................
.............................. CYCLE    6 ..............................
........................................................................
   1    -29.0297641 -0.290298E+02  0.358E-02    3.92       0.0  T
   2    -29.0297645 -0.431038E-06  0.219E-02    3.92       1.0  T
   3    -29.0297649 -0.419618E-06  0.618E-03    3.92       3.7  T
   4    -29.0297650 -0.821962E-07  0.471E-03    3.92       4.9  T
   5    -29.0297651 -0.959970E-07  0.295E-03    3.92       7.8  T
   6    -29.0297652 -0.558364E-07  0.102E-03    3.92      22.4  T
   7    -29.0297652 -0.388238E-08  0.438E-04    3.92      52.3  T
   8    -29.0297652 -0.159175E-08  0.165E-04    3.92     139.0  T
     SCC iter.                  ...        0 min,  0.013 sec
     gradient                   ...        0 min,  0.002 sec
 * total energy  :   -28.6795807 Eh     change       -0.6612293E-04 Eh
   gradient norm :     0.0036483 Eh/α   predicted    -0.4221662E-04 ( -36.15%)
   displ. norm   :     0.1826214 α      lambda       -0.1042782E-03
   maximum displ.:     0.1315848 α      in ANC's #5, #2, #3, ...

........................................................................
.............................. CYCLE    7 ..............................
........................................................................
   1    -29.0296257 -0.290296E+02  0.470E-02    3.92       0.0  T
   2    -29.0296265 -0.757647E-06  0.292E-02    3.92       1.0  T
   3    -29.0296273 -0.854816E-06  0.850E-03    3.92       2.7  T
   4    -29.0296275 -0.173189E-06  0.636E-03    3.92       3.6  T
   5    -29.0296277 -0.222679E-06  0.319E-03    3.92       7.2  T
   6    -29.0296278 -0.605601E-07  0.111E-03    3.92      20.7  T
   7    -29.0296278 -0.289153E-08  0.462E-04    3.92      49.7  T
   8    -29.0296278 -0.179017E-08  0.205E-04    3.92     111.7  T
     SCC iter.                  ...        0 min,  0.013 sec
     gradient                   ...        0 min,  0.002 sec
 * total energy  :   -28.6796723 Eh     change       -0.9153805E-04 Eh
   gradient norm :     0.0049163 Eh/α   predicted    -0.5387871E-04 ( -41.14%)
   displ. norm   :     0.2164669 α      lambda       -0.1259458E-03
   maximum displ.:     0.1529540 α      in ANC's #5, #2, #3, ...

........................................................................
.............................. CYCLE    8 ..............................
........................................................................
   1    -29.0296231 -0.290296E+02  0.523E-02    3.93       0.0  T
   2    -29.0296241 -0.992978E-06  0.330E-02    3.93       1.0  T
   3    -29.0296253 -0.120217E-05  0.998E-03    3.93       2.3  T
   4    -29.0296255 -0.211994E-06  0.766E-03    3.93       3.0  T
   5    -29.0296258 -0.371858E-06  0.327E-03    3.93       7.0  T
   6    -29.0296259 -0.485712E-07  0.156E-03    3.93      14.7  T
   7    -29.0296259 -0.142465E-07  0.595E-04    3.93      38.6  T
   8    -29.0296259 -0.275531E-08  0.234E-04    3.93      97.9  T
     SCC iter.                  ...        0 min,  0.011 sec
     gradient                   ...        0 min,  0.002 sec
 * total energy  :   -28.6797689 Eh     change       -0.9666839E-04 Eh
   gradient norm :     0.0048786 Eh/α   predicted    -0.6592507E-04 ( -31.80%)
   displ. norm   :     0.2112521 α      lambda       -0.1119125E-03
   maximum displ.:     0.1516462 α      in ANC's #5, #2, #8, ...

........................................................................
.............................. CYCLE    9 ..............................
........................................................................
   1    -29.0297608 -0.290298E+02  0.524E-02    3.93       0.0  T
   2    -29.0297617 -0.863943E-06  0.327E-02    3.93       1.0  T
   3    -29.0297627 -0.103022E-05  0.893E-03    3.93       2.6  T
   4    -29.0297630 -0.226474E-06  0.597E-03    3.93       3.8  T
   5    -29.0297631 -0.184926E-06  0.329E-03    3.93       7.0  T
   6    -29.0297632 -0.700333E-07  0.109E-03    3.93      21.1  T
   7    -29.0297632 -0.419671E-08  0.527E-04    3.93      43.6  T
   8    -29.0297632 -0.233704E-08  0.227E-04    3.93     101.1  T
     SCC iter.                  ...        0 min,  0.012 sec
     gradient                   ...        0 min,  0.002 sec
 * total energy  :   -28.6798591 Eh     change       -0.9019168E-04 Eh
   gradient norm :     0.0036258 Eh/α   predicted    -0.5845410E-04 ( -35.19%)
   displ. norm   :     0.3003209 α      lambda       -0.1173510E-03
   maximum displ.:     0.2154279 α      in ANC's #5, #2, #8, ...

........................................................................
.............................. CYCLE   10 ..............................
........................................................................
   1    -29.0296288 -0.290296E+02  0.754E-02    3.93       0.0  T
   2    -29.0296305 -0.168157E-05  0.470E-02    3.93       1.0  T
   3    -29.0296326 -0.212080E-05  0.131E-02    3.93       1.8  T
   4    -29.0296330 -0.316147E-06  0.986E-03    3.93       2.3  T
   5    -29.0296336 -0.623942E-06  0.466E-03    3.93       4.9  T
   6    -29.0296337 -0.122854E-06  0.170E-03    3.93      13.5  T
   7    -29.0296337 -0.124380E-07  0.569E-04    3.93      40.3  T
   8    -29.0296337 -0.201879E-08  0.312E-04    3.93      73.5  T
     SCC iter.                  ...        0 min,  0.012 sec
     gradient                   ...        0 min,  0.002 sec
 * total energy  :   -28.6799408 Eh     change       -0.8161376E-04 Eh
   gradient norm :     0.0029330 Eh/α   predicted    -0.6396919E-04 ( -21.62%)
   displ. norm   :     0.1935518 α      lambda       -0.5066540E-04
   maximum displ.:     0.1403459 α      in ANC's #5, #2, #8, ...

........................................................................
.............................. CYCLE   11 ..............................
........................................................................
   1    -29.0299430 -0.290299E+02  0.509E-02    3.93       0.0  T
   2    -29.0299438 -0.745001E-06  0.315E-02    3.93       1.0  T
   3    -29.0299446 -0.806444E-06  0.885E-03    3.93       2.6  T
   4    -29.0299448 -0.175314E-06  0.713E-03    3.93       3.2  T
   5    -29.0299451 -0.289417E-06  0.344E-03    3.93       6.7  T
   6    -29.0299451 -0.644452E-07  0.142E-03    3.93      16.2  T
   7    -29.0299451 -0.844064E-08  0.573E-04    3.93      40.0  T
   8    -29.0299451 -0.281837E-08  0.214E-04    3.93     107.1  T
     SCC iter.                  ...        0 min,  0.011 sec
     gradient                   ...        0 min,  0.002 sec
 * total energy  :   -28.6799731 Eh     change       -0.3238285E-04 Eh
   gradient norm :     0.0024502 Eh/α   predicted    -0.2628594E-04 ( -18.83%)
   displ. norm   :     0.0740924 α      lambda       -0.1967649E-04
   maximum displ.:     0.0556041 α      in ANC's #5, #1, #8, ...

........................................................................
.............................. CYCLE   12 ..............................
........................................................................
   1    -29.0305078 -0.290305E+02  0.233E-02    3.93       0.0  T
   2    -29.0305079 -0.146046E-06  0.139E-02    3.93       1.7  T
   3    -29.0305080 -0.594591E-07  0.369E-03    3.93       6.2  T
   4    -29.0305080 -0.561626E-07  0.268E-03    3.93       8.6  T
   5    -29.0305081 -0.309295E-07  0.172E-03    3.93      13.4  T
   6    -29.0305081 -0.152303E-07  0.840E-04    3.93      27.3  T
   7    -29.0305081 -0.296706E-08  0.353E-04    3.93      65.0  T
     SCC iter.                  ...        0 min,  0.008 sec
     gradient                   ...        0 min,  0.002 sec
 * total energy  :   -28.6799863 Eh     change       -0.1312966E-04 Eh
   gradient norm :     0.0014253 Eh/α   predicted    -0.9893444E-05 ( -24.65%)
   displ. norm   :     0.1143231 α      lambda       -0.9669241E-05
   maximum displ.:     0.0898166 α      in ANC's #5, #1, #8, ...

........................................................................
.............................. CYCLE   13 ..............................
........................................................................
   1    -29.0303462 -0.290303E+02  0.371E-02    3.92       0.0  T
   2    -29.0303464 -0.259650E-06  0.220E-02    3.92       1.0  T
   3    -29.0303466 -0.135638E-06  0.506E-03    3.92       4.5  T
   4    -29.0303467 -0.903135E-07  0.379E-03    3.92       6.1  T
   5    -29.0303467 -0.678298E-07  0.237E-03    3.92       9.7  T
   6    -29.0303468 -0.286934E-07  0.110E-03    3.92      20.9  T
   7    -29.0303468 -0.490371E-08  0.490E-04    3.92      46.8  T
   8    -29.0303468 -0.212429E-08  0.141E-04    3.92     162.9  T
     SCC iter.                  ...        0 min,  0.009 sec
     gradient                   ...        0 min,  0.002 sec
 * total energy  :   -28.6799927 Eh     change       -0.6401621E-05 Eh
   gradient norm :     0.0009621 Eh/α   predicted    -0.4866885E-05 ( -23.97%)
   displ. norm   :     0.0364794 α      lambda       -0.4042408E-05
   maximum displ.:     0.0252172 α      in ANC's #2, #3, #5, ...

........................................................................
.............................. CYCLE   14 ..............................
........................................................................
   1    -29.0307745 -0.290308E+02  0.106E-02    3.93       0.0  T
   2    -29.0307746 -0.591509E-07  0.646E-03    3.93       3.5  T
   3    -29.0307746 -0.380835E-07  0.205E-03    3.93      11.2  T
   4    -29.0307746 -0.119026E-07  0.151E-03    3.93      15.2  T
   5    -29.0307747 -0.901023E-08  0.973E-04    3.93      23.6  T
   6    -29.0307747 -0.545414E-08  0.391E-04    3.93      58.7  T
     SCC iter.                  ...        0 min,  0.007 sec
     gradient                   ...        0 min,  0.002 sec
 * total energy  :   -28.6799960 Eh     change       -0.3292967E-05 Eh
   gradient norm :     0.0009053 Eh/α   predicted    -0.2023213E-05 ( -38.56%)
   displ. norm   :     0.0232220 α      lambda       -0.3016614E-05
   maximum displ.:     0.0131668 α      in ANC's #2, #3, #5, ...

   *** GEOMETRY OPTIMIZATION CONVERGED AFTER 14 ITERATIONS ***

------------------------------------------------------------------------
 total energy gain   :        -0.0067020 Eh       -4.2055 kcal/mol
 total RMSD          :         0.3886746 a0        0.2057 Å
 total power (kW/mol):        -1.2568557 (step)  -76.2086 (real)
------------------------------------------------------------------------

 ANCopt (total)                0 d,  0 h,  0 min,  0.231 sec
 optimizer setup                ...        0 min,  0.000 sec (  0.050%)
 model hessian                  ...        0 min,  0.004 sec (  1.868%)
 ANC generation                 ...        0 min,  0.001 sec (  0.488%)
 coordinate transformation      ...        0 min,  0.000 sec (  0.173%)
 single point calculation       ...        0 min,  0.220 sec ( 95.445%)
 optimization log               ...        0 min,  0.001 sec (  0.603%)
 hessian update                 ...        0 min,  0.000 sec (  0.172%)
 rational function              ...        0 min,  0.001 sec (  0.483%)

================
 final structure:
================
19
 xtb: 6.5.1 (fef0646)
N            1.10610531767385       -0.05074266104460       -0.33238797383527
C            2.57882559371131        0.00104615888250       -0.35287697592816
C            3.12647203512801       -0.48179379233473       -1.69957678850396
C            4.61180007558425       -0.35352812612510       -1.72992047229173
C            5.55662146061659       -1.31921055142101       -1.58579961662673
C            6.87850983677089       -0.81561311369718       -1.62766666168700
C            6.92042955309230        0.52841797738305       -1.79823027783240
S            5.34849798344765        1.21137499013588       -1.91387634855429
Cl           0.10505668581136        0.58029132705030        2.46581123957033
H            0.74752136387004        0.20390032459396        0.62409542037346
H            0.76938914689350       -0.99444439721692       -0.53808761796535
H            0.70367400738948        0.60658232445467       -1.00437279330401
H            2.96212707155220       -0.62169549202804        0.45471895099657
H            2.89849596038697        1.02609300488280       -0.16783860719012
H            2.70178558182491        0.11962794939009       -2.50373001646080
H            2.86605190533084       -1.52776900101475       -1.85923841951360
H            5.32765956195589       -2.36157515210171       -1.45753283614662
H            7.75621445462758       -1.42964590483694       -1.53400767351434
H            7.77568240433199        1.17110413504751       -1.86476253158603

 Bond Distances (Angstroems)
 ---------------------------
N1-C2=1.4738         N1-H10=1.0528        N1-H11=1.0229        N1-H12=1.0225        C2-N1=1.4738         C2-C3=1.5319         
C2-H13=1.0895        C2-H14=1.0896        C3-C2=1.5319         C3-C4=1.4912         C3-H15=1.0903        C3-H16=1.0897        
C4-C3=1.4912         C4-C5=1.3587         C4-S8=1.7394         C5-C4=1.3587         C5-C6=1.4152         C5-H17=1.0749        
C6-C5=1.4152         C6-C7=1.3555         C6-H18=1.0753        C7-C6=1.3555         C7-S8=1.7178         C7-H19=1.0719        
S8-C4=1.7394         S8-C7=1.7178         H10-N1=1.0528        H11-N1=1.0229        H12-N1=1.0225        H13-C2=1.0895        
H14-C2=1.0896        H15-C3=1.0903        H16-C3=1.0897        H17-C5=1.0749        H18-C6=1.0753        H19-C7=1.0719        
 C  H  Rav=1.0830 sigma=0.0079  Rmin=1.0719  Rmax=1.0903     7
 C  C  Rav=1.4305 sigma=0.0707  Rmin=1.3555  Rmax=1.5319     5
 N  H  Rav=1.0327 sigma=0.0142  Rmin=1.0225  Rmax=1.0528     3
 N  C  Rav=1.4738 sigma=0.0000  Rmin=1.4738  Rmax=1.4738     1
 S  C  Rav=1.7286 sigma=0.0108  Rmin=1.7178  Rmax=1.7394     2

 selected bond angles (degree)
 --------------------
H10-N1-C2=110.15               H11-N1-C2=111.01               H11-N1-H10=107.08              H12-N1-C2=111.20               
H12-N1-H10=107.91              H12-N1-H11=109.35              C3-C2-N1=111.00                H13-C2-N1=108.73               
H13-C2-C3=110.23               H14-C2-N1=108.90               H14-C2-C3=109.93               H14-C2-H13=107.98              
C4-C3-C2=110.30                H15-C3-C2=109.59               H15-C3-C4=109.00               H16-C3-C2=110.24               
H16-C3-C4=108.52               H16-C3-H15=109.17              C5-C4-C3=129.00                S8-C4-C3=120.09                
S8-C4-C5=110.86                C6-C5-C4=113.17                H17-C5-C4=123.63               H17-C5-C6=123.20               
C7-C6-C5=112.67                H18-C6-C5=123.83               H18-C6-C7=123.50               S8-C7-C6=111.99                
H19-C7-C6=128.83               H19-C7-S8=119.18               C7-S8-C4= 91.30                

 selected dihedral angles (degree)
 ---------------------------------
C3-C2-N1-H10=175.14           C3-C2-N1-H11= 56.70           C3-C2-N1-H12=294.72           H13-C2-N1-H10= 53.72          
H13-C2-N1-H11=295.29          H13-C2-N1-H12=173.30          H14-C2-N1-H10=296.30          H14-C2-N1-H11=177.86          
H14-C2-N1-H12= 55.88          C4-C3-C2-N1=176.94            C4-C3-C2-H13=297.48           C4-C3-C2-H14= 56.40           
H15-C3-C2-N1= 56.94           H15-C3-C2-H13=177.48          H15-C3-C2-H14=296.39          H16-C3-C2-N1=296.77           
H16-C3-C2-H13= 57.30          H16-C3-C2-H14=176.22          C5-C4-C3-C2=102.77            C5-C4-C3-H15=223.12           
C5-C4-C3-H16=341.91           S8-C4-C3-C2=285.23            S8-C4-C3-H15= 45.58           S8-C4-C3-H16=164.37           
C6-C5-C4-C3=182.00            C6-C5-C4-S8=359.72            H17-C5-C4-C3=  2.28           H17-C5-C4-S8=180.00           
C7-C6-C5-C4=  0.23            C7-C6-C5-H17=179.96           H18-C6-C5-C4=180.19           H18-C6-C5-H17=359.92          
S8-C7-C6-C5=359.93            S8-C7-C6-H18=179.96           H19-C7-C6-C5=179.94           H19-C7-C6-H18=359.97          
C7-S8-C4-C3=178.15            C7-S8-C4-C5=  0.20            C4-S8-C7-C6=359.93            C4-S8-C7-H19=179.92           

 CMA Distance (Angstroems)
 ---------------------------
R(CMA):  5.8958
           -------------------------------------------------
          |                Final Singlepoint                |
           -------------------------------------------------

          ...................................................
          :                      SETUP                      :
          :.................................................:
          :  # basis functions                  58          :
          :  # atomic orbitals                  56          :
          :  # shells                           30          :
          :  # electrons                        52          :
          :  max. iterations                   250          :
          :  Hamiltonian                  GFN2-xTB          :
          :  restarted?                      false          :
          :  GBSA solvation                   true          :
          :  PC potential                    false          :
          :  electronic temp.          300.0000000     K    :
          :  accuracy                    1.0000000          :
          :  -> integral cutoff          0.2500000E+02      :
          :  -> integral neglect         0.1000000E-07      :
          :  -> SCF convergence          0.1000000E-05 Eh   :
          :  -> wf. convergence          0.1000000E-03 e    :
          :  Broyden damping             0.4000000          :
          ...................................................

 iter      E             dE          RMSdq      gap      omega  full diag
   1    -29.0307747 -0.290308E+02  0.133E-04    3.93       0.0  T
   2    -29.0307747 -0.344293E-10  0.103E-04    3.93     223.6  T
   3    -29.0307747 -0.582290E-10  0.629E-05    3.93     364.9  T

   *** convergence criteria satisfied after 3 iterations ***

         #    Occupation            Energy/Eh            Energy/eV
      -------------------------------------------------------------
         1        2.0000           -1.0062462             -27.3814
       ...           ...                  ...                  ...
        20        2.0000           -0.4441887             -12.0870
        21        2.0000           -0.4354690             -11.8497
        22        2.0000           -0.4037898             -10.9877
        23        2.0000           -0.3999759             -10.8839
        24        2.0000           -0.3999551             -10.8833
        25        2.0000           -0.3910156             -10.6401
        26        2.0000           -0.3826260             -10.4118 (HOMO)
        27                         -0.2383514              -6.4859 (LUMO)
        28                         -0.1973218              -5.3694
        29                         -0.1626222              -4.4252
        30                         -0.1124497              -3.0599
        31                         -0.0245591              -0.6683
       ...                                ...                  ...
        56                          0.7043442              19.1662
      -------------------------------------------------------------
                  HL-Gap            0.1442747 Eh            3.9259 eV
             Fermi-level           -0.3104887 Eh           -8.4488 eV

 SCC (total)                   0 d,  0 h,  0 min,  0.006 sec
 SCC setup                      ...        0 min,  0.000 sec (  2.395%)
 Dispersion                     ...        0 min,  0.000 sec (  1.651%)
 classical contributions        ...        0 min,  0.000 sec (  0.509%)
 integral evaluation            ...        0 min,  0.001 sec ( 11.675%)
 iterations                     ...        0 min,  0.003 sec ( 54.920%)
 molecular gradient             ...        0 min,  0.002 sec ( 26.019%)
 printout                       ...        0 min,  0.000 sec (  1.286%)

         :::::::::::::::::::::::::::::::::::::::::::::::::::::
         ::                     SUMMARY                     ::
         :::::::::::::::::::::::::::::::::::::::::::::::::::::
         :: total energy             -28.679995962645 Eh    ::
         :: total w/o Gsasa/hb       -28.674033356071 Eh    ::
         :: gradient norm              0.000905727383 Eh/a0 ::
         :: HOMO-LUMO gap              3.925913574961 eV    ::
         ::.................................................::
         :: SCC energy               -29.030774660578 Eh    ::
         :: -> isotropic ES            0.121162508181 Eh    ::
         :: -> anisotropic ES         -0.030441873752 Eh    ::
         :: -> anisotropic XC          0.004888800079 Eh    ::
         :: -> dispersion             -0.014346351482 Eh    ::
         :: -> Gsolv                  -0.072725958250 Eh    ::
         ::    -> Gelec               -0.066763351675 Eh    ::
         ::    -> Gsasa                0.000254163792 Eh    ::
         ::    -> Ghb                 -0.007297530064 Eh    ::
         ::    -> Gshift               0.001080759698 Eh    ::
         :: repulsion energy           0.350798639064 Eh    ::
         :: add. restraining           0.000000000000 Eh    ::
         :: total charge              -0.000000000000 e     ::
         :::::::::::::::::::::::::::::::::::::::::::::::::::::

           -------------------------------------------------
          |                Property Printout                |
           -------------------------------------------------

    * Orbital Energies and Occupations

         #    Occupation            Energy/Eh            Energy/eV
      -------------------------------------------------------------
         1        2.0000           -1.0062462             -27.3814
       ...           ...                  ...                  ...
        14        2.0000           -0.5020081             -13.6603
        15        2.0000           -0.4828271             -13.1384
        16        2.0000           -0.4675025             -12.7214
        17        2.0000           -0.4638277             -12.6214
        18        2.0000           -0.4617256             -12.5642
        19        2.0000           -0.4581624             -12.4672
        20        2.0000           -0.4441887             -12.0870
        21        2.0000           -0.4354690             -11.8497
        22        2.0000           -0.4037898             -10.9877
        23        2.0000           -0.3999759             -10.8839
        24        2.0000           -0.3999551             -10.8833
        25        2.0000           -0.3910156             -10.6401
        26        2.0000           -0.3826260             -10.4118 (HOMO)
        27                         -0.2383514              -6.4859 (LUMO)
        28                         -0.1973218              -5.3694
        29                         -0.1626222              -4.4252
        30                         -0.1124497              -3.0599
        31                         -0.0245591              -0.6683
        32                          0.0027615               0.0751
        33                          0.0275746               0.7503
        34                          0.0381939               1.0393
        35                          0.0818892               2.2283
        36                          0.0941866               2.5629
        37                          0.1167298               3.1764
       ...                                ...                  ...
        56                          0.7043442              19.1662
      -------------------------------------------------------------
                  HL-Gap            0.1442747 Eh            3.9259 eV
             Fermi-level           -0.3104887 Eh           -8.4488 eV

     #   Z          covCN         q      C6AA      α(0)
     1   7 N        3.483    -0.166    24.589     7.365
     2   6 C        3.735    -0.022    21.048     6.548
     3   6 C        3.827    -0.088    22.163     6.699
     4   6 C        2.989     0.024    27.452     8.595
     5   6 C        3.119    -0.064    29.422     8.884
     6   6 C        3.118    -0.053    29.133     8.841
     7   6 C        2.939    -0.030    28.742     8.793
     8  16 S        2.336    -0.052   143.219    20.142
     9  17 Cl       0.062    -0.945   124.791    17.001
    10   1 H        0.918     0.297     0.719     1.326
    11   1 H        0.859     0.300     0.714     1.324
    12   1 H        0.859     0.301     0.709     1.319
    13   1 H        0.925     0.098     1.803     2.100
    14   1 H        0.925     0.102     1.770     2.081
    15   1 H        0.924     0.091     1.868     2.137
    16   1 H        0.925     0.085     1.927     2.171
    17   1 H        0.926     0.050     2.322     2.383
    18   1 H        0.926     0.035     2.519     2.482
    19   1 H        0.926     0.038     2.476     2.461

 Mol. C6AA /au·bohr⁶  :       5092.014242
 Mol. C8AA /au·bohr⁸  :     150386.490112
 Mol. α(0) /au        :        112.649963


Wiberg/Mayer (AO) data.
largest (>0.10) Wiberg bond orders for each atom

 ---------------------------------------------------------------------------
     #   Z sym  total        # sym  WBO       # sym  WBO       # sym  WBO
 ---------------------------------------------------------------------------
     1   7 N    3.645 --     2 C    0.973    11 H    0.895    12 H    0.895
                            10 H    0.827
     2   6 C    3.933 --     3 C    0.990     1 N    0.973    13 H    0.969
                            14 H    0.967
     3   6 C    3.988 --     4 C    1.023     2 C    0.990    16 H    0.964
                            15 H    0.960
     4   6 C    3.947 --     5 C    1.610     8 S    1.153     3 C    1.023
                             7 C    0.115
     5   6 C    3.985 --     4 C    1.610     6 C    1.263    17 H    0.963
     6   6 C    3.988 --     7 C    1.639     5 C    1.263    18 H    0.965
     7   6 C    3.949 --     6 C    1.639     8 S    1.185    19 H    0.972
                             4 C    0.115
     8  16 S    2.599 --     7 C    1.185     4 C    1.153
     9  17 Cl   0.107
    10   1 H    0.911 --     1 N    0.827
    11   1 H    0.910 --     1 N    0.895
    12   1 H    0.909 --     1 N    0.895
    13   1 H    0.990 --     2 C    0.969
    14   1 H    0.990 --     2 C    0.967
    15   1 H    0.992 --     3 C    0.960
    16   1 H    0.993 --     3 C    0.964
    17   1 H    0.998 --     5 C    0.963
    18   1 H    0.999 --     6 C    0.965
    19   1 H    0.998 --     7 C    0.972
 ---------------------------------------------------------------------------

Topologies differ in total number of bonds
Writing topology from bond orders to xtbtopo.mol

molecular dipole:
                 x           y           z       tot (Debye)
 q only:        1.626      -1.342      -5.011
   full:        1.621      -1.371      -4.314      12.222
molecular quadrupole (traceless):
                xx          xy          yy          xz          yz          zz
 q only:       12.056      -3.094       8.488      -1.941      -5.994     -20.544
  q+dip:       15.218      -5.195       4.778      -3.321      -3.930     -19.996
   full:       15.661      -5.031       3.501      -3.558      -3.516     -19.162

           -------------------------------------------------
          |                Geometry Summary                 |
           -------------------------------------------------

      molecular mass/u    :      163.6682511
   center of mass at/Å    :        3.5552958       0.1561228      -0.5752838
  moments of inertia/u·Å² :        0.1926859E+03   0.1488277E+04   0.1512796E+04
rotational constants/cm⁻¹ :        0.8748765E-01   0.1132694E-01   0.1114336E-01

 * 17 selected distances

     #   Z          #   Z                                           value/Å
     1   7 N        2   6 C                                       1.4737731
     2   6 C        3   6 C                                       1.5318785
     4   6 C        5   6 C                                       1.3586763
     5   6 C        6   6 C                                       1.4151864
     6   6 C        7   6 C                                       1.3554590
     4   6 C        8  16 S                                       1.7393924 (max)
     7   6 C        8  16 S                                       1.7177816
     1   7 N       10   1 H                                       1.0527517
     1   7 N       11   1 H                                       1.0228701
     1   7 N       12   1 H                                       1.0225414 (min)
     2   6 C       13   1 H                                       1.0894671
     2   6 C       14   1 H                                       1.0895639
     3   6 C       15   1 H                                       1.0902886
     3   6 C       16   1 H                                       1.0896673
     5   6 C       17   1 H                                       1.0748954
     6   6 C       18   1 H                                       1.0752553
     7   6 C       19   1 H                                       1.0718814

 * 5 distinct bonds (by element types)

   Z      Z             #   av. dist./Å        max./Å        min./Å
   1 H    6 C           7     1.0830027     1.0902886     1.0718814
   6 C    6 C           4     1.4153000     1.5318785     1.3554590
   1 H    7 N           3     1.0327211     1.0527517     1.0225414
   6 C    7 N           1     1.4737731     1.4737731     1.4737731
   6 C   16 S           2     1.7285870     1.7393924     1.7177816


optimized geometry written to: xtbopt.xyz


           -------------------------------------------------
          | TOTAL ENERGY              -28.679995962645 Eh   |
          | GRADIENT NORM               0.000905727383 Eh/α |
          | HOMO-LUMO GAP               3.925913574961 eV   |
           -------------------------------------------------

------------------------------------------------------------------------
 * finished run on 2023/01/24 at 14:57:43.744     
------------------------------------------------------------------------
 total:
 * wall-time:     0 d,  0 h,  0 min,  0.296 sec
 *  cpu-time:     0 d,  0 h,  0 min, 29.983 sec
 * ratio c/w:   101.156 speedup
 SCF:
 * wall-time:     0 d,  0 h,  0 min,  0.035 sec
 *  cpu-time:     0 d,  0 h,  0 min,  4.950 sec
 * ratio c/w:   140.832 speedup
 ANC optimizer:
 * wall-time:     0 d,  0 h,  0 min,  0.238 sec
 *  cpu-time:     0 d,  0 h,  0 min, 22.029 sec
 * ratio c/w:    92.617 speedup

