      -----------------------------------------------------------      
     |                   =====================                   |     
     |                           x T B                           |     
     |                   =====================                   |     
     |                         S. Grimme                         |     
     |          Mulliken Center for Theoretical Chemistry        |     
     |                    University of Bonn                     |     
      -----------------------------------------------------------      

   * xtb version 6.5.1 (fef0646) compiled by 'conda@b96dff2e9fd6' on 2023-01-04

   xtb is free software: you can redistribute it and/or modify it under
   the terms of the GNU Lesser General Public License as published by
   the Free Software Foundation, either version 3 of the License, or
   (at your option) any later version.
   
   xtb is distributed in the hope that it will be useful,
   but WITHOUT ANY WARRANTY; without even the implied warranty of
   MERCHANTABILITY or FITNESS FOR A PARTICULAR PURPOSE.  See the
   GNU Lesser General Public License for more details.
   
   Cite this work as:
   * C. Bannwarth, E. Caldeweyher, S. Ehlert, A. Hansen, P. Pracht,
     J. Seibert, S. Spicher, S. Grimme, WIREs Comput. Mol. Sci., 2020, 11,
     e01493. DOI: 10.1002/wcms.1493
   
   for GFN2-xTB:
   * C. Bannwarth, S. Ehlert and S. Grimme., J. Chem. Theory Comput., 2019,
     15, 1652-1671. DOI: 10.1021/acs.jctc.8b01176
   for GFN1-xTB:
   * S. Grimme, C. Bannwarth, P. Shushkov, J. Chem. Theory Comput., 2017,
     13, 1989-2009. DOI: 10.1021/acs.jctc.7b00118
   for GFN0-xTB:
   * P. Pracht, E. Caldeweyher, S. Ehlert, S. Grimme, ChemRxiv, 2019, preprint.
     DOI: 10.26434/chemrxiv.8326202.v1
   for GFN-FF:
   * S. Spicher and S. Grimme, Angew. Chem. Int. Ed., 2020, 59, 15665-15673.
     DOI: 10.1002/anie.202004239
   
   for ALPB and GBSA implicit solvation:
   * S. Ehlert, M. Stahn, S. Spicher, S. Grimme, J. Chem. Theory Comput.,
     2021, 17, 4250-4261. DOI: 10.1021/acs.jctc.1c00471
   
   for DFT-D4:
   * E. Caldeweyher, C. Bannwarth and S. Grimme, J. Chem. Phys., 2017,
     147, 034112. DOI: 10.1063/1.4993215
   * E. Caldeweyher, S. Ehlert, A. Hansen, H. Neugebauer, S. Spicher,
     C. Bannwarth and S. Grimme, J. Chem. Phys., 2019, 150, 154122.
     DOI: 10.1063/1.5090222
   * E. Caldeweyher, J.-M. Mewes, S. Ehlert and S. Grimme, Phys. Chem. Chem. Phys.
     2020, 22, 8499-8512. DOI: 10.1039/D0CP00502A
   
   for sTDA-xTB:
   * S. Grimme and C. Bannwarth, J. Chem. Phys., 2016, 145, 054103.
     DOI: 10.1063/1.4959605
   
   in the mass-spec context:
   * V. Asgeirsson, C. Bauer and S. Grimme, Chem. Sci., 2017, 8, 4879.
     DOI: 10.1039/c7sc00601b
   * J. Koopman and S. Grimme, ACS Omega 2019, 4, 12, 15120-15133.
     DOI: 10.1021/acsomega.9b02011
   
   for metadynamics refer to:
   * S. Grimme, J. Chem. Theory Comput., 2019, 155, 2847-2862
     DOI: 10.1021/acs.jctc.9b00143
   
   for SPH calculations refer to:
   * S. Spicher and S. Grimme, J. Chem. Theory Comput., 2021, 17, 1701-1714
     DOI: 10.1021/acs.jctc.0c01306
   
   with help from (in alphabetical order)
   P. Atkinson, C. Bannwarth, F. Bohle, G. Brandenburg, E. Caldeweyher
   M. Checinski, S. Dohm, S. Ehlert, S. Ehrlich, I. Gerasimov, C. Hölzer
   A. Katbashev, J. Koopman, C. Lavigne, S. Lehtola, F. März, M. Müller,
   F. Musil, H. Neugebauer, J. Pisarek, C. Plett, P. Pracht, F. Pultar,
   J. Seibert, P. Shushkov, S. Spicher, M. Stahn, M. Steiner, T. Strunk,
   J. Stückrath, T. Rose, and J. Unsleber
   
 * started run on 2023/01/23 at 20:06:50.439     

           -------------------------------------------------
          |                Calculation Setup                |
           -------------------------------------------------

          program call               : xtb init.xyz --opt -c 0 -u 0 -P 16 --input xtb.inp
          hostname                   : gpg-woodward
          coordinate file            : init.xyz
          omp threads                :                    16

   ID    Z sym.   atoms
    1    7 N      1
    2    6 C      2-6
    3   17 Cl     7
    4    1 H      8-21

molecular fragmentation (1/2 indicates fragments):
111111211111111111111
# atoms in fragment 1/2:    20     1
 fragment masses (1/2) :       88.17       35.45
CMA distance (Bohr)    :   9.986
constraining FC (au)   :  0.0500

           -------------------------------------------------
          |                 G F N 2 - x T B                 |
           -------------------------------------------------

        Reference                      10.1021/acs.jctc.8b01176
      * Hamiltonian:
        H0-scaling (s, p, d)           1.850000    2.230000    2.230000
        zeta-weighting                 0.500000
      * Dispersion:
        s8                             2.700000
        a1                             0.520000
        a2                             5.000000
        s9                             5.000000
      * Repulsion:
        kExp                           1.500000    1.000000
        rExp                           1.000000
      * Coulomb:
        alpha                          2.000000
        third order                    shell-resolved
        anisotropic                    true
        a3                             3.000000
        a5                             4.000000
        cn-shift                       1.200000
        cn-exp                         4.000000
        max-rad                        5.000000


          ...................................................
          :                      SETUP                      :
          :.................................................:
          :  # basis functions                  48          :
          :  # atomic orbitals                  47          :
          :  # shells                           29          :
          :  # electrons                        46          :
          :  max. iterations                   250          :
          :  Hamiltonian                  GFN2-xTB          :
          :  restarted?                      false          :
          :  GBSA solvation                  false          :
          :  PC potential                    false          :
          :  electronic temp.          300.0000000     K    :
          :  accuracy                    1.0000000          :
          :  -> integral cutoff          0.2500000E+02      :
          :  -> integral neglect         0.1000000E-07      :
          :  -> SCF convergence          0.1000000E-05 Eh   :
          :  -> wf. convergence          0.1000000E-03 e    :
          :  Broyden damping             0.4000000          :
          ...................................................

 iter      E             dE          RMSdq      gap      omega  full diag
   1    -25.4390924 -0.254391E+02  0.358E+00   11.01       0.0  T
   2    -25.5747079 -0.135616E+00  0.193E+00    8.16       1.0  T
   3    -25.5782551 -0.354715E-02  0.120E+00    7.36       1.0  T
   4    -25.5799605 -0.170542E-02  0.339E-01    6.82       1.0  T
   5    -25.5803456 -0.385137E-03  0.234E-01    6.86       1.0  T
   6    -25.5807175 -0.371832E-03  0.101E-01    6.94       1.0  T
   7    -25.5807924 -0.748815E-04  0.252E-02    6.97       1.0  T
   8    -25.5807935 -0.110851E-05  0.743E-03    6.96       2.9  T
   9    -25.5807935 -0.332873E-07  0.287E-03    6.96       7.6  T
  10    -25.5807935 -0.410143E-07  0.101E-03    6.96      21.6  T
  11    -25.5807935 -0.320384E-08  0.573E-04    6.96      38.1  T
  12    -25.5807935 -0.149500E-08  0.342E-04    6.96      63.8  T

   *** convergence criteria satisfied after 12 iterations ***

         #    Occupation            Energy/Eh            Energy/eV
      -------------------------------------------------------------
         1        2.0000           -0.9456559             -25.7326
       ...           ...                  ...                  ...
        17        2.0000           -0.4677341             -12.7277
        18        2.0000           -0.4667600             -12.7012
        19        2.0000           -0.4567027             -12.4275
        20        2.0000           -0.4465019             -12.1499
        21        2.0000           -0.3455639              -9.4033
        22        2.0000           -0.3377383              -9.1903
        23        2.0000           -0.3371797              -9.1751 (HOMO)
        24                         -0.0815000              -2.2177 (LUMO)
        25                          0.0280792               0.7641
        26                          0.0443284               1.2062
        27                          0.0623698               1.6972
        28                          0.0696519               1.8953
       ...                                ...                  ...
        47                          0.2769215               7.5354
      -------------------------------------------------------------
                  HL-Gap            0.2556797 Eh            6.9574 eV
             Fermi-level           -0.2093399 Eh           -5.6964 eV

 SCC (total)                   0 d,  0 h,  0 min,  0.033 sec
 SCC setup                      ...        0 min,  0.000 sec (  0.924%)
 Dispersion                     ...        0 min,  0.001 sec (  1.940%)
 classical contributions        ...        0 min,  0.000 sec (  0.555%)
 integral evaluation            ...        0 min,  0.002 sec (  5.899%)
 iterations                     ...        0 min,  0.024 sec ( 73.926%)
 molecular gradient             ...        0 min,  0.005 sec ( 15.559%)
 printout                       ...        0 min,  0.000 sec (  0.349%)

         :::::::::::::::::::::::::::::::::::::::::::::::::::::
         ::                     SUMMARY                     ::
         :::::::::::::::::::::::::::::::::::::::::::::::::::::
         :: total energy             -25.291386745657 Eh    ::
         :: gradient norm              0.040905740041 Eh/a0 ::
         :: HOMO-LUMO gap              6.957399594529 eV    ::
         ::.................................................::
         :: SCC energy               -25.580793540575 Eh    ::
         :: -> isotropic ES            0.097349928526 Eh    ::
         :: -> anisotropic ES         -0.020434180446 Eh    ::
         :: -> anisotropic XC          0.004335501390 Eh    ::
         :: -> dispersion             -0.011005469410 Eh    ::
         :: repulsion energy           0.289449088361 Eh    ::
         :: add. restraining           0.000000000000 Eh    ::
         :: total charge              -0.000000000000 e     ::
         :::::::::::::::::::::::::::::::::::::::::::::::::::::

      ----------------------------------------------------------- 
     |                   =====================                   |
     |                        A N C O P T                        |
     |                   =====================                   |
     |               Approximate Normal Coordinate               |
     |                Rational Function Optimizer                |
      ----------------------------------------------------------- 

          ...................................................
          :                      SETUP                      :
          :.................................................:
          :   optimization level            normal          :
          :   max. optcycles                   200          :
          :   ANC micro-cycles                  20          :
          :   degrees of freedom                57          :
          :.................................................:
          :   RF solver                   davidson          :
          :   write xtbopt.log                true          :
          :   linear?                        false          :
          :   energy convergence         0.5000000E-05 Eh   :
          :   grad. convergence          0.1000000E-02 Eh/α :
          :   maximium RF displ.         1.0000000          :
          :   Hlow (freq-cutoff)         0.1000000E-01      :
          :   Hmax (freq-cutoff)         5.0000000          :
          :   S6 in model hess.         20.0000000          :
          ...................................................

generating ANC from model Hessian ...
Using Lindh-Hessian (1995)
 Shifting diagonal of input Hessian by    9.4377757001258816E-003
 Lowest  eigenvalues of input Hessian
    0.000000    0.000000    0.000000    0.000000    0.000000    0.000000
    0.010000    0.010318    0.011810    0.012451    0.012818    0.016267
    0.019502    0.019828    0.023731    0.025133    0.028501    0.036221
 Highest eigenvalues
    1.191710    1.226944    1.272218    1.289394    1.397239    1.618869


........................................................................
.............................. CYCLE    1 ..............................
........................................................................
   1    -25.5807935 -0.255808E+02  0.153E-04    6.96       0.0  T
   2    -25.5807935 -0.670966E-10  0.121E-04    6.96     180.1  T
   3    -25.5807935 -0.690470E-10  0.726E-05    6.96     300.8  T
     SCC iter.                  ...        0 min,  0.005 sec
     gradient                   ...        0 min,  0.003 sec
 * total energy  :   -25.2913867 Eh     change       -0.7290524E-09 Eh
   gradient norm :     0.0409072 Eh/α   predicted     0.0000000E+00 (-100.00%)
   displ. norm   :     0.3498553 α      lambda       -0.9390941E-02
   maximum displ.:     0.2081972 α      in ANC's #12, #11, #27, ...

........................................................................
.............................. CYCLE    2 ..............................
........................................................................
   1    -25.5881728 -0.255882E+02  0.360E-01    7.32       0.0  T
   2    -25.5885002 -0.327406E-03  0.215E-01    7.51       1.0  T
   3    -25.5885268 -0.265855E-04  0.672E-02    7.62       1.0  T
   4    -25.5885326 -0.579412E-05  0.244E-02    7.65       1.0  T
   5    -25.5885345 -0.188770E-05  0.181E-02    7.64       1.2  T
   6    -25.5885365 -0.203159E-05  0.941E-03    7.64       2.3  T
   7    -25.5885373 -0.758864E-06  0.233E-03    7.63       9.4  T
   8    -25.5885373 -0.434211E-07  0.768E-04    7.63      28.4  T
   9    -25.5885373 -0.221236E-08  0.168E-04    7.63     129.9  T
     SCC iter.                  ...        0 min,  0.016 sec
     gradient                   ...        0 min,  0.004 sec
 * total energy  :   -25.2962150 Eh     change       -0.4828255E-02 Eh
   gradient norm :     0.0394503 Eh/α   predicted    -0.5270283E-02 (   9.16%)
   displ. norm   :     0.4724505 α      lambda       -0.7259181E-02
   maximum displ.:     0.2507766 α      in ANC's #2, #3, #4, ...

........................................................................
.............................. CYCLE    3 ..............................
........................................................................
   1    -25.5951216 -0.255951E+02  0.247E-01    7.36       0.0  T
   2    -25.5952303 -0.108724E-03  0.151E-01    7.48       1.0  T
   3    -25.5952479 -0.175587E-04  0.390E-02    7.58       1.0  T
   4    -25.5952514 -0.351881E-05  0.220E-02    7.59       1.0  T
   5    -25.5952534 -0.204820E-05  0.135E-02    7.58       1.6  T
   6    -25.5952546 -0.115900E-05  0.659E-03    7.58       3.3  T
   7    -25.5952548 -0.241680E-06  0.109E-03    7.58      20.1  T
   8    -25.5952548 -0.372465E-08  0.550E-04    7.58      39.6  T
   9    -25.5952548 -0.917389E-09  0.285E-04    7.58      76.6  T
     SCC iter.                  ...        0 min,  0.015 sec
     gradient                   ...        0 min,  0.005 sec
 * total energy  :   -25.3020714 Eh     change       -0.5856413E-02 Eh
   gradient norm :     0.0361669 Eh/α   predicted    -0.4439749E-02 ( -24.19%)
   displ. norm   :     0.6397866 α      lambda       -0.7913977E-02
   maximum displ.:     0.3172082 α      in ANC's #2, #3, #4, ...

........................................................................
.............................. CYCLE    4 ..............................
........................................................................
   1    -25.5963567 -0.255964E+02  0.375E-01    7.41       0.0  T
   2    -25.5968598 -0.503180E-03  0.222E-01    7.66       1.0  T
   3    -25.5969262 -0.663617E-04  0.894E-02    7.81       1.0  T
   4    -25.5969472 -0.209659E-04  0.494E-02    7.85       1.0  T
   5    -25.5969566 -0.941678E-05  0.353E-02    7.84       1.0  T
   6    -25.5969663 -0.974991E-05  0.133E-02    7.84       1.6  T
   7    -25.5969675 -0.112085E-05  0.357E-03    7.83       6.1  T
   8    -25.5969675 -0.698334E-07  0.207E-03    7.83      10.5  T
   9    -25.5969675 -0.197369E-07  0.142E-03    7.83      15.4  T
  10    -25.5969676 -0.144987E-07  0.781E-04    7.83      28.0  T
  11    -25.5969676 -0.541786E-08  0.178E-04    7.83     122.4  T
     SCC iter.                  ...        0 min,  0.018 sec
     gradient                   ...        0 min,  0.002 sec
 * total energy  :   -25.3075265 Eh     change       -0.5455053E-02 Eh
   gradient norm :     0.0362187 Eh/α   predicted    -0.5576695E-02 (   2.23%)
   displ. norm   :     0.2993426 α      lambda       -0.3815350E-02
   maximum displ.:     0.1056406 α      in ANC's #3, #4, #27, ...

........................................................................
.............................. CYCLE    5 ..............................
........................................................................
   1    -25.5976018 -0.255976E+02  0.315E-01    8.10       0.0  T
   2    -25.5980503 -0.448534E-03  0.174E-01    8.31       1.0  T
   3    -25.5981011 -0.507764E-04  0.792E-02    8.42       1.0  T
   4    -25.5981199 -0.187794E-04  0.445E-02    8.45       1.0  T
   5    -25.5981283 -0.837331E-05  0.336E-02    8.45       1.0  T
   6    -25.5981395 -0.112511E-04  0.129E-02    8.43       1.7  T
   7    -25.5981411 -0.157906E-05  0.420E-03    8.43       5.2  T
   8    -25.5981412 -0.140309E-06  0.184E-03    8.43      11.9  T
   9    -25.5981412 -0.132084E-07  0.129E-03    8.43      16.9  T
  10    -25.5981413 -0.100877E-07  0.667E-04    8.43      32.7  T
  11    -25.5981413 -0.314628E-08  0.176E-04    8.43     123.7  T
     SCC iter.                  ...        0 min,  0.015 sec
     gradient                   ...        0 min,  0.002 sec
 * total energy  :   -25.3104268 Eh     change       -0.2900378E-02 Eh
   gradient norm :     0.0312566 Eh/α   predicted    -0.2078625E-02 ( -28.33%)
   displ. norm   :     0.2857691 α      lambda       -0.3505523E-02
   maximum displ.:     0.1084309 α      in ANC's #3, #36, #27, ...

........................................................................
.............................. CYCLE    6 ..............................
........................................................................
   1    -25.5999214 -0.255999E+02  0.326E-01    8.88       0.0  T
   2    -25.6004217 -0.500315E-03  0.178E-01    9.06       1.0  T
   3    -25.6004823 -0.605973E-04  0.850E-02    9.14       1.0  T
   4    -25.6005062 -0.238693E-04  0.484E-02    9.16       1.0  T
   5    -25.6005172 -0.110564E-04  0.369E-02    9.15       1.0  T
   6    -25.6005326 -0.153080E-04  0.149E-02    9.13       1.5  T
   7    -25.6005350 -0.247036E-05  0.507E-03    9.12       4.3  T
   8    -25.6005352 -0.216113E-06  0.197E-03    9.12      11.1  T
   9    -25.6005353 -0.136108E-07  0.137E-03    9.12      15.9  T
  10    -25.6005353 -0.101658E-07  0.736E-04    9.12      29.7  T
  11    -25.6005353 -0.379631E-08  0.195E-04    9.12     112.1  T
     SCC iter.                  ...        0 min,  0.012 sec
     gradient                   ...        0 min,  0.001 sec
 * total energy  :   -25.3125921 Eh     change       -0.2165288E-02 Eh
   gradient norm :     0.0210220 Eh/α   predicted    -0.1895900E-02 ( -12.44%)
   displ. norm   :     0.2317045 α      lambda       -0.1744419E-02
   maximum displ.:     0.1236012 α      in ANC's #3, #2, #1, ...

........................................................................
.............................. CYCLE    7 ..............................
........................................................................
   1    -25.6001372 -0.256001E+02  0.143E-01    8.89       0.0  T
   2    -25.6001778 -0.406498E-04  0.818E-02    8.93       1.0  T
   3    -25.6001828 -0.497183E-05  0.232E-02    8.95       1.0  T
   4    -25.6001836 -0.821903E-06  0.993E-03    8.96       2.2  T
   5    -25.6001840 -0.404565E-06  0.660E-03    8.96       3.3  T
   6    -25.6001843 -0.245464E-06  0.449E-03    8.96       4.9  T
   7    -25.6001844 -0.176513E-06  0.120E-03    8.96      18.2  T
   8    -25.6001844 -0.107536E-07  0.685E-04    8.96      31.9  T
   9    -25.6001844 -0.353588E-08  0.421E-04    8.96      51.9  T
     SCC iter.                  ...        0 min,  0.010 sec
     gradient                   ...        0 min,  0.001 sec
 * total energy  :   -25.3136922 Eh     change       -0.1100104E-02 Eh
   gradient norm :     0.0159484 Eh/α   predicted    -0.9190370E-03 ( -16.46%)
   displ. norm   :     0.1864268 α      lambda       -0.1664757E-02
   maximum displ.:     0.0773251 α      in ANC's #3, #21, #7, ...

........................................................................
.............................. CYCLE    8 ..............................
........................................................................
   1    -25.6013748 -0.256014E+02  0.133E-01    9.13       0.0  T
   2    -25.6014398 -0.649806E-04  0.762E-02    9.17       1.0  T
   3    -25.6014470 -0.723865E-05  0.320E-02    9.19       1.0  T
   4    -25.6014493 -0.228110E-05  0.148E-02    9.19       1.5  T
   5    -25.6014505 -0.120930E-05  0.941E-03    9.19       2.3  T
   6    -25.6014513 -0.859983E-06  0.484E-03    9.18       4.5  T
   7    -25.6014516 -0.280391E-06  0.163E-03    9.18      13.4  T
   8    -25.6014516 -0.224314E-07  0.104E-03    9.18      20.9  T
   9    -25.6014517 -0.739288E-08  0.609E-04    9.18      35.8  T
  10    -25.6014517 -0.273090E-08  0.303E-04    9.18      72.0  T
     SCC iter.                  ...        0 min,  0.011 sec
     gradient                   ...        0 min,  0.002 sec
 * total energy  :   -25.3147718 Eh     change       -0.1079607E-02 Eh
   gradient norm :     0.0110329 Eh/α   predicted    -0.8613187E-03 ( -20.22%)
   displ. norm   :     0.1651510 α      lambda       -0.8308309E-03
   maximum displ.:     0.0596160 α      in ANC's #21, #31, #27, ...

........................................................................
.............................. CYCLE    9 ..............................
........................................................................
   1    -25.6028233 -0.256028E+02  0.901E-02    9.03       0.0  T
   2    -25.6028269 -0.355054E-05  0.548E-02    9.03       1.0  T
   3    -25.6028297 -0.284335E-05  0.140E-02    9.04       1.6  T
   4    -25.6028304 -0.695173E-06  0.111E-02    9.04       2.0  T
   5    -25.6028313 -0.891091E-06  0.634E-03    9.04       3.4  T
   6    -25.6028316 -0.329809E-06  0.288E-03    9.05       7.6  T
   7    -25.6028317 -0.606223E-07  0.112E-03    9.05      19.5  T
   8    -25.6028317 -0.772429E-08  0.796E-04    9.05      27.4  T
   9    -25.6028317 -0.618357E-08  0.443E-04    9.05      49.2  T
     SCC iter.                  ...        0 min,  0.010 sec
     gradient                   ...        0 min,  0.002 sec
 * total energy  :   -25.3152373 Eh     change       -0.4654367E-03 Eh
   gradient norm :     0.0083339 Eh/α   predicted    -0.4267484E-03 (  -8.31%)
   displ. norm   :     0.0922731 α      lambda       -0.2037863E-03
   maximum displ.:     0.0450493 α      in ANC's #2, #1, #36, ...

........................................................................
.............................. CYCLE   10 ..............................
........................................................................
   1    -25.6040424 -0.256040E+02  0.365E-02    9.11       0.0  T
   2    -25.6040461 -0.364544E-05  0.217E-02    9.11       1.0  T
   3    -25.6040466 -0.514870E-06  0.797E-03    9.12       2.7  T
   4    -25.6040468 -0.176323E-06  0.442E-03    9.12       4.9  T
   5    -25.6040468 -0.850618E-07  0.344E-03    9.12       6.3  T
   6    -25.6040470 -0.139477E-06  0.145E-03    9.11      15.1  T
   7    -25.6040470 -0.252110E-07  0.559E-04    9.11      39.0  T
   8    -25.6040470 -0.300277E-08  0.133E-04    9.11     164.4  T
     SCC iter.                  ...        0 min,  0.009 sec
     gradient                   ...        0 min,  0.002 sec
 * total energy  :   -25.3153891 Eh     change       -0.1517797E-03 Eh
   gradient norm :     0.0057683 Eh/α   predicted    -0.1027615E-03 ( -32.30%)
   displ. norm   :     0.1585794 α      lambda       -0.2113087E-03
   maximum displ.:     0.0976929 α      in ANC's #2, #1, #6, ...

........................................................................
.............................. CYCLE   11 ..............................
........................................................................
   1    -25.6050724 -0.256051E+02  0.423E-02    9.14       0.0  T
   2    -25.6050746 -0.219037E-05  0.247E-02    9.14       1.0  T
   3    -25.6050748 -0.224940E-06  0.598E-03    9.15       3.6  T
   4    -25.6050749 -0.112183E-06  0.303E-03    9.15       7.2  T
   5    -25.6050750 -0.359866E-07  0.223E-03    9.15       9.8  T
   6    -25.6050750 -0.444733E-07  0.125E-03    9.14      17.4  T
   7    -25.6050750 -0.172467E-07  0.648E-04    9.14      33.7  T
   8    -25.6050751 -0.447395E-08  0.195E-04    9.14     112.1  T
     SCC iter.                  ...        0 min,  0.009 sec
     gradient                   ...        0 min,  0.002 sec
 * total energy  :   -25.3155391 Eh     change       -0.1500309E-03 Eh
   gradient norm :     0.0057314 Eh/α   predicted    -0.1083119E-03 ( -27.81%)
   displ. norm   :     0.1968372 α      lambda       -0.1722566E-03
   maximum displ.:     0.1323836 α      in ANC's #2, #1, #6, ...

........................................................................
.............................. CYCLE   12 ..............................
........................................................................
   1    -25.6050982 -0.256051E+02  0.516E-02    9.14       0.0  T
   2    -25.6050992 -0.996134E-06  0.303E-02    9.14       1.0  T
   3    -25.6050994 -0.186461E-06  0.471E-03    9.14       4.6  T
   4    -25.6050995 -0.985791E-07  0.311E-03    9.14       7.0  T
   5    -25.6050996 -0.399208E-07  0.196E-03    9.14      11.1  T
   6    -25.6050996 -0.252027E-07  0.910E-04    9.14      24.0  T
   7    -25.6050996 -0.514926E-08  0.280E-04    9.14      78.0  T
     SCC iter.                  ...        0 min,  0.007 sec
     gradient                   ...        0 min,  0.002 sec
 * total energy  :   -25.3156730 Eh     change       -0.1338688E-03 Eh
   gradient norm :     0.0066491 Eh/α   predicted    -0.8946672E-04 ( -33.17%)
   displ. norm   :     0.3091995 α      lambda       -0.2421504E-03
   maximum displ.:     0.2110255 α      in ANC's #2, #1, #6, ...

........................................................................
.............................. CYCLE   13 ..............................
........................................................................
   1    -25.6045726 -0.256046E+02  0.800E-02    9.11       0.0  T
   2    -25.6045737 -0.106814E-05  0.470E-02    9.11       1.0  T
   3    -25.6045742 -0.522435E-06  0.642E-03    9.12       3.4  T
   4    -25.6045744 -0.145968E-06  0.503E-03    9.12       4.3  T
   5    -25.6045745 -0.156887E-06  0.231E-03    9.12       9.4  T
   6    -25.6045746 -0.316567E-07  0.994E-04    9.12      21.9  T
   7    -25.6045746 -0.544940E-08  0.227E-04    9.12      96.3  T
     SCC iter.                  ...        0 min,  0.007 sec
     gradient                   ...        0 min,  0.002 sec
 * total energy  :   -25.3158522 Eh     change       -0.1792513E-03 Eh
   gradient norm :     0.0065660 Eh/α   predicted    -0.1326530E-03 ( -26.00%)
   displ. norm   :     0.2984068 α      lambda       -0.2209493E-03
   maximum displ.:     0.2033649 α      in ANC's #2, #6, #1, ...

........................................................................
.............................. CYCLE   14 ..............................
........................................................................
   1    -25.6039105 -0.256039E+02  0.772E-02    9.10       0.0  T
   2    -25.6039113 -0.780103E-06  0.455E-02    9.10       1.0  T
   3    -25.6039119 -0.540703E-06  0.591E-03    9.10       3.7  T
   4    -25.6039120 -0.105109E-06  0.449E-03    9.10       4.9  T
   5    -25.6039121 -0.126467E-06  0.216E-03    9.11      10.1  T
   6    -25.6039121 -0.340096E-07  0.929E-04    9.11      23.5  T
   7    -25.6039121 -0.418144E-08  0.282E-04    9.11      77.4  T
     SCC iter.                  ...        0 min,  0.008 sec
     gradient                   ...        0 min,  0.002 sec
 * total energy  :   -25.3160143 Eh     change       -0.1620917E-03 Eh
   gradient norm :     0.0056559 Eh/α   predicted    -0.1203136E-03 ( -25.77%)
   displ. norm   :     0.2494760 α      lambda       -0.1984313E-03
   maximum displ.:     0.1656451 α      in ANC's #2, #6, #1, ...

........................................................................
.............................. CYCLE   15 ..............................
........................................................................
   1    -25.6038162 -0.256038E+02  0.669E-02    9.13       0.0  T
   2    -25.6038178 -0.158071E-05  0.396E-02    9.12       1.0  T
   3    -25.6038182 -0.458176E-06  0.607E-03    9.12       3.6  T
   4    -25.6038183 -0.119171E-06  0.425E-03    9.12       5.1  T
   5    -25.6038184 -0.693508E-07  0.287E-03    9.12       7.6  T
   6    -25.6038185 -0.594164E-07  0.127E-03    9.12      17.2  T
   7    -25.6038185 -0.106689E-07  0.367E-04    9.12      59.4  T
   8    -25.6038185 -0.708777E-09  0.226E-04    9.12      96.4  T
     SCC iter.                  ...        0 min,  0.009 sec
     gradient                   ...        0 min,  0.001 sec
 * total energy  :   -25.3161597 Eh     change       -0.1454196E-03 Eh
   gradient norm :     0.0061883 Eh/α   predicted    -0.1053955E-03 ( -27.52%)
   displ. norm   :     0.2480049 α      lambda       -0.1796752E-03
   maximum displ.:     0.1676304 α      in ANC's #2, #1, #6, ...

........................................................................
.............................. CYCLE   16 ..............................
........................................................................
   1    -25.6040580 -0.256041E+02  0.699E-02    9.12       0.0  T
   2    -25.6040606 -0.259114E-05  0.419E-02    9.12       1.0  T
   3    -25.6040614 -0.813900E-06  0.868E-03    9.11       2.5  T
   4    -25.6040617 -0.257305E-06  0.623E-03    9.12       3.5  T
   5    -25.6040618 -0.161808E-06  0.425E-03    9.12       5.1  T
   6    -25.6040620 -0.149216E-06  0.155E-03    9.12      14.1  T
   7    -25.6040620 -0.168076E-07  0.557E-04    9.12      39.2  T
   8    -25.6040620 -0.171035E-08  0.401E-04    9.12      54.4  T
     SCC iter.                  ...        0 min,  0.009 sec
     gradient                   ...        0 min,  0.002 sec
 * total energy  :   -25.3162952 Eh     change       -0.1355068E-03 Eh
   gradient norm :     0.0069420 Eh/α   predicted    -0.9536543E-04 ( -29.62%)
   displ. norm   :     0.2548357 α      lambda       -0.1818036E-03
   maximum displ.:     0.1683213 α      in ANC's #2, #3, #7, ...

........................................................................
.............................. CYCLE   17 ..............................
........................................................................
   1    -25.6045950 -0.256046E+02  0.731E-02    9.15       0.0  T
   2    -25.6045982 -0.310858E-05  0.440E-02    9.14       1.0  T
   3    -25.6045991 -0.969595E-06  0.942E-03    9.14       2.3  T
   4    -25.6045994 -0.285210E-06  0.664E-03    9.14       3.3  T
   5    -25.6045996 -0.175393E-06  0.451E-03    9.14       4.8  T
   6    -25.6045997 -0.152342E-06  0.177E-03    9.14      12.3  T
   7    -25.6045998 -0.210719E-07  0.491E-04    9.14      44.5  T
   8    -25.6045998 -0.123799E-08  0.340E-04    9.14      64.1  T
     SCC iter.                  ...        0 min,  0.008 sec
     gradient                   ...        0 min,  0.002 sec
 * total energy  :   -25.3164229 Eh     change       -0.1276680E-03 Eh
   gradient norm :     0.0055419 Eh/α   predicted    -0.9680689E-04 ( -24.17%)
   displ. norm   :     0.2520122 α      lambda       -0.1088124E-03
   maximum displ.:     0.1861356 α      in ANC's #2, #1, #11, ...

........................................................................
.............................. CYCLE   18 ..............................
........................................................................
   1    -25.6045917 -0.256046E+02  0.724E-02    9.10       0.0  T
   2    -25.6045932 -0.141636E-05  0.436E-02    9.10       1.0  T
   3    -25.6045944 -0.119716E-05  0.936E-03    9.10       2.3  T
   4    -25.6045946 -0.285110E-06  0.732E-03    9.10       3.0  T
   5    -25.6045950 -0.367307E-06  0.340E-03    9.10       6.4  T
   6    -25.6045951 -0.102936E-06  0.118E-03    9.10      18.6  T
   7    -25.6045951 -0.689721E-08  0.625E-04    9.10      34.9  T
   8    -25.6045951 -0.219576E-08  0.449E-04    9.10      48.6  T
     SCC iter.                  ...        0 min,  0.009 sec
     gradient                   ...        0 min,  0.002 sec
 * total energy  :   -25.3164878 Eh     change       -0.6486457E-04 Eh
   gradient norm :     0.0038773 Eh/α   predicted    -0.5786215E-04 ( -10.80%)
   displ. norm   :     0.1142908 α      lambda       -0.9235917E-04
   maximum displ.:     0.0737007 α      in ANC's #3, #2, #5, ...

........................................................................
.............................. CYCLE   19 ..............................
........................................................................
   1    -25.6056363 -0.256056E+02  0.405E-02    9.22       0.0  T
   2    -25.6056374 -0.105353E-05  0.245E-02    9.22       1.0  T
   3    -25.6056380 -0.580280E-06  0.593E-03    9.22       3.7  T
   4    -25.6056381 -0.141265E-06  0.424E-03    9.21       5.2  T
   5    -25.6056382 -0.115593E-06  0.312E-03    9.21       7.0  T
   6    -25.6056383 -0.113439E-06  0.932E-04    9.21      23.4  T
   7    -25.6056383 -0.100473E-07  0.379E-04    9.21      57.5  T
     SCC iter.                  ...        0 min,  0.008 sec
     gradient                   ...        0 min,  0.002 sec
 * total energy  :   -25.3165049 Eh     change       -0.1712310E-04 Eh
   gradient norm :     0.0036214 Eh/α   predicted    -0.4678662E-04 ( 173.24%)
   displ. norm   :     0.0798550 α      lambda       -0.5288323E-04
   maximum displ.:     0.0621510 α      in ANC's #2, #1, #6, ...

........................................................................
.............................. CYCLE   20 ..............................
........................................................................
   1    -25.6051970 -0.256052E+02  0.264E-02    9.15       0.0  T
   2    -25.6051975 -0.514684E-06  0.155E-02    9.15       1.4  T
   3    -25.6051977 -0.155885E-06  0.353E-03    9.16       6.2  T
   4    -25.6051977 -0.404426E-07  0.238E-03    9.16       9.2  T
   5    -25.6051977 -0.270601E-07  0.174E-03    9.16      12.6  T
   6    -25.6051977 -0.252297E-07  0.950E-04    9.16      23.0  T
   7    -25.6051978 -0.898887E-08  0.245E-04    9.16      89.0  T
     SCC iter.                  ...        0 min,  0.008 sec
     gradient                   ...        0 min,  0.002 sec
 * total energy  :   -25.3165379 Eh     change       -0.3296416E-04 Eh
   gradient norm :     0.0019111 Eh/α   predicted    -0.2661309E-04 ( -19.27%)
   displ. norm   :     0.0705915 α      lambda       -0.1816112E-04
   maximum displ.:     0.0551687 α      in ANC's #2, #4, #3, ...
 * RMSD in coord.:     0.7255078 α      energy gain  -0.2515111E-01 Eh

generating ANC from model Hessian ...
Using Lindh-Hessian (1995)
 Shifting diagonal of input Hessian by    9.8988452695703277E-003
 Lowest  eigenvalues of input Hessian
    0.000000    0.000000    0.000000    0.000000    0.000000    0.000000
    0.010000    0.010790    0.011986    0.012517    0.013149    0.015816
    0.017859    0.020822    0.021360    0.024315    0.029101    0.033252
 Highest eigenvalues
    1.201240    1.207638    1.235070    1.292182    1.377341    1.452364


........................................................................
.............................. CYCLE   21 ..............................
........................................................................
   1    -25.6050480 -0.256050E+02  0.210E-02    9.15       0.0  T
   2    -25.6050485 -0.454186E-06  0.122E-02    9.15       1.8  T
   3    -25.6050485 -0.531024E-07  0.258E-03    9.15       8.5  T
   4    -25.6050486 -0.184779E-07  0.130E-03    9.15      16.8  T
   5    -25.6050486 -0.531984E-08  0.873E-04    9.15      25.0  T
   6    -25.6050486 -0.435102E-08  0.488E-04    9.15      44.7  T
     SCC iter.                  ...        0 min,  0.007 sec
     gradient                   ...        0 min,  0.002 sec
 * total energy  :   -25.3165559 Eh     change       -0.1800541E-04 Eh
   gradient norm :     0.0011291 Eh/α   predicted     0.0000000E+00 (-100.00%)
   displ. norm   :     0.0282589 α      lambda       -0.1291221E-05
   maximum displ.:     0.0136884 α      in ANC's #3, #7, #5, ...

........................................................................
.............................. CYCLE   22 ..............................
........................................................................
   1    -25.6050740 -0.256051E+02  0.105E-02    9.17       0.0  T
   2    -25.6050741 -0.400481E-07  0.636E-03    9.17       3.4  T
   3    -25.6050741 -0.325105E-07  0.149E-03    9.16      14.7  T
   4    -25.6050741 -0.893408E-08  0.103E-03    9.16      21.1  T
   5    -25.6050741 -0.723140E-08  0.516E-04    9.16      42.3  T
   6    -25.6050741 -0.182630E-08  0.188E-04    9.16     116.3  T
     SCC iter.                  ...        0 min,  0.006 sec
     gradient                   ...        0 min,  0.002 sec
 * total energy  :   -25.3165643 Eh     change       -0.8441152E-05 Eh
   gradient norm :     0.0003479 Eh/α   predicted    -0.3982306E-05 ( -52.82%)
   displ. norm   :     0.0624525 α      lambda       -0.9722662E-05
   maximum displ.:     0.0291674 α      in ANC's #3, #7, #5, ...

........................................................................
.............................. CYCLE   23 ..............................
........................................................................
   1    -25.6050831 -0.256051E+02  0.147E-02    9.18       0.0  T
   2    -25.6050831 -0.524434E-07  0.887E-03    9.18       2.5  T
   3    -25.6050831 -0.378003E-07  0.160E-03    9.18      13.6  T
   4    -25.6050832 -0.795795E-08  0.123E-03    9.18      17.7  T
   5    -25.6050832 -0.928503E-08  0.685E-04    9.18      31.8  T
   6    -25.6050832 -0.349131E-08  0.265E-04    9.18      82.5  T
     SCC iter.                  ...        0 min,  0.006 sec
     gradient                   ...        0 min,  0.002 sec
 * total energy  :   -25.3165747 Eh     change       -0.1044283E-04 Eh
   gradient norm :     0.0009285 Eh/α   predicted    -0.4874559E-05 ( -53.32%)
   displ. norm   :     0.1124917 α      lambda       -0.1225946E-04
   maximum displ.:     0.0650431 α      in ANC's #3, #7, #5, ...

........................................................................
.............................. CYCLE   24 ..............................
........................................................................
   1    -25.6049847 -0.256050E+02  0.230E-02    9.18       0.0  T
   2    -25.6049848 -0.551310E-07  0.137E-02    9.18       1.6  T
   3    -25.6049848 -0.258201E-07  0.121E-03    9.18      18.0  T
   4    -25.6049848 -0.383640E-08  0.884E-04    9.18      24.7  T
   5    -25.6049848 -0.368704E-08  0.541E-04    9.18      40.3  T
     SCC iter.                  ...        0 min,  0.005 sec
     gradient                   ...        0 min,  0.002 sec
 * total energy  :   -25.3165835 Eh     change       -0.8745035E-05 Eh
   gradient norm :     0.0012419 Eh/α   predicted    -0.6164360E-05 ( -29.51%)
   displ. norm   :     0.0778420 α      lambda       -0.8774582E-05
   maximum displ.:     0.0448364 α      in ANC's #1, #3, #5, ...

........................................................................
.............................. CYCLE   25 ..............................
........................................................................
   1    -25.6049937 -0.256050E+02  0.226E-02    9.17       0.0  T
   2    -25.6049938 -0.147268E-06  0.139E-02    9.17       1.6  T
   3    -25.6049940 -0.176897E-06  0.352E-03    9.17       6.2  T
   4    -25.6049940 -0.497946E-07  0.237E-03    9.17       9.2  T
   5    -25.6049941 -0.389900E-07  0.811E-04    9.17      26.9  T
   6    -25.6049941 -0.398248E-08  0.243E-04    9.17      89.9  T
     SCC iter.                  ...        0 min,  0.007 sec
     gradient                   ...        0 min,  0.002 sec
 * total energy  :   -25.3165894 Eh     change       -0.5927738E-05 Eh
   gradient norm :     0.0007515 Eh/α   predicted    -0.4399361E-05 ( -25.78%)
   displ. norm   :     0.0162314 α      lambda       -0.3121623E-05
   maximum displ.:     0.0075393 α      in ANC's #3, #2, #1, ...

........................................................................
.............................. CYCLE   26 ..............................
........................................................................
   1    -25.6051912 -0.256052E+02  0.554E-03    9.17       0.0  T
   2    -25.6051913 -0.121484E-07  0.332E-03    9.17       6.6  T
   3    -25.6051913 -0.700446E-08  0.714E-04    9.17      30.5  T
   4    -25.6051913 -0.151704E-08  0.552E-04    9.17      39.6  T
     SCC iter.                  ...        0 min,  0.004 sec
     gradient                   ...        0 min,  0.001 sec
 * total energy  :   -25.3165928 Eh     change       -0.3427662E-05 Eh
   gradient norm :     0.0002834 Eh/α   predicted    -0.1565968E-05 ( -54.31%)
   displ. norm   :     0.0443903 α      lambda       -0.3243794E-05
   maximum displ.:     0.0268829 α      in ANC's #3, #1, #2, ...

   *** GEOMETRY OPTIMIZATION CONVERGED AFTER 26 ITERATIONS ***

------------------------------------------------------------------------
 total energy gain   :        -0.0252061 Eh      -15.8171 kcal/mol
 total RMSD          :         0.7299094 a0        0.3863 Å
 total power (kW/mol):        -2.5453305 (step) -192.2147 (real)
------------------------------------------------------------------------

 ANCopt (total)                0 d,  0 h,  0 min,  0.344 sec
 optimizer setup                ...        0 min,  0.000 sec (  0.023%)
 model hessian                  ...        0 min,  0.010 sec (  2.935%)
 ANC generation                 ...        0 min,  0.002 sec (  0.710%)
 coordinate transformation      ...        0 min,  0.001 sec (  0.159%)
 single point calculation       ...        0 min,  0.322 sec ( 93.594%)
 optimization log               ...        0 min,  0.002 sec (  0.546%)
 hessian update                 ...        0 min,  0.001 sec (  0.304%)
 rational function              ...        0 min,  0.004 sec (  1.089%)

================
 final structure:
================
21
 xtb: 6.5.1 (fef0646)
N            1.31751301519086        0.06564428198114       -0.46626957906468
C            2.77192058017087        0.05722803370837       -0.31082042655170
C            3.19515264529632        1.11063859189179        0.70785370449262
C            4.70491594010435        1.10928951048127        0.93189927316207
C            5.12660954411888        2.14495579255029        1.97143460207923
C            6.63466910767618        2.14804993513921        2.18805355242765
Cl           0.00268193312487       -0.48779237490567        2.09470735174222
H            1.01344333164316       -0.63602336755232       -1.13192049509486
H            0.99604416539353        0.97570304752799       -0.77962030200579
H            0.63185493722885       -0.22835617753371        0.90190449247515
H            3.28847690234344        0.23735363952311       -1.26487534744964
H            3.05717953945105       -0.93481244228738        0.04674074667939
H            2.68190274655784        0.91169060107873        1.64888592803207
H            2.88119114210520        2.09707411860079        0.35780696755457
H            5.21429042490664        1.31777550340051       -0.01250233301698
H            5.01873618748508        0.11765403788430        1.26461079229614
H            4.62378229673294        1.92881628542080        2.91601331227372
H            4.80503363787598        3.13647022732084        1.64491565132803
H            6.97285595156360        1.17192222790216        2.52846167524419
H            6.91228827254162        2.88714742066494        2.93559055275331
H            7.15362769849085        2.38537110720171        1.26174988064322

 Bond Distances (Angstroems)
 ---------------------------
N1-C2=1.4627         N1-H8=1.0138         N1-H9=1.0148         C2-N1=1.4627         C2-C3=1.5253         C2-H11=1.0998        
C2-H12=1.0924        C3-C2=1.5253         C3-C4=1.5263         C3-H13=1.0902        C3-H14=1.0928        C4-C3=1.5263         
C4-C5=1.5268         C4-H15=1.0931        C4-H16=1.0920        C5-C4=1.5268         C5-C6=1.5235         C5-H17=1.0917        
C5-H18=1.0923        C6-C5=1.5235         C6-H19=1.0877        C6-H20=1.0873        C6-H21=1.0880        Cl7-H10=1.3733       
H8-N1=1.0138         H9-N1=1.0148         H10-Cl7=1.3733       H11-C2=1.0998        H12-C2=1.0924        H13-C3=1.0902        
H14-C3=1.0928        H15-C4=1.0931        H16-C4=1.0920        H17-C5=1.0917        H18-C5=1.0923        H19-C6=1.0877        
H20-C6=1.0873        H21-C6=1.0880        
 C  H  Rav=1.0916 sigma=0.0033  Rmin=1.0873  Rmax=1.0998    11
 C  C  Rav=1.5255 sigma=0.0012  Rmin=1.5235  Rmax=1.5268     4
 N  H  Rav=1.0143 sigma=0.0005  Rmin=1.0138  Rmax=1.0148     2
 N  C  Rav=1.4627 sigma=0.0000  Rmin=1.4627  Rmax=1.4627     1
 Cl H  Rav=1.3733 sigma=0.0000  Rmin=1.3733  Rmax=1.3733     1

 selected bond angles (degree)
 --------------------
H8-N1-C2=111.35                H9-N1-C2=110.67                H9-N1-H8=108.84                C3-C2-N1=110.05                
H11-C2-N1=111.96               H11-C2-C3=109.63               H12-C2-N1=107.44               H12-C2-C3=109.64               
H12-C2-H11=108.06              C4-C3-C2=111.83                H13-C3-C2=108.65               H13-C3-C4=109.80               
H14-C3-C2=109.25               H14-C3-C4=109.39               H14-C3-H13=107.82              C5-C4-C3=111.87                
H15-C4-C3=109.51               H15-C4-C5=109.28               H16-C4-C3=109.26               H16-C4-C5=109.22               
H16-C4-H15=107.61              C6-C5-C4=111.81                H17-C5-C4=109.12               H17-C5-C6=109.47               
H18-C5-C4=109.32               H18-C5-C6=109.39               H18-C5-H17=107.62              H19-C6-C5=110.51               
H20-C6-C5=110.60               H20-C6-H19=108.39              H21-C6-C5=110.58               H21-C6-H19=108.29              
H21-C6-H20=108.38              

 selected dihedral angles (degree)
 ---------------------------------
C3-C2-N1-H8=180.68            C3-C2-N1-H9= 59.49            H11-C2-N1-H8= 58.49           H11-C2-N1-H9=297.30           
H12-C2-N1-H8=300.00           H12-C2-N1-H9=178.81           C4-C3-C2-N1=178.34            C4-C3-C2-H11=301.90           
C4-C3-C2-H12= 60.38           H13-C3-C2-N1= 56.98           H13-C3-C2-H11=180.54          H13-C3-C2-H12=299.01          
H14-C3-C2-N1=299.60           H14-C3-C2-H11= 63.15          H14-C3-C2-H12=181.63          C5-C4-C3-C2=181.11            
C5-C4-C3-H13=301.80           C5-C4-C3-H14= 59.93           H15-C4-C3-C2= 59.80           H15-C4-C3-H13=180.49          
H15-C4-C3-H14=298.62          H16-C4-C3-C2=302.17           H16-C4-C3-H13= 62.86          H16-C4-C3-H14=180.99          
C6-C5-C4-C3=180.33            C6-C5-C4-H15=301.78           C6-C5-C4-H16= 59.25           H17-C5-C4-C3= 59.08           
H17-C5-C4-H15=180.53          H17-C5-C4-H16=298.00          H18-C5-C4-C3=301.62           H18-C5-C4-H15= 63.07          
H18-C5-C4-H16=180.54          H19-C6-C5-C4=300.40           H19-C6-C5-H17= 61.45          H19-C6-C5-H18=179.15          
H20-C6-C5-C4=180.37           H20-C6-C5-H17=301.41          H20-C6-C5-H18= 59.12          H21-C6-C5-C4= 60.30           
H21-C6-C5-H17=181.35          H21-C6-C5-H18=299.05          

 CMA Distance (Angstroems)
 ---------------------------
R(CMA):  4.3891
           -------------------------------------------------
          |                Final Singlepoint                |
           -------------------------------------------------

          ...................................................
          :                      SETUP                      :
          :.................................................:
          :  # basis functions                  48          :
          :  # atomic orbitals                  47          :
          :  # shells                           29          :
          :  # electrons                        46          :
          :  max. iterations                   250          :
          :  Hamiltonian                  GFN2-xTB          :
          :  restarted?                      false          :
          :  GBSA solvation                  false          :
          :  PC potential                    false          :
          :  electronic temp.          300.0000000     K    :
          :  accuracy                    1.0000000          :
          :  -> integral cutoff          0.2500000E+02      :
          :  -> integral neglect         0.1000000E-07      :
          :  -> SCF convergence          0.1000000E-05 Eh   :
          :  -> wf. convergence          0.1000000E-03 e    :
          :  Broyden damping             0.4000000          :
          ...................................................

 iter      E             dE          RMSdq      gap      omega  full diag
   1    -25.6051913 -0.256052E+02  0.293E-04    9.17       0.0  T
   2    -25.6051913 -0.224915E-09  0.239E-04    9.17      91.3  T
   3    -25.6051913 -0.319428E-09  0.131E-04    9.17     166.9  T

   *** convergence criteria satisfied after 3 iterations ***

         #    Occupation            Energy/Eh            Energy/eV
      -------------------------------------------------------------
         1        2.0000           -1.0157999             -27.6413
       ...           ...                  ...                  ...
        17        2.0000           -0.4438276             -12.0772
        18        2.0000           -0.4426610             -12.0454
        19        2.0000           -0.4362653             -11.8714
        20        2.0000           -0.4272845             -11.6270
        21        2.0000           -0.3982944             -10.8381
        22        2.0000           -0.3929352             -10.6923
        23        2.0000           -0.3929011             -10.6914 (HOMO)
        24                         -0.0559963              -1.5237 (LUMO)
        25                          0.0110076               0.2995
        26                          0.0682475               1.8571
        27                          0.0686067               1.8669
        28                          0.0700187               1.9053
       ...                                ...                  ...
        47                          0.3080174               8.3816
      -------------------------------------------------------------
                  HL-Gap            0.3369048 Eh            9.1676 eV
             Fermi-level           -0.2244487 Eh           -6.1076 eV

 SCC (total)                   0 d,  0 h,  0 min,  0.006 sec
 SCC setup                      ...        0 min,  0.000 sec (  1.279%)
 Dispersion                     ...        0 min,  0.000 sec (  2.174%)
 classical contributions        ...        0 min,  0.000 sec (  0.422%)
 integral evaluation            ...        0 min,  0.001 sec ( 13.325%)
 iterations                     ...        0 min,  0.003 sec ( 53.350%)
 molecular gradient             ...        0 min,  0.002 sec ( 26.278%)
 printout                       ...        0 min,  0.000 sec (  1.306%)

         :::::::::::::::::::::::::::::::::::::::::::::::::::::
         ::                     SUMMARY                     ::
         :::::::::::::::::::::::::::::::::::::::::::::::::::::
         :: total energy             -25.316592843065 Eh    ::
         :: gradient norm              0.000282533991 Eh/a0 ::
         :: HOMO-LUMO gap              9.167647586429 eV    ::
         ::.................................................::
         :: SCC energy               -25.605191266648 Eh    ::
         :: -> isotropic ES            0.029005472522 Eh    ::
         :: -> anisotropic ES         -0.001879592006 Eh    ::
         :: -> anisotropic XC          0.010914576107 Eh    ::
         :: -> dispersion             -0.011961047594 Eh    ::
         :: repulsion energy           0.288595668586 Eh    ::
         :: add. restraining           0.000000000000 Eh    ::
         :: total charge               0.000000000000 e     ::
         :::::::::::::::::::::::::::::::::::::::::::::::::::::

           -------------------------------------------------
          |                Property Printout                |
           -------------------------------------------------

    * Orbital Energies and Occupations

         #    Occupation            Energy/Eh            Energy/eV
      -------------------------------------------------------------
         1        2.0000           -1.0157999             -27.6413
       ...           ...                  ...                  ...
        11        2.0000           -0.5157099             -14.0332
        12        2.0000           -0.4940074             -13.4426
        13        2.0000           -0.4912513             -13.3676
        14        2.0000           -0.4874700             -13.2647
        15        2.0000           -0.4700560             -12.7909
        16        2.0000           -0.4614360             -12.5563
        17        2.0000           -0.4438276             -12.0772
        18        2.0000           -0.4426610             -12.0454
        19        2.0000           -0.4362653             -11.8714
        20        2.0000           -0.4272845             -11.6270
        21        2.0000           -0.3982944             -10.8381
        22        2.0000           -0.3929352             -10.6923
        23        2.0000           -0.3929011             -10.6914 (HOMO)
        24                         -0.0559963              -1.5237 (LUMO)
        25                          0.0110076               0.2995
        26                          0.0682475               1.8571
        27                          0.0686067               1.8669
        28                          0.0700187               1.9053
        29                          0.0742897               2.0215
        30                          0.0744720               2.0265
        31                          0.0950879               2.5875
        32                          0.1074969               2.9251
        33                          0.1122107               3.0534
        34                          0.1304045               3.5485
       ...                                ...                  ...
        47                          0.3080174               8.3816
      -------------------------------------------------------------
                  HL-Gap            0.3369048 Eh            9.1676 eV
             Fermi-level           -0.2244487 Eh           -6.1076 eV

     #   Z          covCN         q      C6AA      α(0)
     1   7 N        2.696    -0.306    27.861     7.839
     2   6 C        3.732     0.008    20.540     6.469
     3   6 C        3.804    -0.074    21.907     6.663
     4   6 C        3.803    -0.060    21.661     6.626
     5   6 C        3.801    -0.055    21.555     6.610
     6   6 C        3.752    -0.104    22.542     6.771
     7  17 Cl       0.837    -0.487   115.194    16.419
     8   1 H        0.860     0.166     1.299     1.785
     9   1 H        0.860     0.167     1.290     1.779
    10   1 H        0.902     0.332     0.623     1.235
    11   1 H        0.923     0.024     2.678     2.559
    12   1 H        0.924     0.052     2.300     2.372
    13   1 H        0.925     0.061     2.182     2.310
    14   1 H        0.924     0.037     2.490     2.468
    15   1 H        0.924     0.031     2.572     2.508
    16   1 H        0.924     0.036     2.505     2.475
    17   1 H        0.924     0.036     2.504     2.475
    18   1 H        0.924     0.031     2.571     2.507
    19   1 H        0.925     0.036     2.510     2.477
    20   1 H        0.925     0.036     2.503     2.474
    21   1 H        0.925     0.034     2.535     2.490

 Mol. C6AA /au·bohr⁶  :       3551.086237
 Mol. C8AA /au·bohr⁸  :      83971.327721
 Mol. α(0) /au        :         89.312670


Wiberg/Mayer (AO) data.
largest (>0.10) Wiberg bond orders for each atom

 ---------------------------------------------------------------------------
     #   Z sym  total        # sym  WBO       # sym  WBO       # sym  WBO
 ---------------------------------------------------------------------------
     1   7 N    3.240 --     2 C    1.004     8 H    0.959     9 H    0.958
                            10 H    0.208
     2   6 C    3.973 --     3 C    1.006     1 N    1.004    12 H    0.974
                            11 H    0.973
     3   6 C    3.993 --     4 C    1.006     2 C    1.006    14 H    0.976
                            13 H    0.973
     4   6 C    3.997 --     5 C    1.008     3 C    1.006    15 H    0.977
                            16 H    0.977
     5   6 C    3.997 --     6 C    1.019     4 C    1.008    18 H    0.978
                            17 H    0.978
     6   6 C    3.997 --     5 C    1.019    21 H    0.988    19 H    0.988
                            20 H    0.987
     7  17 Cl   0.766 --    10 H    0.678
     8   1 H    0.972 --     1 N    0.959
     9   1 H    0.972 --     1 N    0.958
    10   1 H    0.890 --     7 Cl   0.678     1 N    0.208
    11   1 H    0.999 --     2 C    0.973
    12   1 H    0.997 --     2 C    0.974
    13   1 H    0.996 --     3 C    0.973
    14   1 H    0.999 --     3 C    0.976
    15   1 H    0.999 --     4 C    0.977
    16   1 H    0.999 --     4 C    0.977
    17   1 H    0.999 --     5 C    0.978
    18   1 H    0.999 --     5 C    0.978
    19   1 H    0.999 --     6 C    0.988
    20   1 H    0.998 --     6 C    0.987
    21   1 H    0.999 --     6 C    0.988
 ---------------------------------------------------------------------------

Topologies differ in total number of bonds
Writing topology from bond orders to xtbtopo.mol

molecular dipole:
                 x           y           z       tot (Debye)
 q only:        1.084       0.452      -1.542
   full:        0.899       0.410      -1.566       4.708
molecular quadrupole (traceless):
                xx          xy          yy          xz          yz          zz
 q only:        7.531       0.943       0.770       2.093       3.110      -8.302
  q+dip:        3.824       0.748       0.678      -1.469       0.880      -4.502
   full:        4.645       0.939       0.162      -1.142       1.357      -4.808

           -------------------------------------------------
          |                Geometry Summary                 |
           -------------------------------------------------

      molecular mass/u    :      123.6244908
   center of mass at/Å    :        2.7800205       0.6311702       1.1815473
  moments of inertia/u·Å² :        0.1630951E+03   0.8169295E+03   0.9430933E+03
rotational constants/cm⁻¹ :        0.1033607E+00   0.2063536E-01   0.1787483E-01

 * 18 selected distances

     #   Z          #   Z                                           value/Å
     1   7 N        2   6 C                                       1.4627156
     2   6 C        3   6 C                                       1.5252857
     3   6 C        4   6 C                                       1.5262974
     4   6 C        5   6 C                                       1.5267823 (max)
     5   6 C        6   6 C                                       1.5235411
     1   7 N        8   1 H                                       1.0138477 (min)
     1   7 N        9   1 H                                       1.0147601
     2   6 C       11   1 H                                       1.0997712
     2   6 C       12   1 H                                       1.0924135
     3   6 C       13   1 H                                       1.0902053
     3   6 C       14   1 H                                       1.0927762
     4   6 C       15   1 H                                       1.0930798
     4   6 C       16   1 H                                       1.0920262
     5   6 C       17   1 H                                       1.0916871
     5   6 C       18   1 H                                       1.0923034
     6   6 C       19   1 H                                       1.0876918
     6   6 C       20   1 H                                       1.0872669
     6   6 C       21   1 H                                       1.0879697

 * 4 distinct bonds (by element types)

   Z      Z             #   av. dist./Å        max./Å        min./Å
   1 H    6 C          11     1.0915628     1.0997712     1.0872669
   6 C    6 C           4     1.5254766     1.5267823     1.5235411
   1 H    7 N           2     1.0143039     1.0147601     1.0138477
   6 C    7 N           1     1.4627156     1.4627156     1.4627156


optimized geometry written to: xtbopt.xyz


           -------------------------------------------------
          | TOTAL ENERGY              -25.316592843065 Eh   |
          | GRADIENT NORM               0.000282533991 Eh/α |
          | HOMO-LUMO GAP               9.167647586429 eV   |
           -------------------------------------------------

------------------------------------------------------------------------
 * finished run on 2023/01/23 at 20:06:50.847     
------------------------------------------------------------------------
 total:
 * wall-time:     0 d,  0 h,  0 min,  0.407 sec
 *  cpu-time:     0 d,  0 h,  0 min, 33.682 sec
 * ratio c/w:    82.723 speedup
 SCF:
 * wall-time:     0 d,  0 h,  0 min,  0.033 sec
 *  cpu-time:     0 d,  0 h,  0 min,  4.247 sec
 * ratio c/w:   129.040 speedup
 ANC optimizer:
 * wall-time:     0 d,  0 h,  0 min,  0.351 sec
 *  cpu-time:     0 d,  0 h,  0 min, 26.596 sec
 * ratio c/w:    75.723 speedup

