17
 energy: -20.733386099885 gnorm: 0.000712266157 xtb: 6.5.1 (fef0646)
N            0.93437402657211        0.05063090876112       -0.06077565587345
C            2.43132235399709        0.02849494088810       -0.09067616523548
C            2.93574392391822       -0.77102509749949       -1.28406315853452
C            4.46817202670568       -0.78411252931012       -1.30281422866757
C            5.00220860650242       -1.57846476883410       -2.48596369319754
Br           6.96617467806543       -1.56141522606451       -2.46032712169198
H            0.58436856576920        0.58851359115035        0.74236105697810
H            0.57121059524449       -0.91013245516788        0.00095522221888
H            0.57320305331395        0.47495068379168       -0.92580290445880
H            2.78771788550036       -0.41506978256113        0.84014260413551
H            2.78980347484780        1.05741527224775       -0.14549322196873
H            2.57303689806036       -0.32807185461541       -2.21371003809840
H            2.57249801015690       -1.79910784027563       -1.22840996394846
H            4.84483003634452       -1.22600160098303       -0.37892479738146
H            4.84529421206220        0.23814756681692       -1.36171136032164
H            4.69823742459671       -1.14340269712006       -3.43682662820705
H            4.69812422834256       -2.62322911122455       -2.44331994574741
