      -----------------------------------------------------------      
     |                   =====================                   |     
     |                           x T B                           |     
     |                   =====================                   |     
     |                         S. Grimme                         |     
     |          Mulliken Center for Theoretical Chemistry        |     
     |                    University of Bonn                     |     
      -----------------------------------------------------------      

   * xtb version 6.5.1 (fef0646) compiled by 'conda@b96dff2e9fd6' on 2023-01-04

   xtb is free software: you can redistribute it and/or modify it under
   the terms of the GNU Lesser General Public License as published by
   the Free Software Foundation, either version 3 of the License, or
   (at your option) any later version.
   
   xtb is distributed in the hope that it will be useful,
   but WITHOUT ANY WARRANTY; without even the implied warranty of
   MERCHANTABILITY or FITNESS FOR A PARTICULAR PURPOSE.  See the
   GNU Lesser General Public License for more details.
   
   Cite this work as:
   * C. Bannwarth, E. Caldeweyher, S. Ehlert, A. Hansen, P. Pracht,
     J. Seibert, S. Spicher, S. Grimme, WIREs Comput. Mol. Sci., 2020, 11,
     e01493. DOI: 10.1002/wcms.1493
   
   for GFN2-xTB:
   * C. Bannwarth, S. Ehlert and S. Grimme., J. Chem. Theory Comput., 2019,
     15, 1652-1671. DOI: 10.1021/acs.jctc.8b01176
   for GFN1-xTB:
   * S. Grimme, C. Bannwarth, P. Shushkov, J. Chem. Theory Comput., 2017,
     13, 1989-2009. DOI: 10.1021/acs.jctc.7b00118
   for GFN0-xTB:
   * P. Pracht, E. Caldeweyher, S. Ehlert, S. Grimme, ChemRxiv, 2019, preprint.
     DOI: 10.26434/chemrxiv.8326202.v1
   for GFN-FF:
   * S. Spicher and S. Grimme, Angew. Chem. Int. Ed., 2020, 59, 15665-15673.
     DOI: 10.1002/anie.202004239
   
   for ALPB and GBSA implicit solvation:
   * S. Ehlert, M. Stahn, S. Spicher, S. Grimme, J. Chem. Theory Comput.,
     2021, 17, 4250-4261. DOI: 10.1021/acs.jctc.1c00471
   
   for DFT-D4:
   * E. Caldeweyher, C. Bannwarth and S. Grimme, J. Chem. Phys., 2017,
     147, 034112. DOI: 10.1063/1.4993215
   * E. Caldeweyher, S. Ehlert, A. Hansen, H. Neugebauer, S. Spicher,
     C. Bannwarth and S. Grimme, J. Chem. Phys., 2019, 150, 154122.
     DOI: 10.1063/1.5090222
   * E. Caldeweyher, J.-M. Mewes, S. Ehlert and S. Grimme, Phys. Chem. Chem. Phys.
     2020, 22, 8499-8512. DOI: 10.1039/D0CP00502A
   
   for sTDA-xTB:
   * S. Grimme and C. Bannwarth, J. Chem. Phys., 2016, 145, 054103.
     DOI: 10.1063/1.4959605
   
   in the mass-spec context:
   * V. Asgeirsson, C. Bauer and S. Grimme, Chem. Sci., 2017, 8, 4879.
     DOI: 10.1039/c7sc00601b
   * J. Koopman and S. Grimme, ACS Omega 2019, 4, 12, 15120-15133.
     DOI: 10.1021/acsomega.9b02011
   
   for metadynamics refer to:
   * S. Grimme, J. Chem. Theory Comput., 2019, 155, 2847-2862
     DOI: 10.1021/acs.jctc.9b00143
   
   for SPH calculations refer to:
   * S. Spicher and S. Grimme, J. Chem. Theory Comput., 2021, 17, 1701-1714
     DOI: 10.1021/acs.jctc.0c01306
   
   with help from (in alphabetical order)
   P. Atkinson, C. Bannwarth, F. Bohle, G. Brandenburg, E. Caldeweyher
   M. Checinski, S. Dohm, S. Ehlert, S. Ehrlich, I. Gerasimov, C. Hölzer
   A. Katbashev, J. Koopman, C. Lavigne, S. Lehtola, F. März, M. Müller,
   F. Musil, H. Neugebauer, J. Pisarek, C. Plett, P. Pracht, F. Pultar,
   J. Seibert, P. Shushkov, S. Spicher, M. Stahn, M. Steiner, T. Strunk,
   J. Stückrath, T. Rose, and J. Unsleber
   
 * started run on 2023/01/24 at 16:45:03.981     

           -------------------------------------------------
          |                Calculation Setup                |
           -------------------------------------------------

          program call               : xtb init.xyz --opt -c 0 -u 0 -P 16 --alpb water
          hostname                   : gpg-woodward
          coordinate file            : init.xyz
          omp threads                :                    16

   ID    Z sym.   atoms
    1    7 N      1
    2    6 C      2-5
    3    8 O      6
    4   17 Cl     7
    5    1 H      8-19

molecular fragmentation (1/2 indicates fragments):
1111112111111111111
# atoms in fragment 1/2:    18     1
 fragment masses (1/2) :       90.14       35.45
CMA distance (Bohr)    :   8.799
constraining FC (au)   :  0.0500

           -------------------------------------------------
          |                 G F N 2 - x T B                 |
           -------------------------------------------------

        Reference                      10.1021/acs.jctc.8b01176
      * Hamiltonian:
        H0-scaling (s, p, d)           1.850000    2.230000    2.230000
        zeta-weighting                 0.500000
      * Dispersion:
        s8                             2.700000
        a1                             0.520000
        a2                             5.000000
        s9                             5.000000
      * Repulsion:
        kExp                           1.500000    1.000000
        rExp                           1.000000
      * Coulomb:
        alpha                          2.000000
        third order                    shell-resolved
        anisotropic                    true
        a3                             3.000000
        a5                             4.000000
        cn-shift                       1.200000
        cn-exp                         4.000000
        max-rad                        5.000000

      * Solvation model:               ALPB
        Solvent                        water
        Parameter file                 internal GFN2-xTB/ALPB
        Dielectric constant                8.0200E+01
        Reference state                gsolv [1 M gas/solution]
        Free energy shift                  1.0808E-03 Eh       6.7819E-01 kcal/mol
        Temperature                        2.9815E+02 K
        Density                            1.0000E+00 kg/L
        Solvent mass                       1.8000E+01 g/mol
        Interaction kernel             P16
        Born radius scaling (c1)           1.4744E+00
        Born radii integrator          GBOBC
        Born offset                        0.0000E+00 a0       0.0000E+00 AA
        H-bond correction              true
        Ion screening                  false
        Surface tension                    1.0000E-05 Eh       1.5569E+01 dyn/cm
        Grid points                               230 per atom

          ...................................................
          :                      SETUP                      :
          :.................................................:
          :  # basis functions                  46          :
          :  # atomic orbitals                  45          :
          :  # shells                           27          :
          :  # electrons                        46          :
          :  max. iterations                   250          :
          :  Hamiltonian                  GFN2-xTB          :
          :  restarted?                      false          :
          :  GBSA solvation                   true          :
          :  PC potential                    false          :
          :  electronic temp.          300.0000000     K    :
          :  accuracy                    1.0000000          :
          :  -> integral cutoff          0.2500000E+02      :
          :  -> integral neglect         0.1000000E-07      :
          :  -> SCF convergence          0.1000000E-05 Eh   :
          :  -> wf. convergence          0.1000000E-03 e    :
          :  Broyden damping             0.4000000          :
          ...................................................

 iter      E             dE          RMSdq      gap      omega  full diag
   1    -26.4017603 -0.264018E+02  0.423E+00   11.37       0.0  T
   2    -26.4895215 -0.877612E-01  0.228E+00   10.17       1.0  T
   3    -26.4940964 -0.457487E-02  0.116E+00    9.81       1.0  T
   4    -26.4955728 -0.147642E-02  0.348E-01   10.00       1.0  T
   5    -26.4959282 -0.355388E-03  0.254E-01   10.06       1.0  T
   6    -26.4963258 -0.397592E-03  0.100E-01   10.14       1.0  T
   7    -26.4963783 -0.525205E-04  0.386E-02   10.16       1.0  T
   8    -26.4963825 -0.425870E-05  0.121E-02   10.16       1.9  T
   9    -26.4963829 -0.326634E-06  0.433E-03   10.15       5.3  T
  10    -26.4963829 -0.454729E-07  0.174E-03   10.15      13.2  T
  11    -26.4963829 -0.518954E-08  0.758E-04   10.15      30.3  T
  12    -26.4963829 -0.168079E-08  0.236E-04   10.15      97.1  T

   *** convergence criteria satisfied after 12 iterations ***

         #    Occupation            Energy/Eh            Energy/eV
      -------------------------------------------------------------
         1        2.0000           -1.0073952             -27.4126
       ...           ...                  ...                  ...
        17        2.0000           -0.4504430             -12.2572
        18        2.0000           -0.4380857             -11.9209
        19        2.0000           -0.4226850             -11.5018
        20        2.0000           -0.4080647             -11.1040
        21        2.0000           -0.4036658             -10.9843
        22        2.0000           -0.4030614             -10.9679
        23        2.0000           -0.4025540             -10.9541 (HOMO)
        24                         -0.0294115              -0.8003 (LUMO)
        25                          0.0451994               1.2299
        26                          0.0721206               1.9625
        27                          0.0820852               2.2337
        28                          0.1063794               2.8947
       ...                                ...                  ...
        45                          0.3045979               8.2885
      -------------------------------------------------------------
                  HL-Gap            0.3731426 Eh           10.1537 eV
             Fermi-level           -0.2159827 Eh           -5.8772 eV

 SCC (total)                   0 d,  0 h,  0 min,  0.020 sec
 SCC setup                      ...        0 min,  0.001 sec (  2.561%)
 Dispersion                     ...        0 min,  0.000 sec (  1.792%)
 classical contributions        ...        0 min,  0.000 sec (  0.631%)
 integral evaluation            ...        0 min,  0.001 sec (  7.103%)
 iterations                     ...        0 min,  0.015 sec ( 75.286%)
 molecular gradient             ...        0 min,  0.002 sec ( 10.731%)
 printout                       ...        0 min,  0.000 sec (  0.748%)

         :::::::::::::::::::::::::::::::::::::::::::::::::::::
         ::                     SUMMARY                     ::
         :::::::::::::::::::::::::::::::::::::::::::::::::::::
         :: total energy             -26.247025120706 Eh    ::
         :: total w/o Gsasa/hb       -26.235962779736 Eh    ::
         :: gradient norm              0.040952186318 Eh/a0 ::
         :: HOMO-LUMO gap             10.153726153086 eV    ::
         ::.................................................::
         :: SCC energy               -26.496382924978 Eh    ::
         :: -> isotropic ES            0.146602654066 Eh    ::
         :: -> anisotropic ES         -0.028914474810 Eh    ::
         :: -> anisotropic XC         -0.000007602056 Eh    ::
         :: -> dispersion             -0.010003119834 Eh    ::
         :: -> Gsolv                  -0.075030757028 Eh    ::
         ::    -> Gelec               -0.063968416057 Eh    ::
         ::    -> Gsasa                0.000642864814 Eh    ::
         ::    -> Ghb                 -0.012785965483 Eh    ::
         ::    -> Gshift               0.001080759698 Eh    ::
         :: repulsion energy           0.249352392462 Eh    ::
         :: add. restraining           0.000000000000 Eh    ::
         :: total charge              -0.000000000000 e     ::
         :::::::::::::::::::::::::::::::::::::::::::::::::::::

      ----------------------------------------------------------- 
     |                   =====================                   |
     |                        A N C O P T                        |
     |                   =====================                   |
     |               Approximate Normal Coordinate               |
     |                Rational Function Optimizer                |
      ----------------------------------------------------------- 

          ...................................................
          :                      SETUP                      :
          :.................................................:
          :   optimization level            normal          :
          :   max. optcycles                   200          :
          :   ANC micro-cycles                  20          :
          :   degrees of freedom                51          :
          :.................................................:
          :   RF solver                   davidson          :
          :   write xtbopt.log                true          :
          :   linear?                        false          :
          :   energy convergence         0.5000000E-05 Eh   :
          :   grad. convergence          0.1000000E-02 Eh/α :
          :   maximium RF displ.         1.0000000          :
          :   Hlow (freq-cutoff)         0.1000000E-01      :
          :   Hmax (freq-cutoff)         5.0000000          :
          :   S6 in model hess.         20.0000000          :
          ...................................................

generating ANC from model Hessian ...
Using Lindh-Hessian (1995)
 Shifting diagonal of input Hessian by    9.7796211534692430E-003
 Lowest  eigenvalues of input Hessian
    0.000000    0.000000    0.000000    0.000000    0.000000    0.000000
    0.010000    0.010748    0.012201    0.012978    0.013769    0.017409
    0.021220    0.023710    0.025944    0.028772    0.032556    0.050931
 Highest eigenvalues
    1.236911    1.252370    1.288763    1.436428    1.455140    1.596086


........................................................................
.............................. CYCLE    1 ..............................
........................................................................
   1    -26.4963829 -0.264964E+02  0.137E-04   10.15       0.0  T
   2    -26.4963829 -0.490452E-10  0.108E-04   10.15     212.4  T
   3    -26.4963829 -0.465619E-10  0.634E-05   10.15     362.1  T
     SCC iter.                  ...        0 min,  0.004 sec
     gradient                   ...        0 min,  0.002 sec
 * total energy  :   -26.2470251 Eh     change       -0.2669402E-09 Eh
   gradient norm :     0.0409540 Eh/α   predicted     0.0000000E+00 (-100.00%)
   displ. norm   :     0.5057352 α      lambda       -0.9300309E-02
   maximum displ.:     0.3212470 α      in ANC's #1, #7, #10, ...

........................................................................
.............................. CYCLE    2 ..............................
........................................................................
   1    -26.5044783 -0.265045E+02  0.245E-01    9.98       0.0  T
   2    -26.5045769 -0.986078E-04  0.135E-01    9.95       1.0  T
   3    -26.5045858 -0.893691E-05  0.424E-02    9.94       1.0  T
   4    -26.5045882 -0.235751E-05  0.161E-02    9.95       1.4  T
   5    -26.5045890 -0.781434E-06  0.104E-02    9.94       2.2  T
   6    -26.5045896 -0.634852E-06  0.387E-03    9.94       5.9  T
   7    -26.5045897 -0.707467E-07  0.112E-03    9.94      20.5  T
   8    -26.5045897 -0.546490E-08  0.400E-04    9.94      57.4  T
   9    -26.5045897 -0.275278E-09  0.133E-04    9.94     173.1  T
     SCC iter.                  ...        0 min,  0.010 sec
     gradient                   ...        0 min,  0.002 sec
 * total energy  :   -26.2518077 Eh     change       -0.4782588E-02 Eh
   gradient norm :     0.0287131 Eh/α   predicted    -0.5839642E-02 (  22.10%)
   displ. norm   :     0.1450252 α      lambda       -0.1808548E-02
   maximum displ.:     0.0760092 α      in ANC's #1, #16, #29, ...

........................................................................
.............................. CYCLE    3 ..............................
........................................................................
   1    -26.5070418 -0.265070E+02  0.110E-01    9.93       0.0  T
   2    -26.5070511 -0.932011E-05  0.626E-02    9.94       1.0  T
   3    -26.5070530 -0.193851E-05  0.128E-02    9.93       1.8  T
   4    -26.5070533 -0.254021E-06  0.700E-03    9.93       3.3  T
   5    -26.5070534 -0.120712E-06  0.381E-03    9.93       6.0  T
   6    -26.5070535 -0.627521E-07  0.224E-03    9.93      10.3  T
   7    -26.5070535 -0.263434E-07  0.100E-03    9.93      22.9  T
   8    -26.5070535 -0.550307E-08  0.232E-04    9.93      99.0  T
   9    -26.5070535 -0.127194E-09  0.124E-04    9.93     184.5  T
     SCC iter.                  ...        0 min,  0.010 sec
     gradient                   ...        0 min,  0.002 sec
 * total energy  :   -26.2529508 Eh     change       -0.1143066E-02 Eh
   gradient norm :     0.0119465 Eh/α   predicted    -0.9232946E-03 ( -19.23%)
   displ. norm   :     0.1647944 α      lambda       -0.5736256E-03
   maximum displ.:     0.1302754 α      in ANC's #1, #11, #7, ...

........................................................................
.............................. CYCLE    4 ..............................
........................................................................
   1    -26.5077370 -0.265077E+02  0.641E-02    9.94       0.0  T
   2    -26.5077396 -0.259223E-05  0.372E-02    9.94       1.0  T
   3    -26.5077403 -0.672194E-06  0.773E-03    9.94       3.0  T
   4    -26.5077404 -0.169246E-06  0.492E-03    9.94       4.7  T
   5    -26.5077405 -0.852630E-07  0.239E-03    9.94       9.6  T
   6    -26.5077406 -0.260888E-07  0.150E-03    9.94      15.3  T
   7    -26.5077406 -0.122542E-07  0.284E-04    9.94      80.8  T
   8    -26.5077406 -0.226986E-09  0.118E-04    9.94     194.3  T
     SCC iter.                  ...        0 min,  0.009 sec
     gradient                   ...        0 min,  0.002 sec
 * total energy  :   -26.2533618 Eh     change       -0.4109988E-03 Eh
   gradient norm :     0.0067331 Eh/α   predicted    -0.2946037E-03 ( -28.32%)
   displ. norm   :     0.2796315 α      lambda       -0.5188330E-03
   maximum displ.:     0.2310885 α      in ANC's #1, #7, #10, ...

........................................................................
.............................. CYCLE    5 ..............................
........................................................................
   1    -26.5079665 -0.265080E+02  0.753E-02    9.92       0.0  T
   2    -26.5079693 -0.283820E-05  0.449E-02    9.92       1.0  T
   3    -26.5079705 -0.118474E-05  0.104E-02    9.92       2.2  T
   4    -26.5079708 -0.301101E-06  0.725E-03    9.92       3.2  T
   5    -26.5079710 -0.208459E-06  0.384E-03    9.92       6.0  T
   6    -26.5079711 -0.809388E-07  0.165E-03    9.92      13.9  T
   7    -26.5079711 -0.104958E-07  0.565E-04    9.92      40.6  T
   8    -26.5079711 -0.918426E-09  0.126E-04    9.92     182.1  T
     SCC iter.                  ...        0 min,  0.009 sec
     gradient                   ...        0 min,  0.002 sec
 * total energy  :   -26.2537978 Eh     change       -0.4359931E-03 Eh
   gradient norm :     0.0100272 Eh/α   predicted    -0.2797029E-03 ( -35.85%)
   displ. norm   :     0.6638572 α      lambda       -0.1138590E-02
   maximum displ.:     0.5409326 α      in ANC's #1, #7, #10, ...

........................................................................
.............................. CYCLE    6 ..............................
........................................................................
   1    -26.5054776 -0.265055E+02  0.160E-01    9.80       0.0  T
   2    -26.5054943 -0.166667E-04  0.990E-02    9.81       1.0  T
   3    -26.5055043 -0.100072E-04  0.297E-02    9.81       1.0  T
   4    -26.5055068 -0.248142E-05  0.207E-02    9.81       1.1  T
   5    -26.5055086 -0.184765E-05  0.112E-02    9.81       2.1  T
   6    -26.5055094 -0.728785E-06  0.353E-03    9.81       6.5  T
   7    -26.5055094 -0.338319E-07  0.108E-03    9.81      21.3  T
   8    -26.5055094 -0.213425E-08  0.259E-04    9.81      88.5  T
   9    -26.5055094 -0.858975E-10  0.134E-04    9.81     171.1  T
     SCC iter.                  ...        0 min,  0.010 sec
     gradient                   ...        0 min,  0.002 sec
 * total energy  :   -26.2546886 Eh     change       -0.8908352E-03 Eh
   gradient norm :     0.0190010 Eh/α   predicted    -0.8202065E-03 (  -7.93%)
   displ. norm   :     0.4741829 α      lambda       -0.1002306E-02
   maximum displ.:     0.3549272 α      in ANC's #1, #7, #10, ...

........................................................................
.............................. CYCLE    7 ..............................
........................................................................
   1    -26.5052859 -0.265053E+02  0.113E-01    9.75       0.0  T
   2    -26.5052994 -0.135285E-04  0.731E-02    9.76       1.0  T
   3    -26.5053081 -0.865147E-05  0.286E-02    9.77       1.0  T
   4    -26.5053109 -0.279107E-05  0.189E-02    9.77       1.2  T
   5    -26.5053126 -0.173699E-05  0.811E-03    9.77       2.8  T
   6    -26.5053130 -0.389023E-06  0.183E-03    9.77      12.5  T
   7    -26.5053130 -0.619130E-08  0.780E-04    9.77      29.4  T
   8    -26.5053130 -0.731916E-09  0.158E-04    9.77     145.6  T
     SCC iter.                  ...        0 min,  0.008 sec
     gradient                   ...        0 min,  0.002 sec
 * total energy  :   -26.2554368 Eh     change       -0.7481928E-03 Eh
   gradient norm :     0.0190662 Eh/α   predicted    -0.6138950E-03 ( -17.95%)
   displ. norm   :     0.3228945 α      lambda       -0.1528480E-02
   maximum displ.:     0.1984752 α      in ANC's #7, #10, #1, ...

........................................................................
.............................. CYCLE    8 ..............................
........................................................................
   1    -26.5122463 -0.265122E+02  0.116E-01    9.94       0.0  T
   2    -26.5122727 -0.263668E-04  0.704E-02    9.96       1.0  T
   3    -26.5122791 -0.639458E-05  0.301E-02    9.96       1.0  T
   4    -26.5122818 -0.269243E-05  0.170E-02    9.96       1.3  T
   5    -26.5122829 -0.113389E-05  0.104E-02    9.96       2.2  T
   6    -26.5122835 -0.655621E-06  0.241E-03    9.96       9.5  T
   7    -26.5122836 -0.173626E-07  0.101E-03    9.96      22.7  T
   8    -26.5122836 -0.251440E-08  0.328E-04    9.96      69.9  T
   9    -26.5122836 -0.268386E-09  0.195E-04    9.96     117.6  T
     SCC iter.                  ...        0 min,  0.009 sec
     gradient                   ...        0 min,  0.002 sec
 * total energy  :   -26.2562474 Eh     change       -0.8106403E-03 Eh
   gradient norm :     0.0203794 Eh/α   predicted    -0.8439222E-03 (   4.11%)
   displ. norm   :     0.3969939 α      lambda       -0.9067451E-03
   maximum displ.:     0.2791850 α      in ANC's #1, #10, #7, ...

........................................................................
.............................. CYCLE    9 ..............................
........................................................................
   1    -26.5089586 -0.265090E+02  0.101E-01    9.94       0.0  T
   2    -26.5089659 -0.732355E-05  0.665E-02    9.94       1.0  T
   3    -26.5089746 -0.862950E-05  0.250E-02    9.94       1.0  T
   4    -26.5089767 -0.214551E-05  0.170E-02    9.94       1.4  T
   5    -26.5089784 -0.169153E-05  0.375E-03    9.94       6.1  T
   6    -26.5089785 -0.434882E-07  0.173E-03    9.94      13.2  T
   7    -26.5089785 -0.366937E-08  0.238E-04    9.94      96.5  T
   8    -26.5089785 -0.135756E-09  0.124E-04    9.94     185.0  T
     SCC iter.                  ...        0 min,  0.007 sec
     gradient                   ...        0 min,  0.002 sec
 * total energy  :   -26.2567981 Eh     change       -0.5506840E-03 Eh
   gradient norm :     0.0107618 Eh/α   predicted    -0.5248270E-03 (  -4.70%)
   displ. norm   :     0.1879473 α      lambda       -0.5071603E-03
   maximum displ.:     0.0975148 α      in ANC's #1, #7, #3, ...

........................................................................
.............................. CYCLE   10 ..............................
........................................................................
   1    -26.5096586 -0.265097E+02  0.585E-02   10.05       0.0  T
   2    -26.5096607 -0.207019E-05  0.352E-02   10.05       1.0  T
   3    -26.5096616 -0.859114E-06  0.898E-03   10.05       2.6  T
   4    -26.5096618 -0.218744E-06  0.614E-03   10.05       3.7  T
   5    -26.5096619 -0.145740E-06  0.357E-03   10.05       6.4  T
   6    -26.5096620 -0.742103E-07  0.129E-03   10.05      17.8  T
   7    -26.5096620 -0.567962E-08  0.399E-04   10.05      57.5  T
   8    -26.5096620 -0.344119E-09  0.813E-05   10.05     282.1  T
     SCC iter.                  ...        0 min,  0.007 sec
     gradient                   ...        0 min,  0.002 sec
 * total energy  :   -26.2571406 Eh     change       -0.3425254E-03 Eh
   gradient norm :     0.0044108 Eh/α   predicted    -0.2625427E-03 ( -23.35%)
   displ. norm   :     0.2218674 α      lambda       -0.2365243E-03
   maximum displ.:     0.1441413 α      in ANC's #1, #7, #6, ...

........................................................................
.............................. CYCLE   11 ..............................
........................................................................
   1    -26.5101658 -0.265102E+02  0.536E-02   10.08       0.0  T
   2    -26.5101675 -0.173625E-05  0.343E-02   10.08       1.0  T
   3    -26.5101691 -0.158447E-05  0.108E-02   10.07       2.1  T
   4    -26.5101695 -0.399027E-06  0.726E-03   10.08       3.2  T
   5    -26.5101698 -0.285128E-06  0.259E-03   10.08       8.9  T
   6    -26.5101698 -0.376062E-07  0.876E-04   10.08      26.2  T
   7    -26.5101698 -0.116819E-08  0.234E-04   10.07      98.1  T
     SCC iter.                  ...        0 min,  0.006 sec
     gradient                   ...        0 min,  0.002 sec
 * total energy  :   -26.2572872 Eh     change       -0.1465602E-03 Eh
   gradient norm :     0.0051342 Eh/α   predicted    -0.1241163E-03 ( -15.31%)
   displ. norm   :     0.1702861 α      lambda       -0.1352590E-03
   maximum displ.:     0.0891452 α      in ANC's #1, #3, #7, ...

........................................................................
.............................. CYCLE   12 ..............................
........................................................................
   1    -26.5108712 -0.265109E+02  0.420E-02   10.11       0.0  T
   2    -26.5108719 -0.681010E-06  0.261E-02   10.11       1.0  T
   3    -26.5108726 -0.649644E-06  0.683E-03   10.11       3.4  T
   4    -26.5108727 -0.139256E-06  0.489E-03   10.11       4.7  T
   5    -26.5108728 -0.137157E-06  0.156E-03   10.11      14.7  T
   6    -26.5108728 -0.115507E-07  0.591E-04   10.11      38.8  T
   7    -26.5108728 -0.530566E-09  0.144E-04   10.11     159.3  T
     SCC iter.                  ...        0 min,  0.006 sec
     gradient                   ...        0 min,  0.001 sec
 * total energy  :   -26.2573752 Eh     change       -0.8803104E-04 Eh
   gradient norm :     0.0052943 Eh/α   predicted    -0.6959176E-04 ( -20.95%)
   displ. norm   :     0.2118930 α      lambda       -0.1397100E-03
   maximum displ.:     0.1144712 α      in ANC's #1, #7, #3, ...

........................................................................
.............................. CYCLE   13 ..............................
........................................................................
   1    -26.5112762 -0.265113E+02  0.505E-02   10.10       0.0  T
   2    -26.5112773 -0.110112E-05  0.322E-02   10.11       1.0  T
   3    -26.5112786 -0.123761E-05  0.928E-03   10.11       2.5  T
   4    -26.5112788 -0.294930E-06  0.616E-03   10.11       3.7  T
   5    -26.5112791 -0.215672E-06  0.206E-03   10.11      11.2  T
   6    -26.5112791 -0.207656E-07  0.701E-04   10.11      32.7  T
   7    -26.5112791 -0.684985E-09  0.211E-04   10.11     108.6  T
     SCC iter.                  ...        0 min,  0.006 sec
     gradient                   ...        0 min,  0.002 sec
 * total energy  :   -26.2574801 Eh     change       -0.1048214E-03 Eh
   gradient norm :     0.0049424 Eh/α   predicted    -0.7299404E-04 ( -30.36%)
   displ. norm   :     0.2908130 α      lambda       -0.1732142E-03
   maximum displ.:     0.1607244 α      in ANC's #1, #3, #7, ...

........................................................................
.............................. CYCLE   14 ..............................
........................................................................
   1    -26.5107626 -0.265108E+02  0.683E-02   10.07       0.0  T
   2    -26.5107644 -0.182712E-05  0.436E-02   10.08       1.0  T
   3    -26.5107668 -0.234666E-05  0.127E-02   10.08       1.8  T
   4    -26.5107674 -0.677285E-06  0.712E-03   10.08       3.2  T
   5    -26.5107677 -0.302373E-06  0.207E-03   10.08      11.1  T
   6    -26.5107678 -0.142730E-07  0.746E-04   10.08      30.8  T
   7    -26.5107678 -0.771621E-09  0.194E-04   10.08     118.1  T
     SCC iter.                  ...        0 min,  0.006 sec
     gradient                   ...        0 min,  0.002 sec
 * total energy  :   -26.2576048 Eh     change       -0.1247386E-03 Eh
   gradient norm :     0.0052523 Eh/α   predicted    -0.9393481E-04 ( -24.69%)
   displ. norm   :     0.2698704 α      lambda       -0.1899469E-03
   maximum displ.:     0.1717106 α      in ANC's #3, #6, #5, ...

........................................................................
.............................. CYCLE   15 ..............................
........................................................................
   1    -26.5110779 -0.265111E+02  0.765E-02   10.06       0.0  T
   2    -26.5110801 -0.216832E-05  0.460E-02   10.07       1.0  T
   3    -26.5110810 -0.868590E-06  0.848E-03   10.07       2.7  T
   4    -26.5110812 -0.197022E-06  0.544E-03   10.07       4.2  T
   5    -26.5110813 -0.132356E-06  0.273E-03   10.07       8.4  T
   6    -26.5110814 -0.435183E-07  0.109E-03   10.07      21.0  T
   7    -26.5110814 -0.394840E-08  0.179E-04   10.07     128.0  T
   8    -26.5110814 -0.748734E-10  0.105E-04   10.07     217.5  T
     SCC iter.                  ...        0 min,  0.007 sec
     gradient                   ...        0 min,  0.002 sec
 * total energy  :   -26.2577119 Eh     change       -0.1071445E-03 Eh
   gradient norm :     0.0058898 Eh/α   predicted    -0.1018978E-03 (  -4.90%)
   displ. norm   :     0.2901087 α      lambda       -0.1481981E-03
   maximum displ.:     0.1665018 α      in ANC's #1, #3, #7, ...

........................................................................
.............................. CYCLE   16 ..............................
........................................................................
   1    -26.5092875 -0.265093E+02  0.721E-02   10.03       0.0  T
   2    -26.5092901 -0.257910E-05  0.457E-02   10.03       1.0  T
   3    -26.5092923 -0.225866E-05  0.131E-02   10.03       1.8  T
   4    -26.5092929 -0.569102E-06  0.901E-03   10.03       2.5  T
   5    -26.5092933 -0.426975E-06  0.334E-03   10.03       6.9  T
   6    -26.5092934 -0.718093E-07  0.823E-04   10.03      27.9  T
   7    -26.5092934 -0.838448E-09  0.171E-04   10.03     134.2  T
     SCC iter.                  ...        0 min,  0.006 sec
     gradient                   ...        0 min,  0.002 sec
 * total energy  :   -26.2577903 Eh     change       -0.7839297E-04 Eh
   gradient norm :     0.0059757 Eh/α   predicted    -0.8037873E-04 (   2.53%)
   displ. norm   :     0.0786419 α      lambda       -0.1127784E-03
   maximum displ.:     0.0418332 α      in ANC's #10, #5, #1, ...

........................................................................
.............................. CYCLE   17 ..............................
........................................................................
   1    -26.5106645 -0.265107E+02  0.299E-02   10.05       0.0  T
   2    -26.5106650 -0.496322E-06  0.173E-02   10.05       1.3  T
   3    -26.5106651 -0.167461E-06  0.387E-03   10.05       5.9  T
   4    -26.5106652 -0.407282E-07  0.260E-03   10.05       8.8  T
   5    -26.5106652 -0.308976E-07  0.114E-03   10.05      20.2  T
   6    -26.5106652 -0.572386E-08  0.631E-04   10.05      36.3  T
   7    -26.5106652 -0.162076E-08  0.118E-04   10.05     194.6  T
     SCC iter.                  ...        0 min,  0.005 sec
     gradient                   ...        0 min,  0.002 sec
 * total energy  :   -26.2578597 Eh     change       -0.6931915E-04 Eh
   gradient norm :     0.0036078 Eh/α   predicted    -0.5676174E-04 ( -18.12%)
   displ. norm   :     0.0930261 α      lambda       -0.5039021E-04
   maximum displ.:     0.0648036 α      in ANC's #3, #5, #6, ...

........................................................................
.............................. CYCLE   18 ..............................
........................................................................
   1    -26.5108317 -0.265108E+02  0.322E-02   10.08       0.0  T
   2    -26.5108319 -0.185287E-06  0.189E-02   10.07       1.2  T
   3    -26.5108320 -0.555807E-07  0.155E-03   10.07      14.8  T
   4    -26.5108320 -0.367362E-08  0.783E-04   10.07      29.3  T
   5    -26.5108320 -0.631523E-09  0.231E-04   10.07      99.4  T
     SCC iter.                  ...        0 min,  0.003 sec
     gradient                   ...        0 min,  0.002 sec
 * total energy  :   -26.2578904 Eh     change       -0.3076699E-04 Eh
   gradient norm :     0.0026572 Eh/α   predicted    -0.2541502E-04 ( -17.40%)
   displ. norm   :     0.0516973 α      lambda       -0.2198974E-04
   maximum displ.:     0.0348679 α      in ANC's #3, #5, #2, ...

........................................................................
.............................. CYCLE   19 ..............................
........................................................................
   1    -26.5110230 -0.265110E+02  0.169E-02   10.09       0.0  T
   2    -26.5110230 -0.699701E-07  0.100E-02   10.09       2.3  T
   3    -26.5110230 -0.263863E-07  0.131E-03   10.09      17.5  T
   4    -26.5110231 -0.454427E-08  0.918E-04   10.09      25.0  T
   5    -26.5110231 -0.295113E-08  0.523E-04   10.09      43.9  T
     SCC iter.                  ...        0 min,  0.003 sec
     gradient                   ...        0 min,  0.001 sec
 * total energy  :   -26.2579080 Eh     change       -0.1756880E-04 Eh
   gradient norm :     0.0022785 Eh/α   predicted    -0.1102591E-04 ( -37.24%)
   displ. norm   :     0.1349049 α      lambda       -0.4138960E-04
   maximum displ.:     0.0943380 α      in ANC's #3, #5, #1, ...

........................................................................
.............................. CYCLE   20 ..............................
........................................................................
   1    -26.5109474 -0.265109E+02  0.410E-02   10.09       0.0  T
   2    -26.5109477 -0.254774E-06  0.245E-02   10.09       1.0  T
   3    -26.5109478 -0.166010E-06  0.324E-03   10.09       7.1  T
   4    -26.5109479 -0.256237E-07  0.245E-03   10.09       9.4  T
   5    -26.5109479 -0.286097E-07  0.109E-03   10.09      21.1  T
   6    -26.5109479 -0.585328E-08  0.498E-04   10.09      46.1  T
   7    -26.5109479 -0.947608E-09  0.133E-04   10.09     172.0  T
     SCC iter.                  ...        0 min,  0.005 sec
     gradient                   ...        0 min,  0.001 sec
 * total energy  :   -26.2579375 Eh     change       -0.2952166E-04 Eh
   gradient norm :     0.0025473 Eh/α   predicted    -0.2107337E-04 ( -28.62%)
   displ. norm   :     0.1276974 α      lambda       -0.3399013E-04
   maximum displ.:     0.0857790 α      in ANC's #3, #4, #1, ...
 * RMSD in coord.:     0.8359400 α      energy gain  -0.1091239E-01 Eh

generating ANC from model Hessian ...
Using Lindh-Hessian (1995)
 Shifting diagonal of input Hessian by    9.5228276421795970E-003
 Lowest  eigenvalues of input Hessian
    0.000000    0.000000    0.000000    0.000000    0.000000    0.000000
    0.010000    0.010273    0.012223    0.013019    0.013640    0.017448
    0.023375    0.025119    0.025265    0.030427    0.032440    0.050762
 Highest eigenvalues
    1.234112    1.286723    1.356340    1.438870    1.475373    1.491229


........................................................................
.............................. CYCLE   21 ..............................
........................................................................
   1    -26.5110523 -0.265111E+02  0.377E-02   10.09       0.0  T
   2    -26.5110525 -0.239029E-06  0.229E-02   10.09       1.0  T
   3    -26.5110527 -0.229772E-06  0.393E-03   10.09       5.8  T
   4    -26.5110528 -0.396108E-07  0.299E-03   10.09       7.7  T
   5    -26.5110528 -0.517368E-07  0.957E-04   10.09      24.0  T
   6    -26.5110528 -0.323224E-08  0.249E-04   10.09      92.2  T
     SCC iter.                  ...        0 min,  0.004 sec
     gradient                   ...        0 min,  0.002 sec
 * total energy  :   -26.2579631 Eh     change       -0.2557503E-04 Eh
   gradient norm :     0.0027255 Eh/α   predicted     0.0000000E+00 (-100.00%)
   displ. norm   :     0.0292428 α      lambda       -0.2340723E-04
   maximum displ.:     0.0163031 α      in ANC's #4, #2, #6, ...

........................................................................
.............................. CYCLE   22 ..............................
........................................................................
   1    -26.5111773 -0.265112E+02  0.115E-02   10.08       0.0  T
   2    -26.5111774 -0.781626E-07  0.685E-03   10.08       3.3  T
   3    -26.5111774 -0.144719E-07  0.127E-03   10.08      18.0  T
   4    -26.5111774 -0.344049E-08  0.678E-04   10.08      33.8  T
   5    -26.5111774 -0.137531E-08  0.454E-04   10.08      50.5  T
     SCC iter.                  ...        0 min,  0.003 sec
     gradient                   ...        0 min,  0.001 sec
 * total energy  :   -26.2579818 Eh     change       -0.1866898E-04 Eh
   gradient norm :     0.0011729 Eh/α   predicted    -0.1185075E-04 ( -36.52%)
   displ. norm   :     0.1117409 α      lambda       -0.3356935E-04
   maximum displ.:     0.0662559 α      in ANC's #4, #2, #6, ...

........................................................................
.............................. CYCLE   23 ..............................
........................................................................
   1    -26.5112470 -0.265112E+02  0.378E-02   10.06       0.0  T
   2    -26.5112473 -0.266814E-06  0.229E-02   10.06       1.0  T
   3    -26.5112474 -0.142364E-06  0.296E-03   10.06       7.7  T
   4    -26.5112475 -0.201072E-07  0.214E-03   10.06      10.7  T
   5    -26.5112475 -0.187562E-07  0.112E-03   10.06      20.6  T
   6    -26.5112475 -0.677336E-08  0.475E-04   10.06      48.3  T
   7    -26.5112475 -0.866965E-09  0.169E-04   10.06     135.9  T
     SCC iter.                  ...        0 min,  0.004 sec
     gradient                   ...        0 min,  0.001 sec
 * total energy  :   -26.2580080 Eh     change       -0.2628507E-04 Eh
   gradient norm :     0.0021699 Eh/α   predicted    -0.1687841E-04 ( -35.79%)
   displ. norm   :     0.0399162 α      lambda       -0.1218650E-04
   maximum displ.:     0.0222001 α      in ANC's #4, #2, #5, ...

........................................................................
.............................. CYCLE   24 ..............................
........................................................................
   1    -26.5112061 -0.265112E+02  0.140E-02   10.06       0.0  T
   2    -26.5112061 -0.156343E-07  0.843E-03   10.06       2.7  T
   3    -26.5112061 -0.987300E-08  0.760E-04   10.06      30.2  T
   4    -26.5112061 -0.136497E-08  0.562E-04   10.06      40.8  T
     SCC iter.                  ...        0 min,  0.003 sec
     gradient                   ...        0 min,  0.001 sec
 * total energy  :   -26.2580185 Eh     change       -0.1041448E-04 Eh
   gradient norm :     0.0015545 Eh/α   predicted    -0.6103455E-05 ( -41.39%)
   displ. norm   :     0.1358880 α      lambda       -0.2188703E-04
   maximum displ.:     0.0715479 α      in ANC's #4, #5, #2, ...

........................................................................
.............................. CYCLE   25 ..............................
........................................................................
   1    -26.5109176 -0.265109E+02  0.479E-02   10.07       0.0  T
   2    -26.5109178 -0.193977E-06  0.288E-02   10.07       1.0  T
   3    -26.5109179 -0.104358E-06  0.251E-03   10.07       9.1  T
   4    -26.5109179 -0.151226E-07  0.186E-03   10.07      12.4  T
   5    -26.5109179 -0.131846E-07  0.102E-03   10.07      22.5  T
   6    -26.5109179 -0.577306E-08  0.457E-04   10.07      50.2  T
   7    -26.5109179 -0.813511E-09  0.162E-04   10.07     141.3  T
     SCC iter.                  ...        0 min,  0.005 sec
     gradient                   ...        0 min,  0.001 sec
 * total energy  :   -26.2580264 Eh     change       -0.7957967E-05 Eh
   gradient norm :     0.0024290 Eh/α   predicted    -0.1103510E-04 (  38.67%)
   displ. norm   :     0.0319287 α      lambda       -0.8838687E-05
   maximum displ.:     0.0193913 α      in ANC's #4, #2, #6, ...

........................................................................
.............................. CYCLE   26 ..............................
........................................................................
   1    -26.5112083 -0.265112E+02  0.113E-02   10.07       0.0  T
   2    -26.5112083 -0.843804E-08  0.683E-03   10.07       3.4  T
   3    -26.5112083 -0.525749E-08  0.495E-04   10.07      46.4  T
   4    -26.5112083 -0.455294E-09  0.345E-04   10.07      66.6  T
     SCC iter.                  ...        0 min,  0.003 sec
     gradient                   ...        0 min,  0.001 sec
 * total energy  :   -26.2580319 Eh     change       -0.5525606E-05 Eh
   gradient norm :     0.0008644 Eh/α   predicted    -0.4425813E-05 ( -19.90%)
   displ. norm   :     0.0150715 α      lambda       -0.2189366E-05
   maximum displ.:     0.0073648 α      in ANC's #4, #5, #6, ...

........................................................................
.............................. CYCLE   27 ..............................
........................................................................
   1    -26.5112930 -0.265113E+02  0.515E-03   10.07       0.0  T
   2    -26.5112930 -0.758095E-08  0.307E-03   10.07       7.5  T
   3    -26.5112930 -0.194063E-08  0.354E-04   10.07      64.8  T
   4    -26.5112930 -0.321585E-09  0.206E-04   10.07     111.2  T
     SCC iter.                  ...        0 min,  0.003 sec
     gradient                   ...        0 min,  0.001 sec
 * total energy  :   -26.2580340 Eh     change       -0.2051943E-05 Eh
   gradient norm :     0.0002821 Eh/α   predicted    -0.1096395E-05 ( -46.57%)
   displ. norm   :     0.0261942 α      lambda       -0.1441710E-05
   maximum displ.:     0.0195078 α      in ANC's #5, #2, #1, ...

   *** GEOMETRY OPTIMIZATION CONVERGED AFTER 27 ITERATIONS ***

------------------------------------------------------------------------
 total energy gain   :        -0.0110089 Eh       -6.9082 kcal/mol
 total RMSD          :         0.8592528 a0        0.4547 Å
 total power (kW/mol):        -1.0705103 (step) -113.0780 (real)
------------------------------------------------------------------------

 ANCopt (total)                0 d,  0 h,  0 min,  0.256 sec
 optimizer setup                ...        0 min,  0.000 sec (  0.045%)
 model hessian                  ...        0 min,  0.010 sec (  4.077%)
 ANC generation                 ...        0 min,  0.001 sec (  0.529%)
 coordinate transformation      ...        0 min,  0.000 sec (  0.184%)
 single point calculation       ...        0 min,  0.234 sec ( 91.420%)
 optimization log               ...        0 min,  0.003 sec (  1.163%)
 hessian update                 ...        0 min,  0.001 sec (  0.369%)
 rational function              ...        0 min,  0.003 sec (  1.257%)

================
 final structure:
================
19
 xtb: 6.5.1 (fef0646)
N            1.10279527814882        0.02086261009259        0.30671861713599
C            2.56539310778852       -0.11122108519324        0.15253584537559
C            3.02810825756693        0.64544288110305       -1.08637968151601
C            4.52853621351711        0.47900741875319       -1.31154696545022
C            4.98322081761620        1.19816974363430       -2.58219468689734
O            6.35941628693066        1.02587443498346       -2.85154243644289
Cl          -0.29502888729394       -0.90373633438536       -2.25171905593178
H            0.75350007957905       -0.53583307959115        1.08977189558144
H            0.62118645482502       -0.31567850458126       -0.56622942669710
H            0.83682986004026        1.00036312766289        0.43270667031199
H            2.80836862148544       -1.16721965852219        0.03901541216926
H            3.06260462101875        0.27764395834715        1.04211748995108
H            2.79979159616429        1.70723333457468       -0.98494340300171
H            2.47996857790964        0.26765338028983       -1.95126394082130
H            4.77916649608437       -0.57871779515703       -1.40666128831582
H            5.07452988564096        0.88284894935688       -0.45629430889108
H            4.74234068289994        2.26836419632619       -2.51948667274527
H            4.46420679569744        0.78543746268367       -3.45129498992477
H            6.87134525437985        1.38112495962287       -2.11115907389188

 Bond Distances (Angstroems)
 ---------------------------
N1-C2=1.4766         N1-H8=1.0223         N1-H9=1.0523         N1-H10=1.0228        C2-N1=1.4766         C2-C3=1.5237         
C2-H11=1.0895        C2-H12=1.0908        C3-C2=1.5237         C3-C4=1.5263         C3-H13=1.0908        C3-H14=1.0914        
C4-C3=1.5263         C4-C5=1.5292         C4-H15=1.0912        C4-H16=1.0921        C5-C4=1.5292         C5-O6=1.4129         
C5-H17=1.0988        C5-H18=1.0932        O6-C5=1.4129         O6-H19=0.9677        H8-N1=1.0223         H9-N1=1.0523         
H10-N1=1.0228        H11-C2=1.0895        H12-C2=1.0908        H13-C3=1.0908        H14-C3=1.0914        H15-C4=1.0912        
H16-C4=1.0921        H17-C5=1.0988        H18-C5=1.0932        H19-O6=0.9677        
 C  H  Rav=1.0922 sigma=0.0027  Rmin=1.0895  Rmax=1.0988     8
 C  C  Rav=1.5264 sigma=0.0023  Rmin=1.5237  Rmax=1.5292     3
 N  H  Rav=1.0324 sigma=0.0140  Rmin=1.0223  Rmax=1.0523     3
 N  C  Rav=1.4766 sigma=0.0000  Rmin=1.4766  Rmax=1.4766     1
 O  H  Rav=0.9677 sigma=0.0000  Rmin=0.9677  Rmax=0.9677     1
 O  C  Rav=1.4129 sigma=0.0000  Rmin=1.4129  Rmax=1.4129     1

 selected bond angles (degree)
 --------------------
H8-N1-C2=111.70                H9-N1-C2=109.76                H9-N1-H8=107.75                H10-N1-C2=110.86               
H10-N1-H8=109.77               H10-N1-H9=106.83               C3-C2-N1=109.95                H11-C2-N1=108.57               
H11-C2-C3=109.20               H12-C2-N1=109.54               H12-C2-C3=110.34               H12-C2-H11=109.20              
C4-C3-C2=111.37                H13-C3-C2=110.13               H13-C3-C4=109.00               H14-C3-C2=108.66               
H14-C3-C4=109.82               H14-C3-H13=107.79              C5-C4-C3=111.32                H15-C4-C3=110.14               
H15-C4-C5=108.37               H16-C4-C3=109.61               H16-C4-C5=109.16               H16-C4-H15=108.17              
O6-C5-C4=113.00                H17-C5-C4=110.21               H17-C5-O6=110.07               H18-C5-C4=109.99               
H18-C5-O6=105.36               H18-C5-H17=108.00              H19-O6-C5=108.95               

 selected dihedral angles (degree)
 ---------------------------------
C3-C2-N1-H8=175.65            C3-C2-N1-H9= 56.20            C3-C2-N1-H10=298.42           H11-C2-N1-H8= 56.23           
H11-C2-N1-H9=296.79           H11-C2-N1-H10=179.01          H12-C2-N1-H8=297.07           H12-C2-N1-H9=177.62           
H12-C2-N1-H10= 59.84          C4-C3-C2-N1=182.52            C4-C3-C2-H11=301.55           C4-C3-C2-H12= 61.58           
H13-C3-C2-N1= 61.46           H13-C3-C2-H11=180.49          H13-C3-C2-H12=300.53          H14-C3-C2-N1=303.61           
H14-C3-C2-H11= 62.63          H14-C3-C2-H12=182.67          C5-C4-C3-C2=178.01            C5-C4-C3-H13=299.72           
C5-C4-C3-H14= 57.60           H15-C4-C3-C2= 57.78           H15-C4-C3-H13=179.49          H15-C4-C3-H14=297.37          
H16-C4-C3-C2=298.87           H16-C4-C3-H13= 60.59          H16-C4-C3-H14=178.46          O6-C5-C4-C3=182.19            
O6-C5-C4-H15=303.46           O6-C5-C4-H16= 61.06           H17-C5-C4-C3= 58.58           H17-C5-C4-H15=179.85          
H17-C5-C4-H16=297.45          H18-C5-C4-C3=299.61           H18-C5-C4-H15= 60.88          H18-C5-C4-H16=178.48          
H19-O6-C5-C4=299.80           H19-O6-C5-H17= 63.48          H19-O6-C5-H18=179.68          

 CMA Distance (Angstroems)
 ---------------------------
R(CMA):  4.4205
           -------------------------------------------------
          |                Final Singlepoint                |
           -------------------------------------------------

          ...................................................
          :                      SETUP                      :
          :.................................................:
          :  # basis functions                  46          :
          :  # atomic orbitals                  45          :
          :  # shells                           27          :
          :  # electrons                        46          :
          :  max. iterations                   250          :
          :  Hamiltonian                  GFN2-xTB          :
          :  restarted?                      false          :
          :  GBSA solvation                   true          :
          :  PC potential                    false          :
          :  electronic temp.          300.0000000     K    :
          :  accuracy                    1.0000000          :
          :  -> integral cutoff          0.2500000E+02      :
          :  -> integral neglect         0.1000000E-07      :
          :  -> SCF convergence          0.1000000E-05 Eh   :
          :  -> wf. convergence          0.1000000E-03 e    :
          :  Broyden damping             0.4000000          :
          ...................................................

 iter      E             dE          RMSdq      gap      omega  full diag
   1    -26.5112930 -0.265113E+02  0.120E-04   10.07       0.0  T
   2    -26.5112930 -0.289013E-10  0.956E-05   10.07     240.1  T
   3    -26.5112930 -0.474394E-10  0.368E-05   10.07     623.3  T

   *** convergence criteria satisfied after 3 iterations ***

         #    Occupation            Energy/Eh            Energy/eV
      -------------------------------------------------------------
         1        2.0000           -1.0064820             -27.3878
       ...           ...                  ...                  ...
        17        2.0000           -0.4513132             -12.2809
        18        2.0000           -0.4389483             -11.9444
        19        2.0000           -0.4250192             -11.5654
        20        2.0000           -0.4079297             -11.1003
        21        2.0000           -0.4029059             -10.9636
        22        2.0000           -0.4005484             -10.8995
        23        2.0000           -0.4002014             -10.8900 (HOMO)
        24                         -0.0299720              -0.8156 (LUMO)
        25                          0.0453345               1.2336
        26                          0.0777045               2.1144
        27                          0.0891681               2.4264
        28                          0.0982758               2.6742
       ...                                ...                  ...
        45                          0.3133009               8.5254
      -------------------------------------------------------------
                  HL-Gap            0.3702294 Eh           10.0745 eV
             Fermi-level           -0.2150867 Eh           -5.8528 eV

 SCC (total)                   0 d,  0 h,  0 min,  0.005 sec
 SCC setup                      ...        0 min,  0.000 sec (  3.215%)
 Dispersion                     ...        0 min,  0.000 sec (  2.017%)
 classical contributions        ...        0 min,  0.000 sec (  0.580%)
 integral evaluation            ...        0 min,  0.001 sec ( 14.396%)
 iterations                     ...        0 min,  0.002 sec ( 43.539%)
 molecular gradient             ...        0 min,  0.001 sec ( 33.041%)
 printout                       ...        0 min,  0.000 sec (  1.688%)

         :::::::::::::::::::::::::::::::::::::::::::::::::::::
         ::                     SUMMARY                     ::
         :::::::::::::::::::::::::::::::::::::::::::::::::::::
         :: total energy             -26.258033989009 Eh    ::
         :: total w/o Gsasa/hb       -26.246578767475 Eh    ::
         :: gradient norm              0.000281852344 Eh/a0 ::
         :: HOMO-LUMO gap             10.074456074087 eV    ::
         ::.................................................::
         :: SCC energy               -26.511292968169 Eh    ::
         :: -> isotropic ES            0.154884068447 Eh    ::
         :: -> anisotropic ES         -0.029262003711 Eh    ::
         :: -> anisotropic XC         -0.000537972736 Eh    ::
         :: -> dispersion             -0.010074327336 Eh    ::
         :: -> Gsolv                  -0.083387906390 Eh    ::
         ::    -> Gelec               -0.071932684857 Eh    ::
         ::    -> Gsasa                0.000645342988 Eh    ::
         ::    -> Ghb                 -0.013181324220 Eh    ::
         ::    -> Gshift               0.001080759698 Eh    ::
         :: repulsion energy           0.253241286975 Eh    ::
         :: add. restraining           0.000000000000 Eh    ::
         :: total charge               0.000000000000 e     ::
         :::::::::::::::::::::::::::::::::::::::::::::::::::::

           -------------------------------------------------
          |                Property Printout                |
           -------------------------------------------------

    * Orbital Energies and Occupations

         #    Occupation            Energy/Eh            Energy/eV
      -------------------------------------------------------------
         1        2.0000           -1.0064820             -27.3878
       ...           ...                  ...                  ...
        11        2.0000           -0.5368930             -14.6096
        12        2.0000           -0.5186106             -14.1121
        13        2.0000           -0.5087107             -13.8427
        14        2.0000           -0.4980284             -13.5520
        15        2.0000           -0.4709849             -12.8162
        16        2.0000           -0.4613544             -12.5541
        17        2.0000           -0.4513132             -12.2809
        18        2.0000           -0.4389483             -11.9444
        19        2.0000           -0.4250192             -11.5654
        20        2.0000           -0.4079297             -11.1003
        21        2.0000           -0.4029059             -10.9636
        22        2.0000           -0.4005484             -10.8995
        23        2.0000           -0.4002014             -10.8900 (HOMO)
        24                         -0.0299720              -0.8156 (LUMO)
        25                          0.0453345               1.2336
        26                          0.0777045               2.1144
        27                          0.0891681               2.4264
        28                          0.0982758               2.6742
        29                          0.1151831               3.1343
        30                          0.1171335               3.1874
        31                          0.1182672               3.2182
        32                          0.1194339               3.2500
        33                          0.1201621               3.2698
        34                          0.1353229               3.6823
       ...                                ...                  ...
        45                          0.3133009               8.5254
      -------------------------------------------------------------
                  HL-Gap            0.3702294 Eh           10.0745 eV
             Fermi-level           -0.2150867 Eh           -5.8528 eV

     #   Z          covCN         q      C6AA      α(0)
     1   7 N        3.484    -0.170    24.676     7.378
     2   6 C        3.733    -0.027    21.144     6.563
     3   6 C        3.804    -0.080    22.022     6.681
     4   6 C        3.801    -0.081    22.047     6.685
     5   6 C        3.675     0.079    19.482     6.325
     6   8 O        1.654    -0.525    23.438     6.535
     7  17 Cl       0.049    -0.948   124.895    17.008
     8   1 H        0.859     0.306     0.697     1.308
     9   1 H        0.905     0.294     0.728     1.335
    10   1 H        0.859     0.298     0.720     1.329
    11   1 H        0.925     0.099     1.794     2.095
    12   1 H        0.924     0.108     1.713     2.047
    13   1 H        0.924     0.063     2.169     2.303
    14   1 H        0.924     0.056     2.241     2.341
    15   1 H        0.924     0.052     2.291     2.367
    16   1 H        0.924     0.057     2.231     2.336
    17   1 H        0.923     0.025     2.665     2.553
    18   1 H        0.924     0.036     2.497     2.471
    19   1 H        0.805     0.358     0.570     1.186

 Mol. C6AA /au·bohr⁶  :       2960.930032
 Mol. C8AA /au·bohr⁸  :      72035.589055
 Mol. α(0) /au        :         80.845819


Wiberg/Mayer (AO) data.
largest (>0.10) Wiberg bond orders for each atom

 ---------------------------------------------------------------------------
     #   Z sym  total        # sym  WBO       # sym  WBO       # sym  WBO
 ---------------------------------------------------------------------------
     1   7 N    3.644 --     2 C    0.970    10 H    0.896     8 H    0.893
                             9 H    0.833
     2   6 C    3.931 --     3 C    1.010     1 N    0.970    11 H    0.968
                            12 H    0.967
     3   6 C    3.992 --     2 C    1.010     4 C    1.005    13 H    0.973
                            14 H    0.973
     4   6 C    3.994 --     3 C    1.005     5 C    0.998    15 H    0.976
                            16 H    0.974
     5   6 C    3.950 --     4 C    0.998     6 O    0.993    18 H    0.974
                            17 H    0.971
     6   8 O    1.906 --     5 C    0.993    19 H    0.858
     7  17 Cl   0.102
     8   1 H    0.906 --     1 N    0.893
     9   1 H    0.914 --     1 N    0.833
    10   1 H    0.911 --     1 N    0.896
    11   1 H    0.990 --     2 C    0.968
    12   1 H    0.988 --     2 C    0.967
    13   1 H    0.996 --     3 C    0.973
    14   1 H    0.997 --     3 C    0.973
    15   1 H    0.997 --     4 C    0.976
    16   1 H    0.997 --     4 C    0.974
    17   1 H    0.999 --     5 C    0.971
    18   1 H    0.999 --     5 C    0.974
    19   1 H    0.872 --     6 O    0.858
 ---------------------------------------------------------------------------

Topologies differ in total number of bonds
Writing topology from bond orders to xtbtopo.mol

molecular dipole:
                 x           y           z       tot (Debye)
 q only:        2.521       1.887       5.217
   full:        2.002       1.764       4.745      13.837
molecular quadrupole (traceless):
                xx          xy          yy          xz          yz          zz
 q only:       15.900       2.888       8.022      11.702     -10.173     -23.923
  q+dip:        9.559       5.382       9.975      17.415      -6.832     -19.534
   full:       10.849       5.313       8.984      16.917      -7.190     -19.833

           -------------------------------------------------
          |                Geometry Summary                 |
           -------------------------------------------------

      molecular mass/u    :      125.5972783
   center of mass at/Å    :        2.6096499       0.1373172      -1.5133260
  moments of inertia/u·Å² :        0.1774718E+03   0.8114948E+03   0.9566478E+03
rotational constants/cm⁻¹ :        0.9498764E-01   0.2077355E-01   0.1762157E-01

 * 17 selected distances

     #   Z          #   Z                                           value/Å
     1   7 N        2   6 C                                       1.4766216
     2   6 C        3   6 C                                       1.5236659
     3   6 C        4   6 C                                       1.5263307
     4   6 C        5   6 C                                       1.5292085 (max)
     5   6 C        6   8 O                                       1.4128511
     1   7 N        8   1 H                                       1.0222964
     1   7 N        9   1 H                                       1.0522573
     1   7 N       10   1 H                                       1.0227571
     2   6 C       11   1 H                                       1.0895215
     2   6 C       12   1 H                                       1.0907754
     3   6 C       13   1 H                                       1.0907873
     3   6 C       14   1 H                                       1.0914243
     4   6 C       15   1 H                                       1.0911669
     4   6 C       16   1 H                                       1.0920872
     5   6 C       17   1 H                                       1.0987593
     5   6 C       18   1 H                                       1.0931876
     6   8 O       19   1 H                                       0.9676993 (min)

 * 6 distinct bonds (by element types)

   Z      Z             #   av. dist./Å        max./Å        min./Å
   1 H    6 C           8     1.0922137     1.0987593     1.0895215
   6 C    6 C           3     1.5264017     1.5292085     1.5236659
   1 H    7 N           3     1.0324369     1.0522573     1.0222964
   6 C    7 N           1     1.4766216     1.4766216     1.4766216
   1 H    8 O           1     0.9676993     0.9676993     0.9676993
   6 C    8 O           1     1.4128511     1.4128511     1.4128511


optimized geometry written to: xtbopt.xyz


           -------------------------------------------------
          | TOTAL ENERGY              -26.258033989009 Eh   |
          | GRADIENT NORM               0.000281852344 Eh/α |
          | HOMO-LUMO GAP              10.074456074087 eV   |
           -------------------------------------------------

------------------------------------------------------------------------
 * finished run on 2023/01/24 at 16:45:04.286     
------------------------------------------------------------------------
 total:
 * wall-time:     0 d,  0 h,  0 min,  0.305 sec
 *  cpu-time:     0 d,  0 h,  0 min, 26.827 sec
 * ratio c/w:    87.950 speedup
 SCF:
 * wall-time:     0 d,  0 h,  0 min,  0.020 sec
 *  cpu-time:     0 d,  0 h,  0 min,  2.497 sec
 * ratio c/w:   125.154 speedup
 ANC optimizer:
 * wall-time:     0 d,  0 h,  0 min,  0.261 sec
 *  cpu-time:     0 d,  0 h,  0 min, 21.570 sec
 * ratio c/w:    82.644 speedup

