 Entering Gaussian System
 *********************************************
 Gaussian 98:
 frequency output generated by the xtb code
 *********************************************
                         Standard orientation:
 --------------------------------------------------------------------
  Center     Atomic     Atomic              Coordinates (Angstroms)
  Number     Number      Type              X           Y           Z
 --------------------------------------------------------------------
    1          7             0       -4.579902    0.060233   -0.571694
    2          6             0       -3.104083   -0.100035   -0.725039
    3          6             0       -2.334267    0.274173    0.537858
    4          6             0       -0.848848    0.101305    0.399963
    5          6             0       -0.040444    1.158450    0.003688
    6          6             0        1.319795    0.999233   -0.142866
    7          6             0        1.922019   -0.235440    0.098254
    8          8             0        3.283228   -0.503717   -0.021181
    9          6             0        4.097532    0.582148   -0.395305
   10          6             0        1.103505   -1.295465    0.489248
   11          6             0       -0.254284   -1.130268    0.634903
   12          1             0       -4.827266    1.035215   -0.347415
   13          1             0       -4.941523   -0.533094    0.189468
   14          1             0       -5.085257   -0.197946   -1.433262
   15          1             0       -2.755503    0.512052   -1.565381
   16          1             0       -2.877400   -1.136407   -1.002148
   17          1             0       -2.691977   -0.327934    1.380100
   18          1             0       -2.556851    1.310625    0.811847
   19          1             0       -0.490070    2.119272   -0.187672
   20          1             0        1.921968    1.837669   -0.446680
   21          1             0        3.800420    0.943078   -1.382055
   22          1             0        5.127480    0.219442   -0.440608
   23          1             0        4.027049    1.371060    0.356554
   24          1             0        1.568241   -2.250227    0.676049
   25          1             0       -0.867067   -1.963584    0.938697
 --------------------------------------------------------------------
     1 basis functions        1 primitive gaussians
     1 alpha electrons        1 beta electrons

 Harmonic frequencies (cm**-1), IR intensities (km*mol⁻¹),
 Raman scattering activities (A**4/amu), Raman depolarization ratios,
 reduced masses (AMU), force constants (mDyne/A) and normal coordinates:
                      1                      2                      3
                        a                      a                      a 
 Frequencies --   -21.1375                68.4953                92.1281
 Red. masses --     8.6231                 9.7724                 7.4678
 Frc consts  --     0.0000                 0.0000                 0.0000
 IR Inten    --     5.6326                13.9232                13.6399
 Raman Activ --     0.0000                 0.0000                 0.0000
 Depolar     --     0.0000                 0.0000                 0.0000
 Atom AN      X      Y      Z        X      Y      Z        X      Y      Z
   1   7    -0.04  -0.27   0.14    -0.14   0.14   0.30     0.04   0.48  -0.17
   2   6    -0.04  -0.29   0.12    -0.16   0.03   0.06    -0.02  -0.42   0.14
   3   6     0.02   0.31  -0.10     0.03  -0.05  -0.03    -0.00  -0.11   0.04
   4   6     0.01   0.20  -0.09     0.02  -0.08  -0.18    -0.00  -0.10   0.04
   5   6     0.12   0.18   0.10    -0.02  -0.12  -0.35    -0.05  -0.06   0.05
   6   6     0.11   0.08   0.13    -0.01  -0.09  -0.31    -0.04  -0.00   0.03
   7   6    -0.01  -0.01  -0.04     0.03  -0.03  -0.11     0.01   0.02  -0.01
   8   8    -0.03  -0.11  -0.03     0.06   0.02   0.02     0.02   0.08  -0.04
   9   6     0.08  -0.10   0.19     0.11   0.15   0.51    -0.04   0.12  -0.04
  10   6    -0.12   0.00  -0.24     0.05  -0.02  -0.04     0.05  -0.02  -0.02
  11   6    -0.11   0.11  -0.25     0.05  -0.04  -0.06     0.05  -0.08   0.01
  12   1    -0.01  -0.04  -0.09    -0.01   0.04   0.10     0.15   0.21  -0.23
  13   1     0.00   0.03   0.12    -0.02   0.04   0.09    -0.11   0.32   0.05
  14   1    -0.02  -0.19   0.08    -0.08   0.06   0.10     0.01   0.05  -0.02
  15   1    -0.03  -0.19  -0.05    -0.07   0.01   0.01     0.12  -0.29  -0.04
  16   1    -0.01  -0.12   0.17    -0.08   0.01   0.00    -0.15  -0.19   0.20
  17   1     0.01   0.21   0.06     0.03  -0.02  -0.00     0.00   0.04   0.06
  18   1     0.02   0.13  -0.17     0.03  -0.01   0.01     0.00  -0.01  -0.07
  19   1     0.06   0.07   0.07    -0.01  -0.05  -0.14    -0.02  -0.02   0.02
  20   1     0.06   0.02   0.08    -0.01  -0.03  -0.12    -0.02   0.01   0.01
  21   1     0.04   0.04   0.08     0.11   0.11   0.15    -0.03   0.04  -0.00
  22   1     0.01  -0.06   0.04     0.04   0.06   0.20    -0.01   0.05  -0.02
  23   1     0.04  -0.07   0.10    -0.04  -0.01   0.20    -0.01   0.03  -0.00
  24   1    -0.06  -0.02  -0.11     0.02   0.00   0.02     0.03  -0.00  -0.01
  25   1    -0.06   0.03  -0.11     0.02  -0.00   0.01     0.02  -0.03   0.00
                      4                      5                      6
                        a                      a                      a 
 Frequencies --   114.8811               197.4387               208.5316
 Red. masses --    10.9452                 9.6752                 2.7524
 Frc consts  --     0.0000                 0.0000                 0.0000
 IR Inten    --     3.3090                 4.9122                 0.3915
 Raman Activ --     0.0000                 0.0000                 0.0000
 Depolar     --     0.0000                 0.0000                 0.0000
 Atom AN      X      Y      Z        X      Y      Z        X      Y      Z
   1   7     0.21  -0.11  -0.26     0.15  -0.04  -0.06     0.00  -0.04   0.04
   2   6     0.24   0.02   0.10     0.18   0.09   0.23     0.02   0.25  -0.12
   3   6    -0.01   0.07   0.23     0.05   0.10   0.28     0.02   0.04  -0.06
   4   6    -0.01   0.08   0.26     0.00   0.02   0.06     0.01  -0.07   0.01
   5   6    -0.05   0.03   0.03    -0.03  -0.03  -0.12     0.02  -0.07   0.03
   6   6    -0.08  -0.04  -0.19    -0.06  -0.08  -0.23     0.01  -0.07   0.04
   7   6    -0.10  -0.06  -0.23    -0.05  -0.03  -0.02     0.01  -0.07   0.02
   8   8    -0.14  -0.11  -0.43     0.00   0.11   0.45     0.03   0.01  -0.06
   9   6    -0.03   0.05   0.26    -0.11   0.04  -0.04    -0.11   0.13  -0.01
  10   6    -0.07  -0.00  -0.02    -0.09  -0.10  -0.28     0.02  -0.07   0.06
  11   6    -0.03   0.07   0.24    -0.08  -0.07  -0.25     0.01  -0.06   0.05
  12   1     0.02  -0.03  -0.09    -0.00  -0.01  -0.08    -0.11   0.07  -0.46
  13   1     0.02  -0.03  -0.09     0.02   0.02  -0.01     0.15   0.33   0.35
  14   1     0.12  -0.04  -0.10     0.10  -0.07  -0.03    -0.05  -0.51   0.19
  15   1     0.11   0.01   0.05     0.08   0.03   0.08    -0.04   0.12  -0.01
  16   1     0.11   0.01   0.05     0.09   0.03   0.08     0.04   0.09  -0.08
  17   1    -0.02   0.02   0.06     0.02   0.03   0.08    -0.02  -0.02  -0.05
  18   1    -0.02   0.02   0.06     0.02   0.03   0.09     0.03   0.00   0.03
  19   1    -0.01   0.01   0.01    -0.01  -0.01  -0.03     0.01  -0.02   0.01
  20   1    -0.03  -0.02  -0.10    -0.02  -0.04  -0.11    -0.00  -0.02   0.02
  21   1     0.05   0.16   0.11     0.04  -0.21  -0.12    -0.07   0.06   0.02
  22   1    -0.01   0.01   0.07    -0.00   0.07   0.18    -0.02   0.07  -0.04
  23   1    -0.04  -0.09   0.18    -0.17   0.16  -0.18    -0.04   0.01   0.02
  24   1    -0.02  -0.00  -0.01    -0.03  -0.04  -0.12     0.00  -0.02   0.02
  25   1    -0.00   0.04   0.12    -0.03  -0.03  -0.11     0.00  -0.02   0.02
                      7                      8                      9
                        a                      a                      a 
 Frequencies --   226.3753               282.2552               284.2952
 Red. masses --     8.1738                 8.6024                 5.5026
 Frc consts  --     0.0000                 0.0000                 0.0000
 IR Inten    --     2.0862                12.0002                 3.4504
 Raman Activ --     0.0000                 0.0000                 0.0000
 Depolar     --     0.0000                 0.0000                 0.0000
 Atom AN      X      Y      Z        X      Y      Z        X      Y      Z
   1   7     0.09   0.02   0.08    -0.37  -0.08  -0.31    -0.28  -0.02  -0.12
   2   6     0.06   0.01  -0.06    -0.21   0.14   0.28    -0.21   0.03  -0.01
   3   6     0.09   0.30  -0.17    -0.06   0.18   0.22    -0.08   0.08  -0.05
   4   6     0.05  -0.04  -0.02    -0.04  -0.05  -0.03    -0.02  -0.00   0.10
   5   6     0.12  -0.10   0.01     0.04  -0.13  -0.09     0.08  -0.01   0.25
   6   6     0.08  -0.20   0.07     0.07  -0.10   0.02     0.06  -0.07   0.02
   7   6     0.01  -0.23   0.06     0.15  -0.05   0.05     0.11  -0.07  -0.09
   8   8     0.06   0.00  -0.05     0.22   0.05   0.05     0.15  -0.03  -0.20
   9   6    -0.41   0.37  -0.04     0.12   0.08  -0.06     0.11   0.07   0.00
  10   6    -0.04  -0.19   0.09     0.07  -0.03  -0.02     0.07   0.00   0.05
  11   6    -0.05  -0.08   0.05     0.04  -0.03  -0.03     0.06   0.01   0.09
  12   1     0.05  -0.03   0.19    -0.19  -0.04  -0.12    -0.10  -0.01  -0.04
  13   1     0.02  -0.11  -0.08    -0.18  -0.05  -0.14    -0.09  -0.01  -0.04
  14   1     0.01   0.16  -0.02     0.05  -0.04  -0.16    -0.04  -0.02  -0.05
  15   1    -0.00  -0.04  -0.06    -0.04   0.03   0.08    -0.07  -0.00  -0.01
  16   1     0.02  -0.01   0.03    -0.02   0.04   0.10    -0.06   0.00   0.01
  17   1    -0.03   0.20   0.01    -0.00   0.09   0.09    -0.04   0.06   0.00
  18   1     0.09   0.13  -0.17     0.05   0.07   0.04     0.00   0.04  -0.05
  19   1     0.06  -0.02  -0.01     0.03  -0.03  -0.04     0.04   0.01   0.11
  20   1     0.03  -0.06   0.03     0.01  -0.01   0.03     0.00  -0.02  -0.03
  21   1    -0.20   0.11   0.01    -0.14   0.16   0.09     0.32  -0.23  -0.18
  22   1    -0.08   0.23  -0.07     0.01  -0.02  -0.26     0.09   0.14   0.43
  23   1    -0.18   0.07   0.02     0.21  -0.07   0.10    -0.32   0.17  -0.20
  24   1    -0.04  -0.06   0.03     0.00  -0.02  -0.00     0.01  -0.01   0.02
  25   1    -0.04  -0.01   0.02     0.03  -0.02  -0.00     0.03  -0.01   0.03
                     10                     11                     12
                        a                      a                      a 
 Frequencies --   337.1917               377.6549               383.0925
 Red. masses --     8.6882                 9.5443                 9.9571
 Frc consts  --     0.0000                 0.0000                 0.0000
 IR Inten    --     1.6694                 0.9528                 2.9794
 Raman Activ --     0.0000                 0.0000                 0.0000
 Depolar     --     0.0000                 0.0000                 0.0000
 Atom AN      X      Y      Z        X      Y      Z        X      Y      Z
   1   7    -0.09   0.00  -0.07     0.03  -0.01  -0.03     0.03  -0.02  -0.05
   2   6    -0.06  -0.08   0.09     0.04   0.04   0.11     0.07   0.08   0.19
   3   6     0.02  -0.33   0.13     0.08   0.04   0.06     0.14   0.07   0.09
   4   6     0.08   0.30  -0.17     0.02  -0.09  -0.19     0.05  -0.16  -0.32
   5   6     0.20   0.24  -0.10     0.02   0.06   0.24    -0.07  -0.10  -0.36
   6   6     0.20  -0.06   0.05    -0.05  -0.01  -0.24     0.03   0.22   0.42
   7   6     0.06  -0.14   0.05    -0.04   0.07   0.09    -0.07   0.13   0.17
   8   8     0.05  -0.19  -0.03    -0.11  -0.04  -0.14    -0.20  -0.07  -0.25
   9   6    -0.27   0.08   0.02    -0.05  -0.03   0.02    -0.09  -0.07   0.02
  10   6    -0.06  -0.02   0.08     0.08   0.13   0.51     0.04   0.02   0.05
  11   6    -0.02   0.28  -0.09    -0.05  -0.17  -0.45     0.04  -0.09   0.02
  12   1    -0.02   0.01  -0.06    -0.01  -0.01  -0.02    -0.03  -0.01  -0.04
  13   1    -0.07   0.02  -0.02    -0.01  -0.01  -0.02    -0.03  -0.01  -0.03
  14   1     0.01  -0.02  -0.03     0.04  -0.01  -0.03     0.07  -0.02  -0.04
  15   1     0.01   0.00   0.06     0.02   0.01   0.03     0.03   0.02   0.06
  16   1    -0.04  -0.02  -0.02     0.02   0.01   0.04     0.04   0.02   0.07
  17   1     0.15  -0.27  -0.03     0.03   0.03   0.04     0.07   0.05   0.06
  18   1    -0.13  -0.17   0.21     0.06   0.02   0.01     0.11   0.03   0.02
  19   1     0.12   0.09  -0.04     0.00   0.04   0.18    -0.07  -0.06  -0.17
  20   1     0.09  -0.04   0.03    -0.03  -0.02  -0.15     0.02   0.09   0.22
  21   1    -0.11   0.00   0.01     0.01   0.02   0.01     0.10  -0.08  -0.06
  22   1    -0.04   0.13   0.01    -0.02  -0.02   0.01    -0.01   0.01   0.18
  23   1    -0.16   0.01   0.01    -0.02  -0.03   0.03    -0.15   0.02  -0.05
  24   1    -0.07  -0.03   0.05     0.06   0.08   0.27     0.05   0.02  -0.01
  25   1    -0.05   0.11  -0.02    -0.03  -0.08  -0.25     0.02  -0.01   0.05
                     13                     14                     15
                        a                      a                      a 
 Frequencies --   440.9334               504.0273               535.1418
 Red. masses --    10.8264                 9.4559                10.7787
 Frc consts  --     0.0000                 0.0000                 0.0000
 IR Inten    --     2.4294                 2.5324                 8.4969
 Raman Activ --     0.0000                 0.0000                 0.0000
 Depolar     --     0.0000                 0.0000                 0.0000
 Atom AN      X      Y      Z        X      Y      Z        X      Y      Z
   1   7    -0.19  -0.01  -0.07     0.03   0.00  -0.00    -0.16   0.00  -0.04
   2   6    -0.11   0.03   0.02     0.03   0.02   0.09    -0.07  -0.00  -0.01
   3   6     0.21  -0.01  -0.09     0.12  -0.02  -0.00     0.24  -0.05  -0.09
   4   6     0.24  -0.10   0.03     0.02  -0.06  -0.43     0.30   0.11   0.22
   5   6     0.11   0.06   0.16     0.02   0.12   0.12     0.10   0.17  -0.04
   6   6     0.08   0.24  -0.19    -0.05  -0.09   0.04     0.02  -0.06  -0.06
   7   6    -0.07   0.15  -0.24    -0.21  -0.22  -0.41    -0.20  -0.04   0.33
   8   8    -0.22  -0.16   0.23    -0.09   0.29   0.13    -0.32   0.32  -0.12
   9   6    -0.35  -0.15   0.09     0.17   0.07  -0.03     0.10   0.04  -0.03
  10   6     0.18   0.06  -0.15    -0.09  -0.19   0.06    -0.01  -0.34   0.03
  11   6     0.24  -0.09   0.17    -0.06   0.01   0.16     0.04  -0.08   0.03
  12   1    -0.09  -0.01  -0.03    -0.01  -0.00  -0.01    -0.06  -0.00  -0.03
  13   1    -0.08  -0.01  -0.04    -0.01  -0.00  -0.01    -0.07  -0.00  -0.02
  14   1    -0.00  -0.02  -0.04     0.04  -0.01  -0.02    -0.00  -0.01  -0.03
  15   1    -0.05   0.01  -0.01     0.01   0.00   0.02    -0.05  -0.01  -0.02
  16   1    -0.05   0.01  -0.00     0.01   0.01   0.03    -0.05  -0.00  -0.02
  17   1     0.04   0.04  -0.00     0.09  -0.02   0.01     0.07  -0.02  -0.03
  18   1     0.10   0.01  -0.05     0.05  -0.01   0.03     0.05  -0.02  -0.01
  19   1    -0.02   0.01   0.12     0.04   0.09   0.23     0.00   0.01  -0.13
  20   1     0.01   0.09  -0.03     0.07  -0.01   0.22     0.08  -0.12  -0.16
  21   1    -0.17  -0.05   0.05     0.08   0.01  -0.02     0.13   0.05  -0.02
  22   1    -0.09   0.00  -0.03     0.01  -0.09   0.01    -0.02  -0.14   0.03
  23   1    -0.09  -0.05   0.03     0.13   0.05  -0.04     0.12   0.02  -0.01
  24   1     0.14   0.06  -0.04    -0.02  -0.01   0.21    -0.01  -0.12  -0.13
  25   1     0.09  -0.02   0.10    -0.04   0.09   0.24    -0.08  -0.00  -0.12
                     16                     17                     18
                        a                      a                      a 
 Frequencies --   608.0591               675.3349               738.6074
 Red. masses --    11.2515                11.1595                11.2111
 Frc consts  --     0.0000                 0.0000                 0.0000
 IR Inten    --     0.1011                 2.9349                48.6576
 Raman Activ --     0.0000                 0.0000                 0.0000
 Depolar     --     0.0000                 0.0000                 0.0000
 Atom AN      X      Y      Z        X      Y      Z        X      Y      Z
   1   7    -0.01  -0.00  -0.00    -0.06   0.00  -0.00     0.07  -0.01  -0.02
   2   6    -0.01  -0.02   0.01    -0.02  -0.02  -0.07    -0.02  -0.01  -0.05
   3   6     0.03  -0.06   0.01    -0.04   0.01   0.03    -0.38   0.09   0.13
   4   6     0.02  -0.10   0.03     0.09   0.13   0.48    -0.20  -0.00  -0.12
   5   6     0.36  -0.29   0.04     0.04  -0.09  -0.31     0.26  -0.24   0.05
   6   6     0.39   0.20  -0.12     0.11   0.08   0.25     0.24  -0.13  -0.07
   7   6    -0.03   0.10  -0.00    -0.09  -0.13  -0.49     0.07   0.01   0.10
   8   8    -0.03   0.09  -0.02    -0.08   0.08   0.08    -0.40   0.25  -0.03
   9   6     0.05   0.08  -0.03    -0.02  -0.01   0.01    -0.14  -0.07   0.03
  10   6    -0.38   0.25  -0.02     0.08   0.02   0.26     0.21  -0.04  -0.08
  11   6    -0.42  -0.24   0.13     0.01  -0.09  -0.31     0.24   0.16  -0.05
  12   1     0.00   0.00  -0.01    -0.00   0.00   0.01     0.07   0.00   0.03
  13   1    -0.01   0.00  -0.00    -0.00   0.00   0.01     0.08   0.00   0.03
  14   1     0.00   0.00  -0.00    -0.04   0.01   0.01    -0.07   0.02   0.04
  15   1    -0.00  -0.00   0.01    -0.01  -0.01  -0.02     0.03  -0.01  -0.00
  16   1    -0.01  -0.01  -0.01    -0.01  -0.01  -0.02     0.03  -0.00   0.02
  17   1     0.04  -0.07  -0.02    -0.06   0.00  -0.01    -0.11   0.00   0.02
  18   1    -0.02  -0.04   0.05    -0.05  -0.00  -0.01    -0.13   0.02   0.04
  19   1     0.06  -0.10   0.01     0.02  -0.02  -0.07     0.16  -0.02   0.05
  20   1     0.08   0.07  -0.04     0.06   0.04   0.17     0.08  -0.03   0.04
  21   1     0.03   0.03  -0.01     0.00  -0.01  -0.00     0.05   0.00  -0.01
  22   1     0.01  -0.01  -0.00    -0.02  -0.04   0.01    -0.09  -0.16   0.06
  23   1     0.03   0.02  -0.01     0.02   0.01  -0.01     0.05   0.00  -0.00
  24   1    -0.07   0.08  -0.02     0.05   0.04   0.17     0.06  -0.00   0.02
  25   1    -0.10  -0.08   0.03     0.01  -0.02  -0.06     0.13   0.02   0.04
                     19                     20                     21
                        a                      a                      a 
 Frequencies --   789.2209               806.4271               849.5059
 Red. masses --     2.0609                 5.5829                 9.6452
 Frc consts  --     0.0000                 0.0000                 0.0000
 IR Inten    --    26.7954                46.3283                 7.3717
 Raman Activ --     0.0000                 0.0000                 0.0000
 Depolar     --     0.0000                 0.0000                 0.0000
 Atom AN      X      Y      Z        X      Y      Z        X      Y      Z
   1   7     0.00   0.04  -0.01     0.06  -0.00   0.01     0.01   0.03   0.10
   2   6     0.02   0.20  -0.06    -0.01   0.01   0.07     0.03   0.03   0.09
   3   6     0.02   0.19  -0.07    -0.01  -0.02  -0.04     0.33  -0.10  -0.22
   4   6     0.00  -0.01   0.01    -0.07  -0.05  -0.20    -0.03   0.04   0.13
   5   6    -0.03  -0.02   0.03     0.04  -0.03   0.21    -0.03  -0.28   0.02
   6   6    -0.03   0.00   0.03     0.04   0.00   0.31    -0.15  -0.38   0.04
   7   6    -0.00   0.00  -0.02    -0.01  -0.09  -0.34     0.18  -0.01   0.01
   8   8     0.01  -0.01   0.00    -0.05   0.07   0.09    -0.17   0.12  -0.02
   9   6     0.00  -0.00   0.00    -0.02  -0.01   0.01    -0.08  -0.05   0.02
  10   6     0.02  -0.01   0.00     0.03   0.11   0.16    -0.08   0.37  -0.08
  11   6     0.01  -0.04   0.00     0.04   0.11   0.13     0.02   0.27  -0.07
  12   1    -0.22  -0.07   0.08     0.01   0.00  -0.01    -0.13  -0.01  -0.06
  13   1     0.20  -0.13  -0.02    -0.02   0.01  -0.01    -0.13  -0.02  -0.06
  14   1     0.00  -0.06   0.02     0.05  -0.00  -0.02     0.23  -0.05  -0.09
  15   1     0.07  -0.39  -0.31    -0.01   0.03   0.03    -0.05   0.00  -0.01
  16   1    -0.11  -0.11   0.48     0.01   0.01  -0.01    -0.05   0.00   0.00
  17   1     0.03  -0.28  -0.24     0.03   0.01   0.01     0.10  -0.03  -0.06
  18   1    -0.05  -0.07   0.36     0.02   0.00  -0.01     0.11  -0.03  -0.05
  19   1    -0.03  -0.03  -0.03    -0.03  -0.11  -0.38     0.07  -0.03   0.09
  20   1    -0.02  -0.00  -0.03    -0.08  -0.14  -0.47    -0.08  -0.02   0.18
  21   1    -0.01  -0.00   0.00    -0.00   0.00   0.01     0.03  -0.00  -0.00
  22   1     0.00   0.00  -0.00    -0.02  -0.04  -0.02    -0.05  -0.10   0.04
  23   1    -0.00  -0.00   0.00     0.02   0.00   0.00     0.02   0.00  -0.01
  24   1     0.02   0.00  -0.00    -0.06  -0.06  -0.28    -0.12   0.06  -0.01
  25   1     0.02  -0.02   0.01    -0.02  -0.07  -0.30     0.06   0.03  -0.06
                     22                     23                     24
                        a                      a                      a 
 Frequencies --   860.5347               870.7348               897.1676
 Red. masses --     3.5136                 2.7032                 3.1499
 Frc consts  --     0.0000                 0.0000                 0.0000
 IR Inten    --     0.8625                16.6567                 0.9678
 Raman Activ --     0.0000                 0.0000                 0.0000
 Depolar     --     0.0000                 0.0000                 0.0000
 Atom AN      X      Y      Z        X      Y      Z        X      Y      Z
   1   7     0.01   0.00  -0.01    -0.02  -0.19   0.07    -0.07  -0.01  -0.04
   2   6    -0.01   0.01  -0.00    -0.00  -0.03   0.01     0.04  -0.02  -0.05
   3   6    -0.06   0.02   0.02     0.02   0.29  -0.10     0.07   0.02   0.05
   4   6    -0.00  -0.01  -0.04     0.00   0.01   0.01     0.01  -0.00  -0.01
   5   6    -0.02  -0.01  -0.17    -0.03  -0.05   0.01    -0.05  -0.09  -0.31
   6   6    -0.00   0.01  -0.20    -0.04  -0.01  -0.00     0.01   0.02   0.25
   7   6    -0.04  -0.01  -0.07     0.00   0.02  -0.00     0.02   0.00   0.02
   8   8     0.02  -0.01   0.01     0.01  -0.00   0.00    -0.01   0.01   0.01
   9   6     0.01   0.01   0.00     0.00  -0.01   0.00    -0.01  -0.00   0.00
  10   6     0.04   0.00   0.23     0.04  -0.02   0.01    -0.00   0.06   0.06
  11   6     0.04   0.04   0.29     0.01  -0.05   0.01    -0.01  -0.00  -0.04
  12   1    -0.00  -0.00   0.01     0.45   0.09  -0.11     0.03   0.00   0.02
  13   1     0.04  -0.01   0.01    -0.44   0.20   0.01     0.03   0.01   0.02
  14   1    -0.02  -0.00   0.01     0.02   0.16  -0.06    -0.10   0.02   0.03
  15   1     0.02  -0.01  -0.00    -0.28   0.05  -0.08     0.02  -0.01  -0.01
  16   1    -0.01  -0.00   0.02     0.29   0.05   0.04     0.02  -0.01  -0.00
  17   1    -0.00  -0.00   0.01     0.08  -0.21  -0.20     0.03  -0.00   0.01
  18   1    -0.03   0.00   0.01    -0.10  -0.03   0.28     0.02   0.00   0.02
  19   1     0.03   0.08   0.28    -0.02  -0.02   0.02     0.10   0.17   0.64
  20   1     0.07   0.11   0.38    -0.02   0.01   0.02    -0.08  -0.13  -0.47
  21   1    -0.01  -0.01  -0.00    -0.00  -0.00   0.00     0.00   0.01   0.00
  22   1     0.01   0.02   0.01     0.00   0.00  -0.00    -0.01  -0.01  -0.02
  23   1    -0.00   0.01  -0.00    -0.00  -0.00   0.00     0.00  -0.01   0.01
  24   1    -0.04  -0.12  -0.42     0.03   0.00  -0.01    -0.04  -0.05  -0.24
  25   1    -0.08  -0.15  -0.54     0.02  -0.03  -0.00     0.03   0.05   0.18
                     25                     26                     27
                        a                      a                      a 
 Frequencies --   905.6056               919.7592               984.3310
 Red. masses --     6.5014                 3.6664                10.3923
 Frc consts  --     0.0000                 0.0000                 0.0000
 IR Inten    --    56.1535                 1.0691                20.4073
 Raman Activ --     0.0000                 0.0000                 0.0000
 Depolar     --     0.0000                 0.0000                 0.0000
 Atom AN      X      Y      Z        X      Y      Z        X      Y      Z
   1   7     0.34   0.05   0.22    -0.01  -0.00  -0.01    -0.45   0.11   0.22
   2   6    -0.17   0.07   0.18     0.01  -0.00  -0.00     0.69  -0.07  -0.06
   3   6    -0.26  -0.07  -0.26     0.01   0.01   0.01    -0.10  -0.01  -0.05
   4   6    -0.06   0.02   0.04     0.00   0.00   0.02    -0.07  -0.01  -0.05
   5   6     0.02   0.03  -0.09    -0.02  -0.04  -0.13     0.01  -0.05   0.02
   6   6     0.10   0.17  -0.01     0.02   0.03   0.14     0.04   0.09  -0.03
   7   6    -0.07   0.01   0.02     0.00   0.00   0.01    -0.03   0.00   0.00
   8   8     0.04  -0.03   0.00    -0.00  -0.00  -0.01     0.00  -0.02   0.00
   9   6     0.02   0.01  -0.01    -0.00  -0.00  -0.00     0.02   0.01  -0.01
  10   6     0.06  -0.18   0.03    -0.05  -0.08  -0.33     0.02  -0.09   0.02
  11   6     0.02  -0.05  -0.00     0.04   0.07   0.28     0.02   0.05  -0.00
  12   1    -0.19  -0.01  -0.12     0.01   0.00   0.00    -0.25   0.01  -0.03
  13   1    -0.18  -0.04  -0.11     0.00   0.00   0.00    -0.24   0.00  -0.03
  14   1     0.54  -0.10  -0.17    -0.02   0.00   0.01     0.08  -0.02  -0.04
  15   1    -0.10   0.02   0.02     0.00  -0.00  -0.00     0.13  -0.00  -0.02
  16   1    -0.10   0.01   0.02     0.00  -0.00   0.00     0.13  -0.03  -0.02
  17   1    -0.12  -0.02  -0.09     0.02  -0.00   0.00    -0.09  -0.02  -0.06
  18   1    -0.12  -0.02  -0.09    -0.01   0.00   0.01    -0.10  -0.01  -0.06
  19   1     0.01   0.05   0.14     0.02   0.04   0.16    -0.02  -0.02  -0.00
  20   1     0.03   0.01  -0.11    -0.03  -0.05  -0.19    -0.01   0.03  -0.02
  21   1    -0.01   0.00   0.00     0.00   0.01   0.00    -0.01  -0.00   0.00
  22   1     0.01   0.03  -0.01    -0.00  -0.00  -0.00     0.01   0.02  -0.01
  23   1    -0.01  -0.00   0.00    -0.00  -0.01   0.01    -0.01  -0.00   0.00
  24   1     0.05  -0.04  -0.01     0.08   0.16   0.61    -0.01  -0.03   0.00
  25   1    -0.01   0.01   0.05    -0.07  -0.14  -0.52    -0.01   0.02  -0.02
                     28                     29                     30
                        a                      a                      a 
 Frequencies --  1009.1469              1045.8846              1060.9839
 Red. masses --     9.1387                 4.3634                10.7461
 Frc consts  --     0.0000                 0.0000                 0.0000
 IR Inten    --    12.2216                 7.2730                44.9128
 Raman Activ --     0.0000                 0.0000                 0.0000
 Depolar     --     0.0000                 0.0000                 0.0000
 Atom AN      X      Y      Z        X      Y      Z        X      Y      Z
   1   7     0.03  -0.02  -0.05    -0.01  -0.14   0.05     0.00   0.01  -0.01
   2   6    -0.08   0.01  -0.00     0.03   0.25  -0.09    -0.01  -0.01   0.00
   3   6     0.18  -0.03  -0.00    -0.04  -0.35   0.12     0.04   0.02  -0.01
   4   6    -0.13   0.02   0.04    -0.01  -0.12   0.01    -0.02  -0.01   0.01
   5   6     0.02  -0.42   0.10     0.02   0.14  -0.05    -0.06  -0.01   0.01
   6   6     0.04   0.31  -0.09     0.07   0.05  -0.02     0.03   0.17  -0.05
   7   6    -0.18   0.02   0.02     0.01  -0.06   0.02     0.18  -0.02  -0.02
   8   8    -0.04  -0.12   0.03     0.01   0.00  -0.00     0.42   0.37  -0.15
   9   6     0.16   0.08  -0.04    -0.03   0.02   0.00    -0.43  -0.33   0.14
  10   6    -0.01  -0.30   0.08    -0.05   0.06  -0.01     0.01  -0.15   0.04
  11   6     0.12   0.41  -0.13     0.00   0.11  -0.02    -0.08   0.02   0.01
  12   1     0.05  -0.00   0.01     0.18   0.02  -0.04    -0.01  -0.00   0.00
  13   1     0.04   0.00   0.01    -0.18   0.07   0.01     0.01  -0.00   0.00
  14   1    -0.05   0.01   0.02     0.01   0.06  -0.02    -0.01  -0.00   0.00
  15   1    -0.02  -0.01  -0.01    -0.07  -0.15  -0.21     0.00   0.01   0.01
  16   1    -0.01   0.00   0.01     0.06   0.00   0.26    -0.00   0.00  -0.02
  17   1     0.08  -0.00   0.02    -0.46   0.12  -0.01     0.04  -0.01   0.00
  18   1     0.11   0.00   0.02     0.47   0.03  -0.05    -0.01  -0.00   0.01
  19   1    -0.13  -0.17   0.08     0.03   0.05  -0.01    -0.14  -0.05   0.03
  20   1    -0.13   0.18  -0.03     0.10  -0.04  -0.00    -0.07   0.11  -0.02
  21   1    -0.04   0.00   0.01     0.02   0.00  -0.01     0.07  -0.01  -0.00
  22   1     0.07   0.12  -0.04    -0.02  -0.04   0.01    -0.17  -0.29   0.10
  23   1    -0.04   0.00  -0.00     0.03   0.01  -0.00     0.07  -0.01  -0.01
  24   1    -0.18  -0.16   0.06    -0.12  -0.03   0.02    -0.17  -0.12   0.06
  25   1    -0.09   0.20  -0.03    -0.01   0.03  -0.02    -0.10   0.06   0.00
                     31                     32                     33
                        a                      a                      a 
 Frequencies --  1094.1268              1133.5471              1142.8810
 Red. masses --     8.7686                 3.9647                 3.7546
 Frc consts  --     0.0000                 0.0000                 0.0000
 IR Inten    --    25.3013                 8.7553                 1.8152
 Raman Activ --     0.0000                 0.0000                 0.0000
 Depolar     --     0.0000                 0.0000                 0.0000
 Atom AN      X      Y      Z        X      Y      Z        X      Y      Z
   1   7     0.06   0.05   0.17    -0.01  -0.04   0.01     0.00   0.00  -0.00
   2   6    -0.11  -0.17  -0.53     0.01   0.08  -0.01     0.00  -0.00  -0.00
   3   6     0.17   0.17   0.53     0.01  -0.10   0.01    -0.00   0.00   0.00
   4   6    -0.01  -0.02  -0.09    -0.03   0.14  -0.03     0.00  -0.00  -0.00
   5   6     0.01  -0.01   0.01     0.08  -0.14   0.03    -0.00   0.00  -0.00
   6   6    -0.01  -0.01   0.01    -0.09  -0.13   0.04     0.00   0.00  -0.00
   7   6    -0.01   0.00  -0.00    -0.05   0.16  -0.03     0.00  -0.00   0.00
   8   8     0.01   0.00  -0.00     0.07   0.18  -0.06    -0.03  -0.06  -0.22
   9   6    -0.00  -0.01  -0.00     0.03  -0.22   0.06     0.05   0.11   0.41
  10   6    -0.00   0.01   0.01     0.07  -0.13   0.02    -0.00   0.00  -0.00
  11   6     0.00   0.00   0.01    -0.13  -0.03   0.03     0.00   0.00   0.00
  12   1    -0.14   0.00  -0.08     0.05   0.00  -0.01    -0.00  -0.00   0.00
  13   1    -0.15  -0.03  -0.07    -0.04   0.02   0.01    -0.00   0.00  -0.00
  14   1     0.26  -0.05  -0.08    -0.01   0.02  -0.00     0.00  -0.00  -0.00
  15   1    -0.15  -0.07  -0.21     0.03  -0.03  -0.03    -0.00   0.00   0.00
  16   1    -0.15  -0.06  -0.21    -0.02  -0.00   0.05    -0.00  -0.00  -0.00
  17   1    -0.00   0.04   0.11    -0.04   0.03   0.02     0.00  -0.00   0.00
  18   1     0.00   0.04   0.11     0.08  -0.00  -0.03    -0.00   0.00   0.00
  19   1    -0.01  -0.01  -0.02     0.33   0.09  -0.07    -0.01  -0.00   0.00
  20   1    -0.00  -0.00  -0.00    -0.25   0.12   0.00     0.00  -0.01  -0.01
  21   1    -0.00   0.00   0.00    -0.13  -0.05   0.05    -0.32  -0.50  -0.00
  22   1     0.00   0.00   0.00     0.08   0.15  -0.05    -0.03  -0.06  -0.23
  23   1    -0.00  -0.00   0.00    -0.12  -0.03  -0.01     0.29   0.42  -0.31
  24   1     0.02   0.01  -0.01     0.47   0.16  -0.11    -0.01  -0.00   0.01
  25   1    -0.02   0.01  -0.02    -0.38   0.23  -0.01     0.01  -0.01  -0.00
                     34                     35                     36
                        a                      a                      a 
 Frequencies --  1154.0847              1171.8366              1201.6177
 Red. masses --     5.9601                 7.0752                 3.9809
 Frc consts  --     0.0000                 0.0000                 0.0000
 IR Inten    --    85.5100               140.0248                 6.9138
 Raman Activ --     0.0000                 0.0000                 0.0000
 Depolar     --     0.0000                 0.0000                 0.0000
 Atom AN      X      Y      Z        X      Y      Z        X      Y      Z
   1   7    -0.01  -0.00  -0.01    -0.01   0.02  -0.01     0.02   0.26  -0.09
   2   6     0.01  -0.00   0.00     0.00  -0.03   0.01    -0.03  -0.38   0.13
   3   6     0.04  -0.01  -0.02     0.04   0.01  -0.02     0.03   0.08  -0.03
   4   6    -0.09   0.02   0.02    -0.11  -0.04   0.03    -0.05  -0.07   0.02
   5   6     0.01  -0.12   0.03     0.03  -0.06   0.01     0.03   0.04  -0.02
   6   6    -0.02  -0.00   0.00     0.02  -0.03   0.01    -0.02   0.04  -0.01
   7   6    -0.34  -0.02   0.05    -0.44   0.02   0.06    -0.01  -0.00   0.00
   8   8     0.25  -0.25   0.03     0.25   0.26  -0.10     0.01  -0.01   0.00
   9   6    -0.19   0.26  -0.04    -0.00  -0.32   0.08    -0.00   0.01  -0.00
  10   6     0.03   0.05  -0.02    -0.06   0.09  -0.01     0.01  -0.01  -0.00
  11   6     0.00   0.14  -0.04     0.08   0.13  -0.04    -0.02   0.02   0.00
  12   1     0.00  -0.00   0.00    -0.02  -0.00   0.00    -0.23  -0.02   0.07
  13   1     0.00   0.00   0.00     0.02  -0.01  -0.00     0.23  -0.09  -0.03
  14   1    -0.01   0.00   0.00    -0.01  -0.00   0.00    -0.01  -0.09   0.03
  15   1     0.01   0.00   0.00    -0.02   0.01   0.01    -0.37   0.12   0.04
  16   1     0.00   0.00  -0.00     0.03   0.00  -0.01     0.38   0.02  -0.09
  17   1     0.04  -0.00   0.00     0.04  -0.01  -0.00    -0.28  -0.08  -0.19
  18   1     0.04   0.00   0.01     0.05   0.00   0.02     0.30   0.02   0.21
  19   1    -0.03  -0.05   0.02    -0.05  -0.04   0.02     0.19   0.09  -0.04
  20   1     0.16  -0.12   0.01     0.40  -0.29   0.02    -0.05   0.04  -0.00
  21   1     0.25   0.07  -0.09    -0.13  -0.06   0.05     0.01   0.00  -0.00
  22   1    -0.18  -0.35   0.11     0.13   0.29  -0.09    -0.01  -0.01   0.00
  23   1     0.26   0.09  -0.01    -0.14  -0.07   0.01     0.01   0.00  -0.00
  24   1     0.42   0.20  -0.11     0.05   0.06  -0.02    -0.01  -0.01   0.00
  25   1    -0.06   0.08  -0.01     0.25  -0.12  -0.00    -0.03   0.02  -0.01
                     37                     38                     39
                        a                      a                      a 
 Frequencies --  1205.6127              1246.5907              1253.0687
 Red. masses --     3.0723                 2.4993                 9.0094
 Frc consts  --     0.0000                 0.0000                 0.0000
 IR Inten    --    22.3521                14.4667                64.1414
 Raman Activ --     0.0000                 0.0000                 0.0000
 Depolar     --     0.0000                 0.0000                 0.0000
 Atom AN      X      Y      Z        X      Y      Z        X      Y      Z
   1   7    -0.01  -0.04   0.02    -0.00  -0.11   0.04     0.02   0.02  -0.01
   2   6     0.01   0.05  -0.04    -0.01  -0.11   0.04     0.00   0.04   0.02
   3   6     0.11  -0.03  -0.02    -0.02   0.24  -0.07    -0.20  -0.00   0.08
   4   6    -0.25   0.06   0.04     0.08  -0.14   0.02     0.54  -0.08  -0.09
   5   6     0.05   0.02  -0.01     0.02   0.00  -0.01     0.19  -0.12   0.01
   6   6    -0.07   0.11  -0.02    -0.06   0.02   0.01    -0.22  -0.11   0.06
   7   6    -0.19   0.03   0.02    -0.06   0.04  -0.00    -0.35   0.08   0.03
   8   8     0.12  -0.05  -0.00     0.02  -0.02   0.00     0.18  -0.03  -0.02
   9   6    -0.04   0.03  -0.00    -0.01   0.00   0.00    -0.03  -0.02   0.01
  10   6    -0.04  -0.11   0.03     0.03   0.06  -0.02    -0.11   0.17  -0.03
  11   6     0.03  -0.06   0.01     0.05   0.02  -0.01     0.20   0.02  -0.03
  12   1     0.04   0.00  -0.01     0.08  -0.00  -0.02    -0.01  -0.00   0.01
  13   1    -0.04   0.01   0.00    -0.08   0.02   0.02     0.02  -0.00  -0.00
  14   1     0.00   0.01  -0.01    -0.00   0.02  -0.01    -0.01  -0.00   0.01
  15   1     0.08  -0.02  -0.00     0.42   0.06   0.25    -0.11  -0.01  -0.05
  16   1    -0.07  -0.01   0.01    -0.44  -0.05  -0.26     0.06   0.01   0.05
  17   1     0.15  -0.01   0.04    -0.28  -0.11  -0.25    -0.15   0.04   0.00
  18   1     0.07   0.01  -0.03     0.20   0.02   0.27    -0.28  -0.02  -0.10
  19   1     0.56   0.23  -0.14     0.13   0.05  -0.03     0.11  -0.02  -0.01
  20   1    -0.22   0.17  -0.01     0.06  -0.05   0.01    -0.22   0.08   0.01
  21   1     0.05   0.02  -0.01     0.01   0.00  -0.00     0.03   0.02  -0.00
  22   1    -0.04  -0.09   0.03     0.00   0.01  -0.00    -0.01  -0.03   0.01
  23   1     0.05   0.02  -0.01     0.01   0.00   0.00     0.03   0.02  -0.02
  24   1    -0.13  -0.08   0.04    -0.12  -0.04   0.03    -0.26  -0.04   0.05
  25   1     0.41  -0.31   0.02    -0.13   0.11  -0.01    -0.03   0.08  -0.02
                     40                     41                     42
                        a                      a                      a 
 Frequencies --  1279.2095              1291.4668              1334.2663
 Red. masses --     3.4342                 4.1594                 4.1645
 Frc consts  --     0.0000                 0.0000                 0.0000
 IR Inten    --     0.4673                 2.3107                 8.2073
 Raman Activ --     0.0000                 0.0000                 0.0000
 Depolar     --     0.0000                 0.0000                 0.0000
 Atom AN      X      Y      Z        X      Y      Z        X      Y      Z
   1   7     0.01  -0.02  -0.02     0.07  -0.05  -0.14     0.07  -0.03  -0.07
   2   6     0.02  -0.03   0.06     0.20   0.08   0.26     0.28   0.02   0.11
   3   6     0.03   0.02   0.03     0.29   0.01   0.10    -0.39   0.00  -0.09
   4   6     0.08   0.12  -0.06    -0.16  -0.01  -0.04     0.09  -0.02   0.05
   5   6     0.15   0.08  -0.04    -0.07  -0.02   0.02     0.04   0.02  -0.01
   6   6     0.05  -0.05   0.01     0.02   0.04  -0.01    -0.02  -0.01   0.00
   7   6    -0.04  -0.29   0.08     0.05   0.05  -0.02    -0.02  -0.04   0.01
   8   8     0.01   0.08  -0.02    -0.01  -0.01   0.00     0.00   0.01   0.00
   9   6     0.04  -0.05   0.01    -0.01   0.01  -0.00     0.01  -0.00   0.00
  10   6    -0.12  -0.02   0.02     0.03  -0.04   0.01     0.01   0.03  -0.01
  11   6    -0.09   0.14  -0.02    -0.02  -0.01   0.01     0.00   0.00  -0.00
  12   1     0.01  -0.00   0.00    -0.00  -0.03   0.04    -0.04  -0.04   0.05
  13   1    -0.01   0.01   0.00     0.01   0.05   0.01    -0.04   0.06   0.01
  14   1    -0.03   0.00   0.01    -0.17   0.03   0.06    -0.06   0.01   0.02
  15   1     0.02   0.02   0.04    -0.40  -0.04  -0.17    -0.37  -0.04  -0.19
  16   1    -0.14  -0.01  -0.08    -0.38  -0.02  -0.15    -0.37  -0.04  -0.19
  17   1    -0.26  -0.02  -0.12    -0.31  -0.05  -0.16     0.38   0.01   0.18
  18   1     0.05   0.01   0.03    -0.35  -0.02  -0.20     0.37   0.04   0.17
  19   1    -0.34  -0.14   0.08     0.09   0.04  -0.03    -0.03  -0.01   0.02
  20   1    -0.39   0.27  -0.02     0.12  -0.07  -0.00    -0.04   0.02   0.00
  21   1    -0.04   0.02   0.03     0.01  -0.01  -0.01     0.00   0.01   0.00
  22   1     0.01  -0.01   0.00    -0.00   0.01  -0.00     0.00   0.00  -0.00
  23   1    -0.05   0.00  -0.02     0.01  -0.01   0.01    -0.01   0.00  -0.00
  24   1     0.31   0.14  -0.08    -0.00  -0.02   0.00    -0.01   0.00   0.00
  25   1     0.36  -0.23   0.01    -0.02   0.00  -0.00    -0.02   0.02   0.01
                     43                     44                     45
                        a                      a                      a 
 Frequencies --  1350.5571              1391.1967              1398.0143
 Red. masses --    11.2334                 2.9747                 2.4572
 Frc consts  --     0.0000                 0.0000                 0.0000
 IR Inten    --     6.9075               207.3983                 1.0891
 Raman Activ --     0.0000                 0.0000                 0.0000
 Depolar     --     0.0000                 0.0000                 0.0000
 Atom AN      X      Y      Z        X      Y      Z        X      Y      Z
   1   7    -0.00  -0.00   0.00    -0.38   0.03  -0.00    -0.01   0.00  -0.00
   2   6    -0.01   0.03  -0.01     0.05   0.02   0.06     0.00   0.00   0.00
   3   6     0.04   0.03  -0.00    -0.01   0.00   0.01     0.01  -0.01   0.00
   4   6    -0.07  -0.43   0.12     0.00  -0.00  -0.01    -0.02   0.04  -0.01
   5   6     0.29   0.14  -0.08    -0.00  -0.01   0.00     0.01   0.01  -0.00
   6   6    -0.29   0.25  -0.03    -0.00   0.00  -0.00     0.01  -0.02   0.00
   7   6     0.00  -0.43   0.11     0.00   0.00  -0.00     0.04   0.02  -0.01
   8   8    -0.05   0.05  -0.00     0.00   0.00  -0.00    -0.08  -0.09   0.03
   9   6     0.03  -0.04   0.00     0.00   0.00  -0.00    -0.21  -0.23   0.08
  10   6     0.33   0.16  -0.09    -0.00  -0.00   0.00     0.04  -0.01  -0.00
  11   6    -0.27   0.19  -0.02    -0.00   0.01  -0.00    -0.03  -0.02   0.01
  12   1     0.00   0.00  -0.01     0.49   0.11   0.06     0.01   0.00   0.00
  13   1     0.00  -0.00   0.00     0.47  -0.11   0.14     0.00  -0.00  -0.00
  14   1     0.00   0.01  -0.00     0.47  -0.12  -0.25     0.01  -0.01  -0.00
  15   1     0.00  -0.01  -0.01    -0.08  -0.06  -0.08     0.00  -0.00  -0.00
  16   1     0.03   0.01   0.03    -0.08   0.01  -0.10    -0.00   0.00  -0.00
  17   1     0.12  -0.01   0.04    -0.01  -0.00  -0.00    -0.01   0.00  -0.00
  18   1    -0.16  -0.02  -0.05    -0.01   0.00  -0.00     0.01   0.00   0.00
  19   1     0.09   0.04  -0.03     0.00  -0.00  -0.00    -0.03  -0.01   0.01
  20   1    -0.00   0.02  -0.00     0.01  -0.00  -0.00    -0.04   0.02  -0.00
  21   1    -0.01  -0.00   0.01    -0.00  -0.01  -0.00     0.41   0.38   0.02
  22   1     0.03   0.05  -0.02    -0.00  -0.01   0.00     0.14   0.46  -0.13
  23   1    -0.01  -0.00  -0.00    -0.00  -0.01   0.01     0.37   0.30  -0.29
  24   1     0.03   0.02  -0.01     0.01   0.00  -0.00    -0.01  -0.01   0.00
  25   1    -0.09   0.06  -0.00     0.00  -0.00   0.00     0.00  -0.01   0.00
                     46                     47                     48
                        a                      a                      a 
 Frequencies --  1427.2020              1437.8819              1441.6918
 Red. masses --     9.8147                 1.6319                 1.6533
 Frc consts  --     0.0000                 0.0000                 0.0000
 IR Inten    --     1.8529                86.7178                74.1771
 Raman Activ --     0.0000                 0.0000                 0.0000
 Depolar     --     0.0000                 0.0000                 0.0000
 Atom AN      X      Y      Z        X      Y      Z        X      Y      Z
   1   7     0.00   0.00  -0.00     0.01   0.20  -0.07    -0.00   0.07   0.20
   2   6     0.00  -0.01   0.00     0.00   0.03  -0.01     0.03   0.02   0.06
   3   6    -0.02  -0.06   0.02    -0.00  -0.00   0.00    -0.02  -0.01  -0.03
   4   6     0.04   0.30  -0.09    -0.00  -0.01   0.00     0.00   0.00   0.00
   5   6     0.36  -0.12  -0.02    -0.01   0.00   0.00     0.00   0.00  -0.00
   6   6    -0.38  -0.03   0.06     0.01   0.00  -0.00    -0.00  -0.00   0.00
   7   6     0.05   0.31  -0.09    -0.00  -0.01   0.00    -0.00   0.00   0.00
   8   8     0.00  -0.07   0.02    -0.00   0.00  -0.00     0.00  -0.00  -0.00
   9   6    -0.04   0.06  -0.01     0.00   0.00  -0.00     0.00   0.00  -0.00
  10   6     0.34  -0.14  -0.01    -0.01   0.01  -0.00     0.00   0.00  -0.00
  11   6    -0.38  -0.01   0.06     0.01  -0.00  -0.00    -0.00  -0.00   0.00
  12   1     0.00  -0.00   0.01     0.29   0.01   0.35     0.16   0.19  -0.61
  13   1    -0.01   0.00  -0.01    -0.30  -0.16  -0.29     0.10  -0.54  -0.36
  14   1    -0.00  -0.02   0.01    -0.05  -0.70   0.24    -0.22   0.06   0.13
  15   1     0.00   0.00   0.01     0.03  -0.01  -0.00    -0.04  -0.02  -0.03
  16   1    -0.01  -0.00  -0.00    -0.03   0.00   0.00    -0.04   0.01  -0.04
  17   1    -0.09   0.01  -0.01     0.01   0.00   0.00     0.00   0.04   0.02
  18   1     0.11   0.01   0.02    -0.01   0.00  -0.01     0.00  -0.01   0.04
  19   1    -0.14  -0.14   0.06     0.00   0.00  -0.00    -0.00  -0.00   0.00
  20   1     0.09  -0.15   0.03    -0.00   0.00  -0.00    -0.00   0.00  -0.00
  21   1     0.04  -0.12  -0.06    -0.00  -0.00  -0.00    -0.00   0.00   0.00
  22   1    -0.01   0.01  -0.00    -0.00  -0.00  -0.00    -0.00  -0.00   0.00
  23   1     0.06  -0.08   0.10    -0.00  -0.00   0.00     0.00   0.00  -0.00
  24   1    -0.09  -0.13   0.05     0.00   0.00  -0.00    -0.00  -0.00   0.00
  25   1     0.12  -0.17   0.03    -0.00   0.00  -0.00    -0.00  -0.00   0.00
                     49                     50                     51
                        a                      a                      a 
 Frequencies --  1466.1618              1477.6267              1480.7349
 Red. masses --     2.6381                 1.5621                 4.4427
 Frc consts  --     0.0000                 0.0000                 0.0000
 IR Inten    --    36.1675                 9.1770                46.4492
 Raman Activ --     0.0000                 0.0000                 0.0000
 Depolar     --     0.0000                 0.0000                 0.0000
 Atom AN      X      Y      Z        X      Y      Z        X      Y      Z
   1   7    -0.00   0.00  -0.00    -0.00  -0.00  -0.00     0.00   0.00   0.00
   2   6    -0.00   0.01   0.02     0.00   0.00   0.00    -0.08   0.07   0.19
   3   6     0.04  -0.02  -0.00     0.01  -0.00  -0.00     0.07  -0.02  -0.03
   4   6    -0.13   0.06   0.00    -0.03   0.00   0.00    -0.24   0.03   0.03
   5   6     0.11   0.04  -0.02     0.01   0.02  -0.01     0.10   0.13  -0.05
   6   6     0.00  -0.08   0.02     0.02  -0.02   0.01     0.15  -0.16   0.02
   7   6    -0.12   0.09  -0.01    -0.03   0.01   0.00    -0.21   0.01   0.03
   8   8     0.04  -0.06   0.01     0.00  -0.01  -0.03     0.03   0.01  -0.00
   9   6     0.18  -0.09   0.01    -0.02  -0.05  -0.20    -0.03   0.03   0.01
  10   6     0.16   0.04  -0.03     0.02   0.01  -0.01     0.16   0.12  -0.05
  11   6    -0.03  -0.08   0.03     0.01  -0.02   0.00     0.08  -0.15   0.03
  12   1     0.00  -0.00   0.01     0.00  -0.00   0.00    -0.04  -0.01   0.02
  13   1    -0.00   0.00   0.00    -0.00   0.00   0.00    -0.04   0.03   0.01
  14   1    -0.00  -0.00   0.00    -0.00  -0.00   0.00    -0.02   0.01   0.01
  15   1     0.01  -0.03  -0.02     0.00  -0.00  -0.00     0.17  -0.43  -0.23
  16   1     0.01   0.01  -0.03     0.00   0.00  -0.00     0.22   0.17  -0.44
  17   1    -0.01   0.00  -0.00     0.00  -0.00  -0.00     0.00   0.04   0.02
  18   1     0.02  -0.00  -0.00     0.00   0.00  -0.00    -0.00  -0.02   0.04
  19   1    -0.09  -0.04   0.02    -0.02  -0.00   0.00    -0.13  -0.03   0.03
  20   1     0.01  -0.03   0.01    -0.02   0.00  -0.02    -0.16   0.10  -0.00
  21   1    -0.24   0.48   0.25    -0.45   0.04   0.14     0.07  -0.13  -0.07
  22   1    -0.09  -0.32   0.07     0.09   0.16   0.69     0.02   0.05  -0.05
  23   1    -0.35   0.32  -0.37     0.46   0.00   0.03     0.05  -0.09   0.10
  24   1    -0.09  -0.05   0.02    -0.02  -0.01   0.00    -0.13  -0.04   0.03
  25   1    -0.05   0.01   0.00    -0.02   0.01   0.00    -0.12   0.06   0.00
                     52                     53                     54
                        a                      a                      a 
 Frequencies --  1485.3062              1502.8626              1578.5960
 Red. masses --     5.9233                 1.9942                11.6310
 Frc consts  --     0.0000                 0.0000                 0.0000
 IR Inten    --    40.3484                 8.1600                 6.9584
 Raman Activ --     0.0000                 0.0000                 0.0000
 Depolar     --     0.0000                 0.0000                 0.0000
 Atom AN      X      Y      Z        X      Y      Z        X      Y      Z
   1   7    -0.02  -0.00  -0.01     0.00   0.01   0.02    -0.00   0.00  -0.00
   2   6     0.08  -0.05  -0.14    -0.05   0.01   0.03    -0.00   0.00  -0.00
   3   6     0.09  -0.00   0.01    -0.13   0.09   0.24     0.00   0.04  -0.01
   4   6    -0.31   0.04   0.03     0.03  -0.00   0.00    -0.02  -0.52   0.14
   5   6     0.13   0.17  -0.06     0.01   0.00  -0.00     0.13   0.26  -0.09
   6   6     0.18  -0.20   0.03    -0.01  -0.00   0.00     0.14  -0.29   0.06
   7   6    -0.26   0.02   0.03     0.01  -0.00  -0.00     0.03   0.48  -0.13
   8   8     0.04   0.01  -0.00    -0.00  -0.00  -0.00     0.02  -0.05   0.01
   9   6    -0.02   0.03   0.01    -0.00  -0.00   0.00    -0.02   0.01  -0.00
  10   6     0.21   0.15  -0.07    -0.01   0.00   0.00    -0.14  -0.25   0.08
  11   6     0.09  -0.19   0.04     0.00  -0.00  -0.00    -0.15   0.32  -0.06
  12   1     0.04   0.01  -0.01     0.01   0.01  -0.04     0.00   0.00   0.00
  13   1     0.04  -0.02   0.00     0.01  -0.03  -0.02    -0.00  -0.00  -0.00
  14   1     0.02  -0.01  -0.01    -0.01   0.00   0.01     0.00  -0.00   0.00
  15   1    -0.15   0.35   0.19     0.05  -0.05  -0.01     0.00  -0.00  -0.00
  16   1    -0.18  -0.14   0.36     0.05   0.03  -0.04     0.00   0.00   0.00
  17   1     0.03  -0.04  -0.03     0.18  -0.56  -0.32     0.06  -0.01   0.01
  18   1     0.03   0.01  -0.05     0.24   0.21  -0.59    -0.08  -0.01  -0.01
  19   1    -0.18  -0.04   0.03    -0.02  -0.01   0.00    -0.07   0.02   0.00
  20   1    -0.19   0.11  -0.00     0.00  -0.00   0.00    -0.09   0.01   0.01
  21   1     0.06  -0.11  -0.06     0.00   0.00  -0.00     0.00   0.00  -0.00
  22   1     0.01   0.04  -0.05    -0.00  -0.00  -0.00    -0.01  -0.02   0.01
  23   1     0.04  -0.08   0.09    -0.00   0.00  -0.00     0.00   0.00  -0.00
  24   1    -0.16  -0.05   0.04     0.00   0.00  -0.00     0.06  -0.02  -0.00
  25   1    -0.16   0.07   0.00    -0.02   0.01  -0.00     0.09  -0.01  -0.01
                     55                     56                     57
                        a                      a                      a 
 Frequencies --  1613.4045              2942.9228              2963.8272
 Red. masses --    11.5479                 1.9262                 2.0019
 Frc consts  --     0.0000                 0.0000                 0.0000
 IR Inten    --    72.6880                 9.6107                 4.1944
 Raman Activ --     0.0000                 0.0000                 0.0000
 Depolar     --     0.0000                 0.0000                 0.0000
 Atom AN      X      Y      Z        X      Y      Z        X      Y      Z
   1   7    -0.00  -0.00  -0.00    -0.00  -0.00   0.00     0.00   0.00  -0.00
   2   6     0.01   0.00   0.01     0.01   0.09  -0.03    -0.02  -0.27   0.09
   3   6     0.03  -0.00  -0.02    -0.03  -0.25   0.11    -0.02  -0.09   0.06
   4   6    -0.29   0.00   0.04    -0.00  -0.01   0.00    -0.00  -0.00   0.00
   5   6     0.47   0.10  -0.09    -0.00   0.00   0.00    -0.00   0.00  -0.00
   6   6    -0.39   0.12   0.02     0.00  -0.00   0.00     0.00   0.00  -0.00
   7   6     0.20   0.02  -0.03     0.00   0.00  -0.00     0.00   0.00  -0.00
   8   8     0.01  -0.00  -0.00     0.00   0.00  -0.00    -0.00  -0.00   0.00
   9   6    -0.01  -0.00   0.00    -0.00   0.00  -0.00     0.00  -0.00   0.00
  10   6    -0.44  -0.06   0.08    -0.00  -0.00   0.00    -0.00  -0.00   0.00
  11   6     0.43  -0.18  -0.01     0.00   0.00  -0.00     0.00   0.00  -0.00
  12   1     0.00  -0.00   0.00    -0.00   0.01   0.00     0.00  -0.02  -0.00
  13   1     0.00   0.00  -0.00     0.01   0.01  -0.01    -0.00  -0.01   0.01
  14   1    -0.00   0.00   0.00     0.00  -0.00   0.00     0.00   0.00   0.00
  15   1    -0.01   0.00  -0.00    -0.08  -0.14   0.19     0.20   0.34  -0.47
  16   1    -0.01  -0.00   0.00     0.05  -0.21  -0.06    -0.14   0.60   0.17
  17   1     0.02   0.00   0.01     0.22   0.38  -0.54     0.10   0.18  -0.24
  18   1     0.01  -0.00   0.01    -0.11   0.53   0.16    -0.03   0.13   0.04
  19   1    -0.10  -0.06   0.03     0.00  -0.01   0.00     0.00  -0.00   0.00
  20   1     0.04  -0.07   0.01    -0.00   0.00   0.00    -0.00  -0.00  -0.00
  21   1     0.00   0.01   0.00     0.00  -0.00   0.01    -0.00   0.01  -0.02
  22   1    -0.00  -0.00   0.00     0.00  -0.00  -0.00    -0.00   0.00   0.00
  23   1     0.00   0.01  -0.01     0.00  -0.00  -0.00    -0.00   0.01   0.01
  24   1     0.06   0.06  -0.03    -0.00   0.00  -0.00    -0.00   0.00   0.00
  25   1    -0.07   0.08  -0.01    -0.01  -0.01   0.00    -0.01  -0.00   0.00
                     58                     59                     60
                        a                      a                      a 
 Frequencies --  2968.9704              2970.3127              2971.8394
 Red. masses --     1.5298                 1.9497                 1.4951
 Frc consts  --     0.0000                 0.0000                 0.0000
 IR Inten    --    20.8711                31.6605                21.1951
 Raman Activ --     0.0000                 0.0000                 0.0000
 Depolar     --     0.0000                 0.0000                 0.0000
 Atom AN      X      Y      Z        X      Y      Z        X      Y      Z
   1   7     0.00   0.00   0.00     0.00   0.00  -0.00    -0.00  -0.00  -0.00
   2   6    -0.00  -0.01   0.00     0.00  -0.00  -0.00     0.04  -0.00  -0.07
   3   6     0.00  -0.00  -0.00    -0.00   0.00   0.01    -0.08   0.10   0.15
   4   6     0.00  -0.00  -0.00    -0.00   0.00   0.00    -0.01   0.00   0.00
   5   6    -0.00  -0.00   0.00     0.00  -0.00  -0.00     0.00  -0.00   0.00
   6   6    -0.00  -0.00   0.00    -0.00  -0.00   0.00     0.00   0.00  -0.00
   7   6    -0.00   0.00   0.00    -0.00   0.00   0.00     0.00  -0.00  -0.00
   8   8     0.01   0.02  -0.00     0.00   0.00  -0.01     0.00   0.00   0.00
   9   6    -0.09   0.20   0.03    -0.06  -0.02  -0.28     0.00   0.01   0.01
  10   6     0.00  -0.00   0.00     0.00  -0.00  -0.00     0.00  -0.00  -0.00
  11   6    -0.00   0.00   0.00    -0.00  -0.00  -0.00     0.00   0.00  -0.00
  12   1    -0.00  -0.00  -0.00     0.00  -0.00  -0.00     0.00  -0.01   0.00
  13   1    -0.00  -0.00   0.00     0.00   0.00  -0.00     0.01   0.01  -0.01
  14   1     0.00   0.00   0.00     0.00   0.00  -0.00     0.00   0.00   0.00
  15   1     0.01   0.01  -0.02    -0.00  -0.00   0.00    -0.10  -0.19   0.24
  16   1    -0.00   0.01   0.00    -0.00   0.01   0.00    -0.04   0.20   0.04
  17   1    -0.00  -0.01   0.01     0.01   0.01  -0.01     0.16   0.33  -0.40
  18   1    -0.00   0.02   0.00     0.00  -0.03  -0.01     0.12  -0.69  -0.15
  19   1     0.00  -0.00  -0.00    -0.00   0.00   0.00    -0.00   0.01  -0.00
  20   1     0.01   0.01  -0.00     0.00   0.00  -0.00    -0.00  -0.00   0.00
  21   1     0.13  -0.14   0.48     0.23  -0.28   0.73    -0.00   0.01  -0.01
  22   1     0.09  -0.02   0.00     0.03  -0.02  -0.04    -0.00   0.00   0.00
  23   1     0.04  -0.58  -0.58    -0.05   0.37   0.32     0.00  -0.03  -0.03
  24   1    -0.00   0.00  -0.00    -0.00   0.00  -0.00    -0.00   0.00  -0.00
  25   1    -0.00  -0.00   0.00     0.00  -0.00  -0.00    -0.00  -0.00   0.00
                     61                     62                     63
                        a                      a                      a 
 Frequencies --  2987.3491              2991.9725              3100.0771
 Red. masses --     1.5359                 1.6320                 1.8057
 Frc consts  --     0.0000                 0.0000                 0.0000
 IR Inten    --    16.3044                11.5236                29.5157
 Raman Activ --     0.0000                 0.0000                 0.0000
 Depolar     --     0.0000                 0.0000                 0.0000
 Atom AN      X      Y      Z        X      Y      Z        X      Y      Z
   1   7    -0.00  -0.00  -0.00     0.00  -0.00   0.00     0.00   0.00  -0.00
   2   6    -0.09   0.07   0.17     0.00  -0.00  -0.00    -0.00   0.00  -0.00
   3   6    -0.03   0.04   0.07     0.00   0.00  -0.00     0.00   0.00  -0.00
   4   6    -0.00   0.00   0.00     0.00  -0.00   0.00     0.00   0.00  -0.00
   5   6     0.00  -0.00  -0.00     0.00   0.00  -0.00    -0.05   0.11  -0.02
   6   6    -0.00  -0.00   0.00    -0.00  -0.00   0.00    -0.01  -0.01   0.00
   7   6     0.00  -0.00   0.00     0.00   0.00  -0.00     0.00  -0.00   0.00
   8   8    -0.00  -0.00  -0.00    -0.01  -0.00   0.00    -0.00   0.00  -0.00
   9   6    -0.00   0.00  -0.00    -0.23   0.07   0.02    -0.00  -0.00   0.00
  10   6    -0.00   0.00  -0.00     0.00   0.00  -0.00     0.03  -0.06   0.01
  11   6     0.00  -0.00   0.00    -0.00  -0.00   0.00     0.13   0.18  -0.06
  12   1    -0.00   0.02   0.00    -0.00   0.00   0.00     0.00  -0.00  -0.00
  13   1    -0.01  -0.01   0.01     0.00   0.00  -0.00    -0.00  -0.00   0.00
  14   1     0.00   0.00   0.01    -0.00  -0.00  -0.00    -0.00   0.00  -0.00
  15   1     0.19   0.37  -0.46    -0.00  -0.01   0.01     0.00  -0.00   0.00
  16   1     0.13  -0.62  -0.13    -0.00   0.01   0.00    -0.00  -0.00  -0.00
  17   1     0.07   0.15  -0.18    -0.00  -0.00   0.00    -0.01  -0.01   0.01
  18   1     0.05  -0.28  -0.06     0.00  -0.00  -0.00     0.00  -0.01  -0.00
  19   1    -0.00   0.00  -0.00    -0.00  -0.00   0.00     0.18  -0.38   0.08
  20   1     0.00   0.00  -0.00     0.00   0.00  -0.00     0.04   0.06  -0.02
  21   1     0.00  -0.00   0.00    -0.05   0.04  -0.08    -0.00   0.00  -0.00
  22   1     0.01  -0.00  -0.00     0.90  -0.33  -0.04     0.00  -0.00  -0.00
  23   1    -0.00   0.00   0.00    -0.03   0.07   0.05    -0.00   0.00   0.00
  24   1     0.00  -0.00   0.00     0.00  -0.00   0.00    -0.11   0.23  -0.05
  25   1    -0.00  -0.00  -0.00     0.00   0.00  -0.00    -0.46  -0.63   0.23
                     64                     65                     66
                        a                      a                      a 
 Frequencies --  3102.9634              3118.1802              3136.1761
 Red. masses --     1.8097                 1.8679                 1.8446
 Frc consts  --     0.0000                 0.0000                 0.0000
 IR Inten    --    17.5152                 9.3455                12.8732
 Raman Activ --     0.0000                 0.0000                 0.0000
 Depolar     --     0.0000                 0.0000                 0.0000
 Atom AN      X      Y      Z        X      Y      Z        X      Y      Z
   1   7     0.00  -0.00  -0.00    -0.00   0.00   0.00     0.00   0.00  -0.00
   2   6    -0.00  -0.00   0.00    -0.00  -0.00   0.00     0.00  -0.00  -0.00
   3   6     0.00  -0.00  -0.00     0.00  -0.00   0.00    -0.00  -0.00   0.00
   4   6     0.01  -0.00  -0.00    -0.00   0.00  -0.00     0.00   0.00  -0.00
   5   6     0.10  -0.21   0.04    -0.00   0.00  -0.00     0.02  -0.05   0.01
   6   6     0.02   0.03  -0.01    -0.00  -0.00   0.00    -0.15  -0.21   0.08
   7   6     0.00   0.00  -0.00     0.01  -0.00  -0.00    -0.01  -0.00   0.00
   8   8     0.00  -0.00  -0.00    -0.00  -0.00   0.00    -0.00  -0.00   0.00
   9   6    -0.00   0.00   0.00     0.00  -0.00   0.00     0.00  -0.00   0.00
  10   6     0.02  -0.03   0.01     0.11  -0.23   0.05     0.00   0.00  -0.00
  11   6     0.06   0.09  -0.03    -0.05  -0.07   0.03     0.00   0.00  -0.00
  12   1    -0.00   0.00   0.00    -0.00  -0.00  -0.00    -0.00   0.00   0.00
  13   1    -0.00  -0.00   0.00     0.00   0.00  -0.00    -0.00  -0.00   0.00
  14   1    -0.00  -0.00  -0.00     0.00   0.00   0.00    -0.00  -0.00  -0.00
  15   1     0.00   0.00  -0.00     0.00   0.00  -0.00    -0.00  -0.00   0.00
  16   1     0.00  -0.00  -0.00     0.00  -0.00   0.00    -0.00   0.00   0.00
  17   1    -0.00  -0.00   0.00     0.00   0.00  -0.00     0.00   0.00  -0.00
  18   1    -0.00   0.01   0.00    -0.00   0.00   0.00    -0.00   0.00   0.00
  19   1    -0.35   0.76  -0.15     0.00  -0.01   0.00    -0.06   0.14  -0.03
  20   1    -0.08  -0.11   0.04     0.01   0.01  -0.00     0.53   0.74  -0.27
  21   1     0.00  -0.00   0.00    -0.00   0.00  -0.00    -0.00   0.01  -0.01
  22   1     0.00  -0.00  -0.00    -0.00   0.00   0.00    -0.00   0.00   0.00
  23   1     0.00  -0.00  -0.00     0.00   0.00   0.00    -0.00   0.01   0.01
  24   1    -0.06   0.13  -0.03    -0.39   0.81  -0.16     0.00  -0.01   0.00
  25   1    -0.23  -0.32   0.12     0.17   0.23  -0.08    -0.00  -0.00   0.00
                     67                     68                     69
                        a                      a                      a 
 Frequencies --  3198.7854              3208.7672              3226.8165
 Red. masses --     1.9982                 2.0429                 1.3101
 Frc consts  --     0.0000                 0.0000                 0.0000
 IR Inten    --    75.7348                82.7197                30.3067
 Raman Activ --     0.0000                 0.0000                 0.0000
 Depolar     --     0.0000                 0.0000                 0.0000
 Atom AN      X      Y      Z        X      Y      Z        X      Y      Z
   1   7     0.07   0.08   0.26    -0.02  -0.27   0.09    -0.12   0.04   0.08
   2   6    -0.00   0.00   0.01    -0.00  -0.01   0.00    -0.01   0.00   0.01
   3   6    -0.00  -0.00  -0.00     0.00   0.00  -0.00     0.00  -0.00  -0.00
   4   6     0.00   0.00   0.00     0.00  -0.00   0.00     0.00   0.00   0.00
   5   6     0.00  -0.00   0.00    -0.00   0.00  -0.00     0.00  -0.00   0.00
   6   6     0.00   0.00  -0.00    -0.00  -0.00   0.00    -0.00  -0.00   0.00
   7   6     0.00   0.00   0.00    -0.00  -0.00   0.00    -0.00   0.00   0.00
   8   8    -0.00  -0.00  -0.00     0.00   0.00  -0.00     0.00  -0.00  -0.00
   9   6     0.00   0.00   0.00     0.00  -0.00  -0.00    -0.00  -0.00   0.00
  10   6     0.00  -0.00   0.00    -0.00  -0.00   0.00     0.00   0.00  -0.00
  11   6     0.00   0.00   0.00     0.00   0.00  -0.00     0.00   0.00  -0.00
  12   1     0.06  -0.22  -0.03    -0.15   0.63   0.16     0.13  -0.64  -0.14
  13   1     0.10   0.17  -0.17     0.23   0.39  -0.52     0.20   0.38  -0.47
  14   1    -0.42  -0.23  -0.76     0.01  -0.02   0.03     0.16   0.10   0.32
  15   1     0.00   0.01  -0.01     0.00   0.01  -0.01     0.01   0.01  -0.01
  16   1     0.00  -0.01  -0.00    -0.00   0.02   0.00     0.00  -0.02  -0.00
  17   1     0.00   0.00  -0.00    -0.00  -0.00   0.00    -0.00  -0.00   0.00
  18   1    -0.00  -0.00  -0.00     0.00  -0.00   0.00    -0.00   0.00   0.00
  19   1     0.00  -0.00   0.00     0.00  -0.00   0.00    -0.00   0.00  -0.00
  20   1    -0.00  -0.00   0.00     0.00   0.00  -0.00     0.00   0.00  -0.00
  21   1    -0.00  -0.00  -0.00     0.00  -0.00   0.00    -0.00   0.00  -0.00
  22   1    -0.00  -0.00  -0.00    -0.00   0.00  -0.00     0.00  -0.00  -0.00
  23   1     0.00  -0.00  -0.00     0.00   0.00   0.00    -0.00   0.00   0.00
  24   1    -0.00   0.00  -0.00     0.00   0.00   0.00     0.00  -0.00   0.00
  25   1     0.00   0.00   0.00    -0.00  -0.00   0.00    -0.00  -0.00   0.00
