18
 energy: -22.554730478816 gnorm: 0.000810125127 xtb: 6.5.1 (fef0646)
N            1.00079680215036       -0.60890195960850       -0.24095760953314
C            2.39923015917735       -0.07770576974446       -0.03133320705484
C            2.88817290582971        0.54683835161211       -1.30697914585563
C            2.65141729814763        1.89389215854264       -1.56097762335353
C            3.08720449357313        2.46316990577573       -2.74461463224480
C            3.75481847761953        1.69012737902423       -3.68093511554264
C            3.98727442353760        0.34632921985084       -3.43552851889523
C            3.55325422457539       -0.22646580664502       -2.25296123309074
H            0.62693107227289       -1.04442422556834        0.61141726890383
H            1.01229530863909       -1.30354744068420       -0.99936227926239
H            0.38432424841276        0.16374525844603       -0.52519870088542
H            3.03546853971881       -0.91168120519630        0.26641799029120
H            2.36416978215850        0.65449749755963        0.77590217747903
H            2.14585802948006        2.50248314199539       -0.82504500743411
H            2.91084393423312        3.51041824064871       -2.93258346527587
H            4.10038559255509        2.13692537933057       -4.59971953931666
H            4.51169350678153       -0.25462854219028       -4.16145174928789
H            3.75083120113743       -1.27042158314882       -2.05619960964114
