      -----------------------------------------------------------      
     |                   =====================                   |     
     |                           x T B                           |     
     |                   =====================                   |     
     |                         S. Grimme                         |     
     |          Mulliken Center for Theoretical Chemistry        |     
     |                    University of Bonn                     |     
      -----------------------------------------------------------      

   * xtb version 6.5.1 (fef0646) compiled by 'conda@b96dff2e9fd6' on 2023-01-04

   xtb is free software: you can redistribute it and/or modify it under
   the terms of the GNU Lesser General Public License as published by
   the Free Software Foundation, either version 3 of the License, or
   (at your option) any later version.
   
   xtb is distributed in the hope that it will be useful,
   but WITHOUT ANY WARRANTY; without even the implied warranty of
   MERCHANTABILITY or FITNESS FOR A PARTICULAR PURPOSE.  See the
   GNU Lesser General Public License for more details.
   
   Cite this work as:
   * C. Bannwarth, E. Caldeweyher, S. Ehlert, A. Hansen, P. Pracht,
     J. Seibert, S. Spicher, S. Grimme, WIREs Comput. Mol. Sci., 2020, 11,
     e01493. DOI: 10.1002/wcms.1493
   
   for GFN2-xTB:
   * C. Bannwarth, S. Ehlert and S. Grimme., J. Chem. Theory Comput., 2019,
     15, 1652-1671. DOI: 10.1021/acs.jctc.8b01176
   for GFN1-xTB:
   * S. Grimme, C. Bannwarth, P. Shushkov, J. Chem. Theory Comput., 2017,
     13, 1989-2009. DOI: 10.1021/acs.jctc.7b00118
   for GFN0-xTB:
   * P. Pracht, E. Caldeweyher, S. Ehlert, S. Grimme, ChemRxiv, 2019, preprint.
     DOI: 10.26434/chemrxiv.8326202.v1
   for GFN-FF:
   * S. Spicher and S. Grimme, Angew. Chem. Int. Ed., 2020, 59, 15665-15673.
     DOI: 10.1002/anie.202004239
   
   for ALPB and GBSA implicit solvation:
   * S. Ehlert, M. Stahn, S. Spicher, S. Grimme, J. Chem. Theory Comput.,
     2021, 17, 4250-4261. DOI: 10.1021/acs.jctc.1c00471
   
   for DFT-D4:
   * E. Caldeweyher, C. Bannwarth and S. Grimme, J. Chem. Phys., 2017,
     147, 034112. DOI: 10.1063/1.4993215
   * E. Caldeweyher, S. Ehlert, A. Hansen, H. Neugebauer, S. Spicher,
     C. Bannwarth and S. Grimme, J. Chem. Phys., 2019, 150, 154122.
     DOI: 10.1063/1.5090222
   * E. Caldeweyher, J.-M. Mewes, S. Ehlert and S. Grimme, Phys. Chem. Chem. Phys.
     2020, 22, 8499-8512. DOI: 10.1039/D0CP00502A
   
   for sTDA-xTB:
   * S. Grimme and C. Bannwarth, J. Chem. Phys., 2016, 145, 054103.
     DOI: 10.1063/1.4959605
   
   in the mass-spec context:
   * V. Asgeirsson, C. Bauer and S. Grimme, Chem. Sci., 2017, 8, 4879.
     DOI: 10.1039/c7sc00601b
   * J. Koopman and S. Grimme, ACS Omega 2019, 4, 12, 15120-15133.
     DOI: 10.1021/acsomega.9b02011
   
   for metadynamics refer to:
   * S. Grimme, J. Chem. Theory Comput., 2019, 155, 2847-2862
     DOI: 10.1021/acs.jctc.9b00143
   
   for SPH calculations refer to:
   * S. Spicher and S. Grimme, J. Chem. Theory Comput., 2021, 17, 1701-1714
     DOI: 10.1021/acs.jctc.0c01306
   
   with help from (in alphabetical order)
   P. Atkinson, C. Bannwarth, F. Bohle, G. Brandenburg, E. Caldeweyher
   M. Checinski, S. Dohm, S. Ehlert, S. Ehrlich, I. Gerasimov, C. Hölzer
   A. Katbashev, J. Koopman, C. Lavigne, S. Lehtola, F. März, M. Müller,
   F. Musil, H. Neugebauer, J. Pisarek, C. Plett, P. Pracht, F. Pultar,
   J. Seibert, P. Shushkov, S. Spicher, M. Stahn, M. Steiner, T. Strunk,
   J. Stückrath, T. Rose, and J. Unsleber
   
 * started run on 2023/01/23 at 18:47:14.429     

           -------------------------------------------------
          |                Calculation Setup                |
           -------------------------------------------------

          program call               : xtb init.xyz --opt -c 0 -u 0 -P 16 --input xtb.inp
          hostname                   : gpg-woodward
          coordinate file            : init.xyz
          omp threads                :                    16

   ID    Z sym.   atoms
    1    7 N      1
    2    6 C      2-12
    3   17 Cl     13
    4    1 H      14-25

molecular fragmentation (1/2 indicates fragments):
1111111111112111111111111
# atoms in fragment 1/2:    24     1
 fragment masses (1/2) :      158.22       35.45
CMA distance (Bohr)    :   9.543
constraining FC (au)   :  0.0500

           -------------------------------------------------
          |                 G F N 2 - x T B                 |
           -------------------------------------------------

        Reference                      10.1021/acs.jctc.8b01176
      * Hamiltonian:
        H0-scaling (s, p, d)           1.850000    2.230000    2.230000
        zeta-weighting                 0.500000
      * Dispersion:
        s8                             2.700000
        a1                             0.520000
        a2                             5.000000
        s9                             5.000000
      * Repulsion:
        kExp                           1.500000    1.000000
        rExp                           1.000000
      * Coulomb:
        alpha                          2.000000
        third order                    shell-resolved
        anisotropic                    true
        a3                             3.000000
        a5                             4.000000
        cn-shift                       1.200000
        cn-exp                         4.000000
        max-rad                        5.000000


          ...................................................
          :                      SETUP                      :
          :.................................................:
          :  # basis functions                  70          :
          :  # atomic orbitals                  69          :
          :  # shells                           39          :
          :  # electrons                        68          :
          :  max. iterations                   250          :
          :  Hamiltonian                  GFN2-xTB          :
          :  restarted?                      false          :
          :  GBSA solvation                  false          :
          :  PC potential                    false          :
          :  electronic temp.          300.0000000     K    :
          :  accuracy                    1.0000000          :
          :  -> integral cutoff          0.2500000E+02      :
          :  -> integral neglect         0.1000000E-07      :
          :  -> SCF convergence          0.1000000E-05 Eh   :
          :  -> wf. convergence          0.1000000E-03 e    :
          :  Broyden damping             0.4000000          :
          ...................................................

 iter      E             dE          RMSdq      gap      omega  full diag
   1    -37.5492724 -0.375493E+02  0.469E+00    2.93       0.0  T
   2    -37.6692624 -0.119990E+00  0.273E+00    2.68       1.0  T
   3    -37.6698891 -0.626779E-03  0.135E+00    1.74       1.0  T
   4    -37.6645680  0.532111E-02  0.801E-01    1.54       1.0  T
   5    -37.6771830 -0.126149E-01  0.278E-01    1.46       1.0  T
   6    -37.6773486 -0.165599E-03  0.229E-01    1.47       1.0  T
   7    -37.6778853 -0.536712E-03  0.128E-01    1.51       1.0  T
   8    -37.6780452 -0.159890E-03  0.466E-02    1.50       1.0  T
   9    -37.6780625 -0.173465E-04  0.243E-02    1.50       1.0  T
  10    -37.6780675 -0.503533E-05  0.751E-03    1.50       2.7  T
  11    -37.6780681 -0.521997E-06  0.304E-03    1.50       6.6  T
  12    -37.6780681 -0.584823E-07  0.151E-03    1.50      13.3  T
  13    -37.6780681 -0.196155E-07  0.520E-04    1.50      38.5  T
  14    -37.6780681 -0.130966E-08  0.322E-04    1.50      62.1  T

   *** convergence criteria satisfied after 14 iterations ***

         #    Occupation            Energy/Eh            Energy/eV
      -------------------------------------------------------------
         1        2.0000           -0.9483165             -25.8050
       ...           ...                  ...                  ...
        28        2.0000           -0.4341566             -11.8140
        29        2.0000           -0.4294569             -11.6861
        30        2.0000           -0.4187344             -11.3943
        31        2.0000           -0.3895221             -10.5994
        32        2.0000           -0.3486882              -9.4883
        33        2.0000           -0.3382749              -9.2049
        34        2.0000           -0.3379142              -9.1951 (HOMO)
        35                         -0.2829351              -7.6991 (LUMO)
        36                         -0.2467758              -6.7151
        37                         -0.2078950              -5.6571
        38                         -0.1725177              -4.6944
        39                         -0.0794978              -2.1632
       ...                                ...                  ...
        69                          0.6745519              18.3555
      -------------------------------------------------------------
                  HL-Gap            0.0549791 Eh            1.4961 eV
             Fermi-level           -0.3101838 Eh           -8.4405 eV

 SCC (total)                   0 d,  0 h,  0 min,  0.115 sec
 SCC setup                      ...        0 min,  0.000 sec (  0.378%)
 Dispersion                     ...        0 min,  0.001 sec (  0.711%)
 classical contributions        ...        0 min,  0.000 sec (  0.156%)
 integral evaluation            ...        0 min,  0.004 sec (  3.350%)
 iterations                     ...        0 min,  0.099 sec ( 86.179%)
 molecular gradient             ...        0 min,  0.010 sec (  8.838%)
 printout                       ...        0 min,  0.000 sec (  0.252%)

         :::::::::::::::::::::::::::::::::::::::::::::::::::::
         ::                     SUMMARY                     ::
         :::::::::::::::::::::::::::::::::::::::::::::::::::::
         :: total energy             -37.108695167420 Eh    ::
         :: gradient norm              0.087880479490 Eh/a0 ::
         :: HOMO-LUMO gap              1.496057643472 eV    ::
         ::.................................................::
         :: SCC energy               -37.678068135662 Eh    ::
         :: -> isotropic ES            0.088362263653 Eh    ::
         :: -> anisotropic ES         -0.020627507542 Eh    ::
         :: -> anisotropic XC          0.012230070375 Eh    ::
         :: -> dispersion             -0.023305336452 Eh    ::
         :: repulsion energy           0.569312131856 Eh    ::
         :: add. restraining           0.000000000000 Eh    ::
         :: total charge               0.000000000000 e     ::
         :::::::::::::::::::::::::::::::::::::::::::::::::::::

      ----------------------------------------------------------- 
     |                   =====================                   |
     |                        A N C O P T                        |
     |                   =====================                   |
     |               Approximate Normal Coordinate               |
     |                Rational Function Optimizer                |
      ----------------------------------------------------------- 

          ...................................................
          :                      SETUP                      :
          :.................................................:
          :   optimization level            normal          :
          :   max. optcycles                   200          :
          :   ANC micro-cycles                  20          :
          :   degrees of freedom                69          :
          :.................................................:
          :   RF solver                   davidson          :
          :   write xtbopt.log                true          :
          :   linear?                        false          :
          :   energy convergence         0.5000000E-05 Eh   :
          :   grad. convergence          0.1000000E-02 Eh/α :
          :   maximium RF displ.         1.0000000          :
          :   Hlow (freq-cutoff)         0.1000000E-01      :
          :   Hmax (freq-cutoff)         5.0000000          :
          :   S6 in model hess.         20.0000000          :
          ...................................................

generating ANC from model Hessian ...
Using Lindh-Hessian (1995)
 Shifting diagonal of input Hessian by    9.6691269758852599E-003
 Lowest  eigenvalues of input Hessian
    0.000000    0.000000    0.000000    0.000000    0.000000    0.000000
    0.010000    0.010517    0.011460    0.012129    0.015812    0.017161
    0.018872    0.022999    0.025425    0.028982    0.029219    0.030493
 Highest eigenvalues
    1.763241    1.787997    1.798840    1.902291    2.005064    2.083378


........................................................................
.............................. CYCLE    1 ..............................
........................................................................
   1    -37.6780681 -0.376781E+02  0.199E-04    1.50       0.0  T
   2    -37.6780681 -0.153094E-09  0.160E-04    1.50     125.0  T
   3    -37.6780681 -0.573053E-10  0.131E-04    1.50     152.3  T
     SCC iter.                  ...        0 min,  0.014 sec
     gradient                   ...        0 min,  0.009 sec
 * total energy  :   -37.1086952 Eh     change       -0.7599041E-09 Eh
   gradient norm :     0.0878806 Eh/α   predicted     0.0000000E+00 (-100.00%)
   displ. norm   :     0.2790472 α      lambda       -0.1309926E-01
   maximum displ.:     0.1138353 α      in ANC's #15, #16, #40, ...

........................................................................
.............................. CYCLE    2 ..............................
........................................................................
   1    -37.7001487 -0.377001E+02  0.265E-01    1.78       0.0  T
   2    -37.7004067 -0.258038E-03  0.163E-01    1.85       1.0  T
   3    -37.7004112 -0.447006E-05  0.665E-02    1.92       1.0  T
   4    -37.7004213 -0.101486E-04  0.374E-02    1.95       1.0  T
   5    -37.7004421 -0.207966E-04  0.216E-02    1.95       1.0  T
   6    -37.7004442 -0.210642E-05  0.169E-02    1.95       1.2  T
   7    -37.7004468 -0.252071E-05  0.869E-03    1.95       2.3  T
   8    -37.7004474 -0.664744E-06  0.495E-03    1.95       4.0  T
   9    -37.7004477 -0.314118E-06  0.118E-03    1.95      17.0  T
  10    -37.7004478 -0.148481E-07  0.464E-04    1.95      43.1  T
  11    -37.7004478 -0.762036E-09  0.187E-04    1.95     106.9  T
     SCC iter.                  ...        0 min,  0.046 sec
     gradient                   ...        0 min,  0.009 sec
 * total energy  :   -37.1177116 Eh     change       -0.9016472E-02 Eh
   gradient norm :     0.0493754 Eh/α   predicted    -0.7061847E-02 ( -21.68%)
   displ. norm   :     0.3639012 α      lambda       -0.7941551E-02
   maximum displ.:     0.1650500 α      in ANC's #7, #2, #10, ...

........................................................................
.............................. CYCLE    3 ..............................
........................................................................
   1    -37.7165916 -0.377166E+02  0.226E-01    2.12       0.0  T
   2    -37.7167793 -0.187720E-03  0.140E-01    2.17       1.0  T
   3    -37.7167706  0.869136E-05  0.634E-02    2.23       1.0  T
   4    -37.7167931 -0.224402E-04  0.352E-02    2.25       1.0  T
   5    -37.7168114 -0.183249E-04  0.182E-02    2.25       1.1  T
   6    -37.7168130 -0.156000E-05  0.137E-02    2.25       1.5  T
   7    -37.7168144 -0.148654E-05  0.688E-03    2.25       2.9  T
   8    -37.7168148 -0.351274E-06  0.372E-03    2.25       5.4  T
   9    -37.7168149 -0.129888E-06  0.124E-03    2.25      16.2  T
  10    -37.7168150 -0.223510E-07  0.616E-04    2.25      32.5  T
  11    -37.7168150 -0.172560E-08  0.401E-04    2.25      49.9  T
     SCC iter.                  ...        0 min,  0.047 sec
     gradient                   ...        0 min,  0.006 sec
 * total energy  :   -37.1225082 Eh     change       -0.4796587E-02 Eh
   gradient norm :     0.0372888 Eh/α   predicted    -0.4496723E-02 (  -6.25%)
   displ. norm   :     0.2327801 α      lambda       -0.2859819E-02
   maximum displ.:     0.1059887 α      in ANC's #7, #2, #40, ...

........................................................................
.............................. CYCLE    4 ..............................
........................................................................
   1    -37.7146513 -0.377147E+02  0.204E-01    2.34       0.0  T
   2    -37.7148714 -0.220056E-03  0.123E-01    2.41       1.0  T
   3    -37.7148771 -0.576855E-05  0.636E-02    2.48       1.0  T
   4    -37.7148893 -0.122120E-04  0.430E-02    2.51       1.0  T
   5    -37.7149132 -0.238668E-04  0.250E-02    2.52       1.0  T
   6    -37.7149160 -0.274932E-05  0.183E-02    2.52       1.1  T
   7    -37.7149199 -0.392452E-05  0.813E-03    2.52       2.5  T
   8    -37.7149206 -0.723557E-06  0.347E-03    2.52       5.8  T
   9    -37.7149207 -0.137365E-06  0.118E-03    2.52      17.0  T
  10    -37.7149208 -0.156917E-07  0.763E-04    2.52      26.2  T
  11    -37.7149208 -0.368001E-08  0.503E-04    2.52      39.7  T
     SCC iter.                  ...        0 min,  0.046 sec
     gradient                   ...        0 min,  0.006 sec
 * total energy  :   -37.1247228 Eh     change       -0.2214549E-02 Eh
   gradient norm :     0.0366716 Eh/α   predicted    -0.1507393E-02 ( -31.93%)
   displ. norm   :     0.3138028 α      lambda       -0.3547577E-02
   maximum displ.:     0.1563357 α      in ANC's #2, #7, #10, ...

........................................................................
.............................. CYCLE    5 ..............................
........................................................................
   1    -37.7100527 -0.377101E+02  0.265E-01    2.56       0.0  T
   2    -37.7104249 -0.372220E-03  0.156E-01    2.68       1.0  T
   3    -37.7104232  0.168121E-05  0.793E-02    2.78       1.0  T
   4    -37.7104603 -0.370865E-04  0.501E-02    2.82       1.0  T
   5    -37.7104931 -0.327708E-04  0.265E-02    2.83       1.0  T
   6    -37.7104957 -0.259347E-05  0.209E-02    2.84       1.0  T
   7    -37.7105006 -0.485792E-05  0.107E-02    2.83       1.9  T
   8    -37.7105019 -0.129669E-05  0.522E-03    2.83       3.8  T
   9    -37.7105022 -0.309561E-06  0.182E-03    2.83      11.0  T
  10    -37.7105022 -0.338862E-07  0.119E-03    2.83      16.8  T
  11    -37.7105022 -0.867751E-08  0.803E-04    2.83      24.9  T
  12    -37.7105022 -0.381857E-08  0.514E-04    2.83      38.9  T
     SCC iter.                  ...        0 min,  0.051 sec
     gradient                   ...        0 min,  0.004 sec
 * total energy  :   -37.1272932 Eh     change       -0.2570388E-02 Eh
   gradient norm :     0.0239835 Eh/α   predicted    -0.1948442E-02 ( -24.20%)
   displ. norm   :     0.2785143 α      lambda       -0.2552863E-02
   maximum displ.:     0.1033460 α      in ANC's #40, #57, #1, ...

........................................................................
.............................. CYCLE    6 ..............................
........................................................................
   1    -37.7108432 -0.377108E+02  0.294E-01    2.90       0.0  T
   2    -37.7113375 -0.494285E-03  0.169E-01    3.05       1.0  T
   3    -37.7113710 -0.334817E-04  0.820E-02    3.19       1.0  T
   4    -37.7113778 -0.677312E-05  0.593E-02    3.22       1.0  T
   5    -37.7114237 -0.459735E-04  0.353E-02    3.22       1.0  T
   6    -37.7114301 -0.633804E-05  0.265E-02    3.22       1.0  T
   7    -37.7114397 -0.960226E-05  0.140E-02    3.22       1.4  T
   8    -37.7114424 -0.268466E-05  0.650E-03    3.22       3.1  T
   9    -37.7114429 -0.539789E-06  0.178E-03    3.22      11.2  T
  10    -37.7114429 -0.311939E-07  0.900E-04    3.22      22.2  T
  11    -37.7114429 -0.486702E-08  0.510E-04    3.22      39.2  T
     SCC iter.                  ...        0 min,  0.047 sec
     gradient                   ...        0 min,  0.004 sec
 * total energy  :   -37.1289462 Eh     change       -0.1653067E-02 Eh
   gradient norm :     0.0176777 Eh/α   predicted    -0.1375438E-02 ( -16.79%)
   displ. norm   :     0.2527658 α      lambda       -0.1742998E-02
   maximum displ.:     0.1265404 α      in ANC's #2, #10, #1, ...

........................................................................
.............................. CYCLE    7 ..............................
........................................................................
   1    -37.7126257 -0.377126E+02  0.151E-01    3.21       0.0  T
   2    -37.7127292 -0.103474E-03  0.861E-02    3.21       1.0  T
   3    -37.7127292 -0.422384E-08  0.383E-02    3.21       1.0  T
   4    -37.7127324 -0.319456E-05  0.235E-02    3.21       1.0  T
   5    -37.7127418 -0.940238E-05  0.697E-03    3.21       2.9  T
   6    -37.7127419 -0.956999E-07  0.480E-03    3.21       4.2  T
   7    -37.7127422 -0.255480E-06  0.276E-03    3.21       7.2  T
   8    -37.7127422 -0.370783E-07  0.194E-03    3.21      10.3  T
   9    -37.7127422 -0.339535E-07  0.563E-04    3.21      35.5  T
  10    -37.7127422 -0.302485E-08  0.252E-04    3.21      79.5  T
     SCC iter.                  ...        0 min,  0.042 sec
     gradient                   ...        0 min,  0.004 sec
 * total energy  :   -37.1299068 Eh     change       -0.9605360E-03 Eh
   gradient norm :     0.0108118 Eh/α   predicted    -0.9271760E-03 (  -3.47%)
   displ. norm   :     0.1464047 α      lambda       -0.6194902E-03
   maximum displ.:     0.0930314 α      in ANC's #3, #4, #7, ...

........................................................................
.............................. CYCLE    8 ..............................
........................................................................
   1    -37.7158586 -0.377159E+02  0.912E-02    3.21       0.0  T
   2    -37.7158888 -0.301285E-04  0.525E-02    3.21       1.0  T
   3    -37.7158896 -0.811073E-06  0.255E-02    3.21       1.0  T
   4    -37.7158915 -0.191196E-05  0.173E-02    3.21       1.2  T
   5    -37.7158955 -0.395457E-05  0.105E-02    3.21       1.9  T
   6    -37.7158959 -0.479722E-06  0.755E-03    3.21       2.6  T
   7    -37.7158967 -0.723646E-06  0.309E-03    3.21       6.5  T
   8    -37.7158967 -0.897231E-07  0.172E-03    3.21      11.6  T
   9    -37.7158968 -0.360437E-07  0.942E-04    3.21      21.2  T
  10    -37.7158968 -0.571107E-08  0.736E-04    3.21      27.2  T
     SCC iter.                  ...        0 min,  0.021 sec
     gradient                   ...        0 min,  0.003 sec
 * total energy  :   -37.1302978 Eh     change       -0.3910796E-03 Eh
   gradient norm :     0.0070534 Eh/α   predicted    -0.3163940E-03 ( -19.10%)
   displ. norm   :     0.1213168 α      lambda       -0.2883190E-03
   maximum displ.:     0.0703382 α      in ANC's #3, #7, #15, ...

........................................................................
.............................. CYCLE    9 ..............................
........................................................................
   1    -37.7168016 -0.377168E+02  0.674E-02    3.22       0.0  T
   2    -37.7168052 -0.352487E-05  0.421E-02    3.22       1.0  T
   3    -37.7168001  0.509942E-05  0.213E-02    3.22       1.0  T
   4    -37.7168088 -0.875374E-05  0.108E-02    3.22       1.8  T
   5    -37.7168093 -0.532511E-06  0.848E-03    3.22       2.4  T
   6    -37.7168100 -0.613678E-06  0.501E-03    3.22       4.0  T
   7    -37.7168103 -0.298393E-06  0.210E-03    3.22       9.5  T
   8    -37.7168103 -0.420784E-07  0.122E-03    3.22      16.3  T
   9    -37.7168103 -0.121301E-07  0.797E-04    3.22      25.1  T
  10    -37.7168103 -0.431655E-08  0.614E-04    3.22      32.6  T
     SCC iter.                  ...        0 min,  0.021 sec
     gradient                   ...        0 min,  0.003 sec
 * total energy  :   -37.1304262 Eh     change       -0.1283688E-03 Eh
   gradient norm :     0.0046622 Eh/α   predicted    -0.1462864E-03 (  13.96%)
   displ. norm   :     0.0454619 α      lambda       -0.6449316E-04
   maximum displ.:     0.0293241 α      in ANC's #2, #4, #3, ...

........................................................................
.............................. CYCLE   10 ..............................
........................................................................
   1    -37.7165603 -0.377166E+02  0.230E-02    3.22       0.0  T
   2    -37.7165617 -0.135914E-05  0.135E-02    3.22       1.5  T
   3    -37.7165619 -0.189394E-06  0.541E-03    3.22       3.7  T
   4    -37.7165620 -0.783220E-07  0.404E-03    3.22       4.9  T
   5    -37.7165621 -0.171036E-06  0.284E-03    3.22       7.0  T
   6    -37.7165622 -0.642007E-07  0.184E-03    3.22      10.8  T
   7    -37.7165623 -0.565004E-07  0.854E-04    3.22      23.4  T
   8    -37.7165623 -0.961300E-08  0.331E-04    3.22      60.4  T
     SCC iter.                  ...        0 min,  0.016 sec
     gradient                   ...        0 min,  0.003 sec
 * total energy  :   -37.1304762 Eh     change       -0.4994744E-04 Eh
   gradient norm :     0.0023912 Eh/α   predicted    -0.3232496E-04 ( -35.28%)
   displ. norm   :     0.1494624 α      lambda       -0.1235506E-03
   maximum displ.:     0.0984311 α      in ANC's #2, #4, #10, ...

........................................................................
.............................. CYCLE   11 ..............................
........................................................................
   1    -37.7162255 -0.377162E+02  0.493E-02    3.22       0.0  T
   2    -37.7162276 -0.202912E-05  0.287E-02    3.22       1.0  T
   3    -37.7162273  0.242113E-06  0.829E-03    3.22       2.4  T
   4    -37.7162281 -0.796624E-06  0.526E-03    3.22       3.8  T
   5    -37.7162284 -0.261148E-06  0.365E-03    3.22       5.5  T
   6    -37.7162284 -0.737426E-07  0.271E-03    3.22       7.4  T
   7    -37.7162286 -0.109838E-06  0.129E-03    3.22      15.6  T
   8    -37.7162286 -0.195761E-07  0.688E-04    3.22      29.1  T
   9    -37.7162286 -0.643704E-08  0.249E-04    3.22      80.3  T
     SCC iter.                  ...        0 min,  0.018 sec
     gradient                   ...        0 min,  0.003 sec
 * total energy  :   -37.1305681 Eh     change       -0.9196149E-04 Eh
   gradient norm :     0.0032847 Eh/α   predicted    -0.6316198E-04 ( -31.32%)
   displ. norm   :     0.2466838 α      lambda       -0.1473701E-03
   maximum displ.:     0.1693785 α      in ANC's #2, #4, #10, ...

........................................................................
.............................. CYCLE   12 ..............................
........................................................................
   1    -37.7151710 -0.377152E+02  0.683E-02    3.22       0.0  T
   2    -37.7151721 -0.112846E-05  0.400E-02    3.22       1.0  T
   3    -37.7151704  0.170846E-05  0.107E-02    3.22       1.9  T
   4    -37.7151729 -0.247502E-05  0.445E-03    3.22       4.5  T
   5    -37.7151730 -0.783201E-07  0.330E-03    3.22       6.1  T
   6    -37.7151730 -0.725061E-07  0.202E-03    3.22       9.9  T
   7    -37.7151731 -0.378023E-07  0.118E-03    3.22      17.0  T
   8    -37.7151731 -0.133094E-07  0.534E-04    3.22      37.5  T
   9    -37.7151731 -0.252277E-08  0.250E-04    3.22      80.1  T
     SCC iter.                  ...        0 min,  0.018 sec
     gradient                   ...        0 min,  0.003 sec
 * total energy  :   -37.1306763 Eh     change       -0.1081985E-03 Eh
   gradient norm :     0.0046453 Eh/α   predicted    -0.7817251E-04 ( -27.75%)
   displ. norm   :     0.2807697 α      lambda       -0.1412740E-03
   maximum displ.:     0.2003720 α      in ANC's #2, #4, #10, ...

........................................................................
.............................. CYCLE   13 ..............................
........................................................................
   1    -37.7144324 -0.377144E+02  0.686E-02    3.22       0.0  T
   2    -37.7144340 -0.154482E-05  0.408E-02    3.22       1.0  T
   3    -37.7144312  0.281523E-05  0.146E-02    3.22       1.4  T
   4    -37.7144354 -0.427620E-05  0.666E-03    3.22       3.0  T
   5    -37.7144356 -0.158445E-06  0.501E-03    3.22       4.0  T
   6    -37.7144358 -0.196456E-06  0.259E-03    3.22       7.7  T
   7    -37.7144359 -0.573559E-07  0.143E-03    3.22      13.9  T
   8    -37.7144359 -0.164917E-07  0.415E-04    3.22      48.2  T
   9    -37.7144359 -0.147045E-08  0.210E-04    3.22      95.1  T
     SCC iter.                  ...        0 min,  0.018 sec
     gradient                   ...        0 min,  0.003 sec
 * total energy  :   -37.1307706 Eh     change       -0.9426144E-04 Eh
   gradient norm :     0.0049348 Eh/α   predicted    -0.7621127E-04 ( -19.15%)
   displ. norm   :     0.1467427 α      lambda       -0.8746966E-04
   maximum displ.:     0.1035421 α      in ANC's #2, #4, #10, ...

........................................................................
.............................. CYCLE   14 ..............................
........................................................................
   1    -37.7155246 -0.377155E+02  0.363E-02    3.22       0.0  T
   2    -37.7155253 -0.757551E-06  0.223E-02    3.22       1.0  T
   3    -37.7155247  0.680773E-06  0.931E-03    3.22       2.1  T
   4    -37.7155261 -0.145192E-05  0.527E-03    3.22       3.8  T
   5    -37.7155262 -0.125128E-06  0.393E-03    3.22       5.1  T
   6    -37.7155264 -0.129552E-06  0.213E-03    3.22       9.4  T
   7    -37.7155264 -0.457355E-07  0.105E-03    3.22      19.1  T
   8    -37.7155264 -0.107407E-07  0.530E-04    3.22      37.7  T
   9    -37.7155264 -0.206470E-08  0.330E-04    3.22      60.6  T
     SCC iter.                  ...        0 min,  0.018 sec
     gradient                   ...        0 min,  0.003 sec
 * total energy  :   -37.1308288 Eh     change       -0.5817137E-04 Eh
   gradient norm :     0.0023158 Eh/α   predicted    -0.4468027E-04 ( -23.19%)
   displ. norm   :     0.0743154 α      lambda       -0.3650750E-04
   maximum displ.:     0.0384776 α      in ANC's #2, #10, #4, ...

........................................................................
.............................. CYCLE   15 ..............................
........................................................................
   1    -37.7165884 -0.377166E+02  0.228E-02    3.22       0.0  T
   2    -37.7165885 -0.171736E-06  0.135E-02    3.22       1.5  T
   3    -37.7165885 -0.182684E-07  0.260E-03    3.22       7.7  T
   4    -37.7165886 -0.717619E-07  0.176E-03    3.22      11.3  T
   5    -37.7165886 -0.162863E-07  0.135E-03    3.22      14.8  T
   6    -37.7165886 -0.135313E-07  0.870E-04    3.22      23.0  T
   7    -37.7165887 -0.890122E-08  0.442E-04    3.22      45.2  T
     SCC iter.                  ...        0 min,  0.014 sec
     gradient                   ...        0 min,  0.003 sec
 * total energy  :   -37.1308535 Eh     change       -0.2471992E-04 Eh
   gradient norm :     0.0015333 Eh/α   predicted    -0.1835572E-04 ( -25.75%)
   displ. norm   :     0.1197560 α      lambda       -0.1955874E-04
   maximum displ.:     0.0610129 α      in ANC's #2, #10, #4, ...

........................................................................
.............................. CYCLE   16 ..............................
........................................................................
   1    -37.7167976 -0.377168E+02  0.313E-02    3.22       0.0  T
   2    -37.7167980 -0.410493E-06  0.183E-02    3.22       1.1  T
   3    -37.7167979  0.101752E-06  0.364E-03    3.22       5.5  T
   4    -37.7167981 -0.200949E-06  0.196E-03    3.22      10.2  T
   5    -37.7167982 -0.321950E-07  0.135E-03    3.22      14.8  T
   6    -37.7167982 -0.866235E-08  0.986E-04    3.22      20.3  T
   7    -37.7167982 -0.837721E-08  0.520E-04    3.22      38.5  T
     SCC iter.                  ...        0 min,  0.014 sec
     gradient                   ...        0 min,  0.003 sec
 * total energy  :   -37.1308698 Eh     change       -0.1634155E-04 Eh
   gradient norm :     0.0018721 Eh/α   predicted    -0.9847532E-05 ( -39.74%)
   displ. norm   :     0.0444058 α      lambda       -0.1144471E-04
   maximum displ.:     0.0323408 α      in ANC's #3, #6, #2, ...

........................................................................
.............................. CYCLE   17 ..............................
........................................................................
   1    -37.7170113 -0.377170E+02  0.228E-02    3.22       0.0  T
   2    -37.7170114 -0.962669E-07  0.134E-02    3.22       1.5  T
   3    -37.7170114  0.742741E-07  0.213E-03    3.22       9.4  T
   4    -37.7170115 -0.979520E-07  0.819E-04    3.22      24.4  T
   5    -37.7170115 -0.814330E-08  0.422E-04    3.22      47.4  T
     SCC iter.                  ...        0 min,  0.010 sec
     gradient                   ...        0 min,  0.003 sec
 * total energy  :   -37.1308804 Eh     change       -0.1062549E-04 Eh
   gradient norm :     0.0017481 Eh/α   predicted    -0.5734440E-05 ( -46.03%)
   displ. norm   :     0.1033051 α      lambda       -0.1676862E-04
   maximum displ.:     0.0564927 α      in ANC's #4, #3, #2, ...

........................................................................
.............................. CYCLE   18 ..............................
........................................................................
   1    -37.7161054 -0.377161E+02  0.302E-02    3.21       0.0  T
   2    -37.7161057 -0.257170E-06  0.180E-02    3.21       1.1  T
   3    -37.7161049  0.785519E-06  0.698E-03    3.21       2.9  T
   4    -37.7161060 -0.105773E-05  0.269E-03    3.21       7.4  T
   5    -37.7161060 -0.263764E-07  0.208E-03    3.21       9.6  T
   6    -37.7161060 -0.319164E-07  0.108E-03    3.21      18.5  T
   7    -37.7161060 -0.122959E-07  0.481E-04    3.21      41.5  T
   8    -37.7161060 -0.189557E-08  0.212E-04    3.21      94.4  T
     SCC iter.                  ...        0 min,  0.016 sec
     gradient                   ...        0 min,  0.003 sec
 * total energy  :   -37.1308944 Eh     change       -0.1391070E-04 Eh
   gradient norm :     0.0010963 Eh/α   predicted    -0.8425214E-05 ( -39.43%)
   displ. norm   :     0.0345937 α      lambda       -0.6817475E-05
   maximum displ.:     0.0207849 α      in ANC's #3, #4, #37, ...

........................................................................
.............................. CYCLE   19 ..............................
........................................................................
   1    -37.7163960 -0.377164E+02  0.126E-02    3.22       0.0  T
   2    -37.7163961 -0.535027E-07  0.740E-03    3.22       2.7  T
   3    -37.7163961  0.363435E-08  0.138E-03    3.22      14.5  T
   4    -37.7163961 -0.218891E-07  0.852E-04    3.22      23.5  T
   5    -37.7163961 -0.525478E-08  0.570E-04    3.22      35.1  T
     SCC iter.                  ...        0 min,  0.010 sec
     gradient                   ...        0 min,  0.003 sec
 * total energy  :   -37.1309015 Eh     change       -0.7125912E-05 Eh
   gradient norm :     0.0007487 Eh/α   predicted    -0.3412383E-05 ( -52.11%)
   displ. norm   :     0.0308336 α      lambda       -0.3953950E-05
   maximum displ.:     0.0171991 α      in ANC's #4, #6, #3, ...

........................................................................
.............................. CYCLE   20 ..............................
........................................................................
   1    -37.7164721 -0.377165E+02  0.128E-02    3.22       0.0  T
   2    -37.7164721 -0.243043E-07  0.748E-03    3.22       2.7  T
   3    -37.7164722 -0.364054E-09  0.916E-04    3.22      21.8  T
   4    -37.7164722 -0.125099E-07  0.553E-04    3.22      36.1  T
     SCC iter.                  ...        0 min,  0.008 sec
     gradient                   ...        0 min,  0.003 sec
 * total energy  :   -37.1309051 Eh     change       -0.3656544E-05 Eh
   gradient norm :     0.0003415 Eh/α   predicted    -0.1979060E-05 ( -45.88%)
   displ. norm   :     0.0146875 α      lambda       -0.8488262E-06
   maximum displ.:     0.0074405 α      in ANC's #1, #6, #4, ...

   *** GEOMETRY OPTIMIZATION CONVERGED AFTER 20 ITERATIONS ***

------------------------------------------------------------------------
 total energy gain   :        -0.0222100 Eh      -13.9370 kcal/mol
 total RMSD          :         0.3961389 a0        0.2096 Å
 total power (kW/mol):        -2.9156132 (step)  -88.5176 (real)
------------------------------------------------------------------------

 ANCopt (total)                0 d,  0 h,  0 min,  0.659 sec
 optimizer setup                ...        0 min,  0.000 sec (  0.020%)
 model hessian                  ...        0 min,  0.013 sec (  1.901%)
 ANC generation                 ...        0 min,  0.003 sec (  0.410%)
 coordinate transformation      ...        0 min,  0.000 sec (  0.054%)
 single point calculation       ...        0 min,  0.632 sec ( 95.940%)
 optimization log               ...        0 min,  0.003 sec (  0.436%)
 hessian update                 ...        0 min,  0.002 sec (  0.365%)
 rational function              ...        0 min,  0.004 sec (  0.588%)

================
 final structure:
================
25
 xtb: 6.5.1 (fef0646)
N            1.05278330613846       -0.12388501751600       -0.03370320645263
C            2.51284590787650       -0.28742059801217       -0.00434462876332
C            3.02027465899779       -0.08486575161785        1.39871997371381
C            3.38013965582925       -1.19722682443734        2.18300600511509
C            3.81707901230468       -1.03618885790172        3.46738050282580
C            3.10255276046153        1.17377573001169        1.93558846226475
C            3.54317057858641        1.37313728483051        3.25851878783366
C            3.91151240191514        0.24783461537950        4.04176707790681
C            4.35802180958314        0.45186730977083        5.36395591334155
C            4.43412557947200        1.71210809612606        5.88689481953945
C            4.06550780156465        2.82515876936558        5.11397631510918
C            3.63021664180225        2.66044834764060        3.82937036778850
Cl           0.22250211102152        2.66606053208421        0.31606322153214
H            0.67953274964623       -0.36588672349455       -0.94573754393056
H            0.63965097005745        1.36364803974518        0.19274706283789
H            0.61431059706241       -0.71174581256535        0.66816745506010
H            2.93474125484951        0.46918185990299       -0.67098037760949
H            2.81770697582763       -1.27901142959170       -0.36663817161896
H            3.31359112422731       -2.18797132166898        1.75446420513849
H            4.09630816203186       -1.89427681798121        4.06227745917740
H            2.81963779394366        2.03225427118828        1.34605415625680
H            4.63851549569612       -0.40802562095665        5.95600106067533
H            4.77744289460087        1.86180857148062        6.90022501031818
H            4.12946234655686        3.81305104669840        5.54621082426140
H            3.34173740994648        3.51138030151912        3.22983524767923

 Bond Distances (Angstroems)
 ---------------------------
N1-C2=1.4695         N1-H14=1.0147        N1-H16=1.0151        C2-N1=1.4695         C2-C3=1.5057         C2-H17=1.0931        
C2-H18=1.0988        C3-C2=1.5057         C3-C4=1.4078         C3-C6=1.3708         C4-C3=1.4078         C4-C5=1.3662         
C4-H19=1.0815        C5-C4=1.3662         C5-C8=1.4098         C5-H20=1.0808        C6-C3=1.3708         C6-C7=1.4086         
C6-H21=1.0792        C7-C6=1.4086         C7-C8=1.4197         C7-C12=1.4109        C8-C5=1.4098         C8-C7=1.4197         
C8-C9=1.4104         C9-C8=1.4104         C9-C10=1.3666        C9-H22=1.0810        C10-C9=1.3666        C10-C11=1.4043       
C10-H23=1.0803       C11-C10=1.4043       C11-C12=1.3663       C11-H24=1.0802       C12-C7=1.4109        C12-C11=1.3663       
C12-H25=1.0802       Cl13-H15=1.3731      H14-N1=1.0147        H15-Cl13=1.3731      H16-N1=1.0151        H17-C2=1.0931        
H18-C2=1.0988        H19-C4=1.0815        H20-C5=1.0808        H21-C6=1.0792        H22-C9=1.0810        H23-C10=1.0803       
H24-C11=1.0802       H25-C12=1.0802       
 C  H  Rav=1.0839 sigma=0.0066  Rmin=1.0792  Rmax=1.0988     9
 C  C  Rav=1.4039 sigma=0.0366  Rmin=1.3662  Rmax=1.5057    12
 N  H  Rav=1.0149 sigma=0.0002  Rmin=1.0147  Rmax=1.0151     2
 N  C  Rav=1.4695 sigma=0.0000  Rmin=1.4695  Rmax=1.4695     1
 Cl H  Rav=1.3731 sigma=0.0000  Rmin=1.3731  Rmax=1.3731     1

 selected bond angles (degree)
 --------------------
H14-N1-C2=110.91               H16-N1-C2=110.54               H16-N1-H14=108.93              C3-C2-N1=109.79                
H17-C2-N1=107.11               H17-C2-C3=110.19               H18-C2-N1=111.68               H18-C2-C3=109.58               
H18-C2-H17=108.45              C4-C3-C2=119.93                C6-C3-C2=120.58                C6-C3-C4=119.47                
C5-C4-C3=120.82                H19-C4-C3=119.17               H19-C4-C5=120.01               C8-C5-C4=120.78                
H20-C5-C4=120.43               H20-C5-C8=118.79               C7-C6-C3=121.10                H21-C6-C3=120.05               
H21-C6-C7=118.85               C8-C7-C6=119.15                C12-C7-C6=121.90               C12-C7-C8=118.95               
C7-C8-C5=118.67                C9-C8-C5=122.34                C9-C8-C7=118.99                C10-C9-C8=120.65               
H22-C9-C8=118.72               H22-C9-C10=120.63              C11-C10-C9=120.38              H23-C10-C9=120.29              
H23-C10-C11=119.33             

 selected dihedral angles (degree)
 ---------------------------------
C3-C2-N1-H14=186.83           C3-C2-N1-H16=307.76           H17-C2-N1-H14= 67.19          H17-C2-N1-H16=188.13          
H18-C2-N1-H14=308.58          H18-C2-N1-H16= 69.52          C4-C3-C2-N1=103.05            C4-C3-C2-H17=220.79           
C4-C3-C2-H18=340.04           C6-C3-C2-N1=284.80            C6-C3-C2-H17= 42.54           C6-C3-C2-H18=161.79           
C5-C4-C3-C2=181.33            C5-C4-C3-C6=359.60            H19-C4-C3-C2=  1.74           H19-C4-C3-C6=180.01           
C8-C5-C4-C3=  0.35            C8-C5-C4-H19=179.93           H20-C5-C4-C3=180.30           H20-C5-C4-H19=359.88          
C7-C6-C3-C2=178.36            C7-C6-C3-C4=  0.10            H21-C6-C3-C2=358.87           H21-C6-C3-C4=180.61           
C8-C7-C6-C3=  0.24            C8-C7-C6-H21=179.73           C12-C7-C6-C3=180.21           C12-C7-C6-H21=359.70          
C7-C8-C5-C4=  0.00            C7-C8-C5-H20=180.05           C9-C8-C5-C4=180.00            C9-C8-C5-H20=  0.04           
C5-C8-C7-C6=359.71            C5-C8-C7-C12=179.74           C9-C8-C7-C6=179.71            C9-C8-C7-C12=359.75           
C10-C9-C8-C5=180.10           C10-C9-C8-C7=  0.10           H22-C9-C8-C5=  0.08           H22-C9-C8-C7=180.07           
C11-C10-C9-C8=  0.12          C11-C10-C9-H22=180.14         H23-C10-C9-C8=180.03          H23-C10-C9-H22=  0.06         

 CMA Distance (Angstroems)
 ---------------------------
R(CMA):  4.5554
           -------------------------------------------------
          |                Final Singlepoint                |
           -------------------------------------------------

          ...................................................
          :                      SETUP                      :
          :.................................................:
          :  # basis functions                  70          :
          :  # atomic orbitals                  69          :
          :  # shells                           39          :
          :  # electrons                        68          :
          :  max. iterations                   250          :
          :  Hamiltonian                  GFN2-xTB          :
          :  restarted?                      false          :
          :  GBSA solvation                  false          :
          :  PC potential                    false          :
          :  electronic temp.          300.0000000     K    :
          :  accuracy                    1.0000000          :
          :  -> integral cutoff          0.2500000E+02      :
          :  -> integral neglect         0.1000000E-07      :
          :  -> SCF convergence          0.1000000E-05 Eh   :
          :  -> wf. convergence          0.1000000E-03 e    :
          :  Broyden damping             0.4000000          :
          ...................................................

 iter      E             dE          RMSdq      gap      omega  full diag
   1    -37.7164722 -0.377165E+02  0.390E-04    3.22       0.0  T
   2    -37.7164722 -0.582382E-09  0.320E-04    3.22      62.4  T
   3    -37.7164722 -0.344421E-09  0.265E-04    3.22      75.5  T

   *** convergence criteria satisfied after 3 iterations ***

         #    Occupation            Energy/Eh            Energy/eV
      -------------------------------------------------------------
         1        2.0000           -1.0172165             -27.6799
       ...           ...                  ...                  ...
        28        2.0000           -0.4212865             -11.4638
        29        2.0000           -0.4158498             -11.3159
        30        2.0000           -0.4022842             -10.9467
        31        2.0000           -0.3995334             -10.8719
        32        2.0000           -0.3942288             -10.7275
        33        2.0000           -0.3938848             -10.7182
        34        2.0000           -0.3804536             -10.3527 (HOMO)
        35                         -0.2622989              -7.1375 (LUMO)
        36                         -0.2321363              -6.3168
        37                         -0.1908247              -5.1926
        38                         -0.1508952              -4.1061
        39                         -0.0622663              -1.6944
       ...                                ...                  ...
        69                          0.6958457              18.9349
      -------------------------------------------------------------
                  HL-Gap            0.1181547 Eh            3.2152 eV
             Fermi-level           -0.3213763 Eh           -8.7451 eV

 SCC (total)                   0 d,  0 h,  0 min,  0.011 sec
 SCC setup                      ...        0 min,  0.000 sec (  1.006%)
 Dispersion                     ...        0 min,  0.000 sec (  1.425%)
 classical contributions        ...        0 min,  0.000 sec (  0.210%)
 integral evaluation            ...        0 min,  0.001 sec ( 10.764%)
 iterations                     ...        0 min,  0.006 sec ( 56.491%)
 molecular gradient             ...        0 min,  0.003 sec ( 26.908%)
 printout                       ...        0 min,  0.000 sec (  2.223%)

         :::::::::::::::::::::::::::::::::::::::::::::::::::::
         ::                     SUMMARY                     ::
         :::::::::::::::::::::::::::::::::::::::::::::::::::::
         :: total energy             -37.130905137699 Eh    ::
         :: gradient norm              0.000340758470 Eh/a0 ::
         :: HOMO-LUMO gap              3.215152188436 eV    ::
         ::.................................................::
         :: SCC energy               -37.716472164658 Eh    ::
         :: -> isotropic ES            0.027124625645 Eh    ::
         :: -> anisotropic ES         -0.003331578712 Eh    ::
         :: -> anisotropic XC          0.018706993516 Eh    ::
         :: -> dispersion             -0.024323562555 Eh    ::
         :: repulsion energy           0.585465684799 Eh    ::
         :: add. restraining           0.000000000000 Eh    ::
         :: total charge              -0.000000000000 e     ::
         :::::::::::::::::::::::::::::::::::::::::::::::::::::

           -------------------------------------------------
          |                Property Printout                |
           -------------------------------------------------

    * Orbital Energies and Occupations

         #    Occupation            Energy/Eh            Energy/eV
      -------------------------------------------------------------
         1        2.0000           -1.0172165             -27.6799
       ...           ...                  ...                  ...
        22        2.0000           -0.4735571             -12.8861
        23        2.0000           -0.4685172             -12.7490
        24        2.0000           -0.4646197             -12.6429
        25        2.0000           -0.4529260             -12.3247
        26        2.0000           -0.4423482             -12.0369
        27        2.0000           -0.4273829             -11.6297
        28        2.0000           -0.4212865             -11.4638
        29        2.0000           -0.4158498             -11.3159
        30        2.0000           -0.4022842             -10.9467
        31        2.0000           -0.3995334             -10.8719
        32        2.0000           -0.3942288             -10.7275
        33        2.0000           -0.3938848             -10.7182
        34        2.0000           -0.3804536             -10.3527 (HOMO)
        35                         -0.2622989              -7.1375 (LUMO)
        36                         -0.2321363              -6.3168
        37                         -0.1908247              -5.1926
        38                         -0.1508952              -4.1061
        39                         -0.0622663              -1.6944
        40                         -0.0524341              -1.4268
        41                          0.0321569               0.8750
        42                          0.0665233               1.8102
        43                          0.0671621               1.8276
        44                          0.0722748               1.9667
        45                          0.0728782               1.9831
       ...                                ...                  ...
        69                          0.6958457              18.9349
      -------------------------------------------------------------
                  HL-Gap            0.1181547 Eh            3.2152 eV
             Fermi-level           -0.3213763 Eh           -8.7451 eV

     #   Z          covCN         q      C6AA      α(0)
     1   7 N        2.695    -0.304    27.814     7.833
     2   6 C        3.737     0.003    20.603     6.477
     3   6 C        2.967     0.000    28.025     8.683
     4   6 C        2.919    -0.040    28.994     8.830
     5   6 C        2.917    -0.037    28.909     8.817
     6   6 C        2.923    -0.042    29.038     8.837
     7   6 C        2.987     0.016    27.650     8.626
     8   6 C        2.987     0.012    27.739     8.639
     9   6 C        2.918    -0.035    28.871     8.811
    10   6 C        2.916    -0.029    28.722     8.788
    11   6 C        2.916    -0.029    28.718     8.788
    12   6 C        2.918    -0.032    28.810     8.802
    13  17 Cl       0.837    -0.484   115.109    16.413
    14   1 H        0.860     0.167     1.294     1.782
    15   1 H        0.900     0.331     0.624     1.236
    16   1 H        0.860     0.167     1.293     1.781
    17   1 H        0.924     0.056     2.245     2.343
    18   1 H        0.923     0.028     2.615     2.529
    19   1 H        0.925     0.027     2.635     2.538
    20   1 H        0.926     0.033     2.547     2.496
    21   1 H        0.926     0.058     2.223     2.332
    22   1 H        0.926     0.031     2.574     2.509
    23   1 H        0.926     0.031     2.573     2.508
    24   1 H        0.926     0.032     2.551     2.498
    25   1 H        0.926     0.040     2.450     2.448

 Mol. C6AA /au·bohr⁶  :       8311.274030
 Mol. C8AA /au·bohr⁸  :     216705.934041
 Mol. α(0) /au        :        145.344509


Wiberg/Mayer (AO) data.
largest (>0.10) Wiberg bond orders for each atom

 ---------------------------------------------------------------------------
     #   Z sym  total        # sym  WBO       # sym  WBO       # sym  WBO
 ---------------------------------------------------------------------------
     1   7 N    3.236 --     2 C    0.993    16 H    0.959    14 H    0.958
                            15 H    0.207
     2   6 C    3.972 --     3 C    1.003     1 N    0.993    18 H    0.972
                            17 H    0.969
     3   6 C    3.987 --     6 C    1.524     4 C    1.303     2 C    1.003
     4   6 C    3.992 --     5 C    1.557     3 C    1.303    19 H    0.969
     5   6 C    3.992 --     4 C    1.557     8 C    1.280    20 H    0.968
                             6 C    0.117
     6   6 C    3.989 --     3 C    1.524     7 C    1.286    21 H    0.963
                             5 C    0.117
     7   6 C    3.991 --     6 C    1.286    12 C    1.276     8 C    1.250
     8   6 C    3.990 --     5 C    1.280     9 C    1.279     7 C    1.250
     9   6 C    3.992 --    10 C    1.558     8 C    1.279    22 H    0.968
                            12 C    0.119
    10   6 C    3.991 --     9 C    1.558    11 C    1.319    23 H    0.971
    11   6 C    3.992 --    12 C    1.560    10 C    1.319    24 H    0.971
    12   6 C    3.990 --    11 C    1.560     7 C    1.276    25 H    0.968
                             9 C    0.119
    13  17 Cl   0.769 --    15 H    0.679
    14   1 H    0.971 --     1 N    0.958
    15   1 H    0.890 --    13 Cl   0.679     1 N    0.207
    16   1 H    0.972 --     1 N    0.959
    17   1 H    0.996 --     2 C    0.969
    18   1 H    0.999 --     2 C    0.972
    19   1 H    0.999 --     4 C    0.969
    20   1 H    0.998 --     5 C    0.968
    21   1 H    0.996 --     6 C    0.963
    22   1 H    0.999 --     9 C    0.968
    23   1 H    0.999 --    10 C    0.971
    24   1 H    0.998 --    11 C    0.971
    25   1 H    0.998 --    12 C    0.968
 ---------------------------------------------------------------------------

Topologies differ in total number of bonds
Writing topology from bond orders to xtbtopo.mol

molecular dipole:
                 x           y           z       tot (Debye)
 q only:        0.718      -1.620      -0.062
   full:        0.504      -1.615      -0.120       4.311
molecular quadrupole (traceless):
                xx          xy          yy          xz          yz          zz
 q only:        5.091       1.570     -10.713       2.836       0.107       5.622
  q+dip:       -3.130      -1.135      -3.207       4.709       0.592       6.337
   full:        0.735      -0.794      -5.538       2.846       0.469       4.803

           -------------------------------------------------
          |                Geometry Summary                 |
           -------------------------------------------------

      molecular mass/u    :      193.6730247
   center of mass at/Å    :        2.7646897       0.9974845       2.4614440
  moments of inertia/u·Å² :        0.4766234E+03   0.1214446E+04   0.1618221E+04
rotational constants/cm⁻¹ :        0.3536887E-01   0.1388092E-01   0.1041739E-01

 * 23 selected distances

     #   Z          #   Z                                           value/Å
     1   7 N        2   6 C                                       1.4694860 (max)
     3   6 C        4   6 C                                       1.4078192
     4   6 C        5   6 C                                       1.3661872
     3   6 C        6   6 C                                       1.3708305
     6   6 C        7   6 C                                       1.4085575
     5   6 C        8   6 C                                       1.4098065
     7   6 C        8   6 C                                       1.4196690
     8   6 C        9   6 C                                       1.4103842
     9   6 C       10   6 C                                       1.3665519
    10   6 C       11   6 C                                       1.4043377
     7   6 C       12   6 C                                       1.4108929
    11   6 C       12   6 C                                       1.3663165
     1   7 N       14   1 H                                       1.0147352 (min)
     1   7 N       16   1 H                                       1.0151164
     2   6 C       17   1 H                                       1.0930903
     2   6 C       18   1 H                                       1.0988401
     4   6 C       19   1 H                                       1.0815043
     5   6 C       20   1 H                                       1.0808268
     6   6 C       21   1 H                                       1.0791558
     9   6 C       22   1 H                                       1.0810228
    10   6 C       23   1 H                                       1.0803311
    11   6 C       24   1 H                                       1.0802075
    12   6 C       25   1 H                                       1.0801611

 * 4 distinct bonds (by element types)

   Z      Z             #   av. dist./Å        max./Å        min./Å
   1 H    6 C           9     1.0839044     1.0988401     1.0791558
   6 C    6 C          11     1.3946684     1.4196690     1.3661872
   1 H    7 N           2     1.0149258     1.0151164     1.0147352
   6 C    7 N           1     1.4694860     1.4694860     1.4694860


optimized geometry written to: xtbopt.xyz


           -------------------------------------------------
          | TOTAL ENERGY              -37.130905137699 Eh   |
          | GRADIENT NORM               0.000340758470 Eh/α |
          | HOMO-LUMO GAP               3.215152188436 eV   |
           -------------------------------------------------

------------------------------------------------------------------------
 * finished run on 2023/01/23 at 18:47:15.241     
------------------------------------------------------------------------
 total:
 * wall-time:     0 d,  0 h,  0 min,  0.812 sec
 *  cpu-time:     0 d,  0 h,  1 min, 12.155 sec
 * ratio c/w:    88.828 speedup
 SCF:
 * wall-time:     0 d,  0 h,  0 min,  0.115 sec
 *  cpu-time:     0 d,  0 h,  0 min, 14.354 sec
 * ratio c/w:   124.327 speedup
 ANC optimizer:
 * wall-time:     0 d,  0 h,  0 min,  0.672 sec
 *  cpu-time:     0 d,  0 h,  0 min, 54.743 sec
 * ratio c/w:    81.519 speedup

