      -----------------------------------------------------------      
     |                   =====================                   |     
     |                           x T B                           |     
     |                   =====================                   |     
     |                         S. Grimme                         |     
     |          Mulliken Center for Theoretical Chemistry        |     
     |                    University of Bonn                     |     
      -----------------------------------------------------------      

   * xtb version 6.5.1 (fef0646) compiled by 'conda@b96dff2e9fd6' on 2023-01-04

   xtb is free software: you can redistribute it and/or modify it under
   the terms of the GNU Lesser General Public License as published by
   the Free Software Foundation, either version 3 of the License, or
   (at your option) any later version.
   
   xtb is distributed in the hope that it will be useful,
   but WITHOUT ANY WARRANTY; without even the implied warranty of
   MERCHANTABILITY or FITNESS FOR A PARTICULAR PURPOSE.  See the
   GNU Lesser General Public License for more details.
   
   Cite this work as:
   * C. Bannwarth, E. Caldeweyher, S. Ehlert, A. Hansen, P. Pracht,
     J. Seibert, S. Spicher, S. Grimme, WIREs Comput. Mol. Sci., 2020, 11,
     e01493. DOI: 10.1002/wcms.1493
   
   for GFN2-xTB:
   * C. Bannwarth, S. Ehlert and S. Grimme., J. Chem. Theory Comput., 2019,
     15, 1652-1671. DOI: 10.1021/acs.jctc.8b01176
   for GFN1-xTB:
   * S. Grimme, C. Bannwarth, P. Shushkov, J. Chem. Theory Comput., 2017,
     13, 1989-2009. DOI: 10.1021/acs.jctc.7b00118
   for GFN0-xTB:
   * P. Pracht, E. Caldeweyher, S. Ehlert, S. Grimme, ChemRxiv, 2019, preprint.
     DOI: 10.26434/chemrxiv.8326202.v1
   for GFN-FF:
   * S. Spicher and S. Grimme, Angew. Chem. Int. Ed., 2020, 59, 15665-15673.
     DOI: 10.1002/anie.202004239
   
   for ALPB and GBSA implicit solvation:
   * S. Ehlert, M. Stahn, S. Spicher, S. Grimme, J. Chem. Theory Comput.,
     2021, 17, 4250-4261. DOI: 10.1021/acs.jctc.1c00471
   
   for DFT-D4:
   * E. Caldeweyher, C. Bannwarth and S. Grimme, J. Chem. Phys., 2017,
     147, 034112. DOI: 10.1063/1.4993215
   * E. Caldeweyher, S. Ehlert, A. Hansen, H. Neugebauer, S. Spicher,
     C. Bannwarth and S. Grimme, J. Chem. Phys., 2019, 150, 154122.
     DOI: 10.1063/1.5090222
   * E. Caldeweyher, J.-M. Mewes, S. Ehlert and S. Grimme, Phys. Chem. Chem. Phys.
     2020, 22, 8499-8512. DOI: 10.1039/D0CP00502A
   
   for sTDA-xTB:
   * S. Grimme and C. Bannwarth, J. Chem. Phys., 2016, 145, 054103.
     DOI: 10.1063/1.4959605
   
   in the mass-spec context:
   * V. Asgeirsson, C. Bauer and S. Grimme, Chem. Sci., 2017, 8, 4879.
     DOI: 10.1039/c7sc00601b
   * J. Koopman and S. Grimme, ACS Omega 2019, 4, 12, 15120-15133.
     DOI: 10.1021/acsomega.9b02011
   
   for metadynamics refer to:
   * S. Grimme, J. Chem. Theory Comput., 2019, 155, 2847-2862
     DOI: 10.1021/acs.jctc.9b00143
   
   for SPH calculations refer to:
   * S. Spicher and S. Grimme, J. Chem. Theory Comput., 2021, 17, 1701-1714
     DOI: 10.1021/acs.jctc.0c01306
   
   with help from (in alphabetical order)
   P. Atkinson, C. Bannwarth, F. Bohle, G. Brandenburg, E. Caldeweyher
   M. Checinski, S. Dohm, S. Ehlert, S. Ehrlich, I. Gerasimov, C. Hölzer
   A. Katbashev, J. Koopman, C. Lavigne, S. Lehtola, F. März, M. Müller,
   F. Musil, H. Neugebauer, J. Pisarek, C. Plett, P. Pracht, F. Pultar,
   J. Seibert, P. Shushkov, S. Spicher, M. Stahn, M. Steiner, T. Strunk,
   J. Stückrath, T. Rose, and J. Unsleber
   
 * started run on 2023/01/24 at 14:57:51.915     

           -------------------------------------------------
          |                Calculation Setup                |
           -------------------------------------------------

          program call               : xtb init.xyz --opt -c 1 -u 0 -P 16 --alpb water
          hostname                   : gpg-woodward
          coordinate file            : init.xyz
          omp threads                :                    16

   ID    Z sym.   atoms
    1    7 N      1
    2    6 C      2-9
    3    1 H      10-29

           -------------------------------------------------
          |                 G F N 2 - x T B                 |
           -------------------------------------------------

        Reference                      10.1021/acs.jctc.8b01176
      * Hamiltonian:
        H0-scaling (s, p, d)           1.850000    2.230000    2.230000
        zeta-weighting                 0.500000
      * Dispersion:
        s8                             2.700000
        a1                             0.520000
        a2                             5.000000
        s9                             5.000000
      * Repulsion:
        kExp                           1.500000    1.000000
        rExp                           1.000000
      * Coulomb:
        alpha                          2.000000
        third order                    shell-resolved
        anisotropic                    true
        a3                             3.000000
        a5                             4.000000
        cn-shift                       1.200000
        cn-exp                         4.000000
        max-rad                        5.000000

      * Solvation model:               ALPB
        Solvent                        water
        Parameter file                 internal GFN2-xTB/ALPB
        Dielectric constant                8.0200E+01
        Reference state                gsolv [1 M gas/solution]
        Free energy shift                  1.0808E-03 Eh       6.7819E-01 kcal/mol
        Temperature                        2.9815E+02 K
        Density                            1.0000E+00 kg/L
        Solvent mass                       1.8000E+01 g/mol
        Interaction kernel             P16
        Born radius scaling (c1)           1.4744E+00
        Born radii integrator          GBOBC
        Born offset                        0.0000E+00 a0       0.0000E+00 AA
        H-bond correction              true
        Ion screening                  false
        Surface tension                    1.0000E-05 Eh       1.5569E+01 dyn/cm
        Grid points                               230 per atom

          ...................................................
          :                      SETUP                      :
          :.................................................:
          :  # basis functions                  56          :
          :  # atomic orbitals                  56          :
          :  # shells                           38          :
          :  # electrons                        56          :
          :  max. iterations                   250          :
          :  Hamiltonian                  GFN2-xTB          :
          :  restarted?                      false          :
          :  GBSA solvation                   true          :
          :  PC potential                    false          :
          :  electronic temp.          300.0000000     K    :
          :  accuracy                    1.0000000          :
          :  -> integral cutoff          0.2500000E+02      :
          :  -> integral neglect         0.1000000E-07      :
          :  -> SCF convergence          0.1000000E-05 Eh   :
          :  -> wf. convergence          0.1000000E-03 e    :
          :  Broyden damping             0.4000000          :
          ...................................................

 iter      E             dE          RMSdq      gap      omega  full diag
   1    -30.2825654 -0.302826E+02  0.293E+00   11.55       0.0  T
   2    -30.3609413 -0.783759E-01  0.160E+00   10.35       1.0  T
   3    -30.3648433 -0.390205E-02  0.850E-01    9.90       1.0  T
   4    -30.3652531 -0.409824E-03  0.119E-01    9.84       1.0  T
   5    -30.3652706 -0.175016E-04  0.656E-02    9.86       1.0  T
   6    -30.3652737 -0.307135E-05  0.990E-03    9.88       1.9  T
   7    -30.3652740 -0.285525E-06  0.559E-03    9.88       3.3  T
   8    -30.3652740 -0.210816E-07  0.764E-04    9.88      24.3  T
   9    -30.3652740 -0.444383E-08  0.165E-04    9.88     112.8  T

   *** convergence criteria satisfied after 9 iterations ***

         #    Occupation            Energy/Eh            Energy/eV
      -------------------------------------------------------------
         1        2.0000           -0.6934464             -18.8696
       ...           ...                  ...                  ...
        22        2.0000           -0.4482156             -12.1966
        23        2.0000           -0.4398517             -11.9690
        24        2.0000           -0.4310458             -11.7294
        25        2.0000           -0.4303998             -11.7118
        26        2.0000           -0.4203075             -11.4372
        27        2.0000           -0.4168075             -11.3419
        28        2.0000           -0.4164991             -11.3335 (HOMO)
        29                         -0.0532416              -1.4488 (LUMO)
        30                          0.0499065               1.3580
        31                          0.0712705               1.9394
        32                          0.0874137               2.3786
        33                          0.0966389               2.6297
       ...                                ...                  ...
        56                          0.3164040               8.6098
      -------------------------------------------------------------
                  HL-Gap            0.3632575 Eh            9.8847 eV
             Fermi-level           -0.2348703 Eh           -6.3911 eV

 SCC (total)                   0 d,  0 h,  0 min,  0.025 sec
 SCC setup                      ...        0 min,  0.001 sec (  2.214%)
 Dispersion                     ...        0 min,  0.001 sec (  2.433%)
 classical contributions        ...        0 min,  0.000 sec (  0.348%)
 integral evaluation            ...        0 min,  0.001 sec (  4.536%)
 iterations                     ...        0 min,  0.020 sec ( 78.573%)
 molecular gradient             ...        0 min,  0.003 sec ( 10.081%)
 printout                       ...        0 min,  0.000 sec (  0.576%)

         :::::::::::::::::::::::::::::::::::::::::::::::::::::
         ::                     SUMMARY                     ::
         :::::::::::::::::::::::::::::::::::::::::::::::::::::
         :: total energy             -29.936089845822 Eh    ::
         :: total w/o Gsasa/hb       -29.924841913970 Eh    ::
         :: gradient norm              0.024519373921 Eh/a0 ::
         :: HOMO-LUMO gap              9.884739451926 eV    ::
         ::.................................................::
         :: SCC energy               -30.365274022189 Eh    ::
         :: -> isotropic ES            0.126236518675 Eh    ::
         :: -> anisotropic ES         -0.008067577138 Eh    ::
         :: -> anisotropic XC          0.021397330345 Eh    ::
         :: -> dispersion             -0.016002667769 Eh    ::
         :: -> Gsolv                  -0.117800125379 Eh    ::
         ::    -> Gelec               -0.106552193526 Eh    ::
         ::    -> Gsasa               -0.001135195798 Eh    ::
         ::    -> Ghb                 -0.011193495753 Eh    ::
         ::    -> Gshift               0.001080759698 Eh    ::
         :: repulsion energy           0.429323202062 Eh    ::
         :: add. restraining           0.000000000000 Eh    ::
         :: total charge               1.000000000000 e     ::
         :::::::::::::::::::::::::::::::::::::::::::::::::::::

      ----------------------------------------------------------- 
     |                   =====================                   |
     |                        A N C O P T                        |
     |                   =====================                   |
     |               Approximate Normal Coordinate               |
     |                Rational Function Optimizer                |
      ----------------------------------------------------------- 

          ...................................................
          :                      SETUP                      :
          :.................................................:
          :   optimization level            normal          :
          :   max. optcycles                   200          :
          :   ANC micro-cycles                  20          :
          :   degrees of freedom                81          :
          :.................................................:
          :   RF solver                   davidson          :
          :   write xtbopt.log                true          :
          :   linear?                        false          :
          :   energy convergence         0.5000000E-05 Eh   :
          :   grad. convergence          0.1000000E-02 Eh/α :
          :   maximium RF displ.         1.0000000          :
          :   Hlow (freq-cutoff)         0.1000000E-01      :
          :   Hmax (freq-cutoff)         5.0000000          :
          :   S6 in model hess.         20.0000000          :
          ...................................................

generating ANC from model Hessian ...
Using Lindh-Hessian (1995)
 Shifting diagonal of input Hessian by    9.3901392682646748E-003
 Lowest  eigenvalues of input Hessian
    0.000000    0.000000    0.000000    0.000000    0.000000    0.000000
    0.010000    0.010202    0.011171    0.012303    0.013581    0.013601
    0.016119    0.016119    0.016613    0.020280    0.020768    0.024387
 Highest eigenvalues
    1.246405    1.269138    1.304417    1.401847    1.407943    1.457627


........................................................................
.............................. CYCLE    1 ..............................
........................................................................
   1    -30.3652740 -0.303653E+02  0.733E-05    9.88       0.0  T
   2    -30.3652740 -0.642331E-11  0.443E-05    9.88     419.6  T
   3    -30.3652740 -0.913047E-12  0.979E-06    9.88    1896.2  T
     SCC iter.                  ...        0 min,  0.006 sec
     gradient                   ...        0 min,  0.003 sec
 * total energy  :   -29.9360898 Eh     change       -0.7101875E-10 Eh
   gradient norm :     0.0245199 Eh/α   predicted     0.0000000E+00 (-100.00%)
   displ. norm   :     0.1792262 α      lambda       -0.2511417E-02
   maximum displ.:     0.1130781 α      in ANC's #7, #8, #29, ...

........................................................................
.............................. CYCLE    2 ..............................
........................................................................
   1    -30.3752919 -0.303753E+02  0.155E-01    9.84       0.0  T
   2    -30.3752991 -0.715362E-05  0.905E-02    9.85       1.0  T
   3    -30.3753001 -0.102160E-05  0.617E-03    9.87       3.0  T
   4    -30.3753002 -0.102425E-06  0.269E-03    9.87       6.9  T
   5    -30.3753002 -0.457864E-08  0.121E-03    9.87      15.3  T
   6    -30.3753002 -0.150095E-08  0.183E-04    9.87     101.3  T
   7    -30.3753002 -0.716192E-10  0.105E-04    9.87     176.3  T
     SCC iter.                  ...        0 min,  0.014 sec
     gradient                   ...        0 min,  0.003 sec
 * total energy  :   -29.9375097 Eh     change       -0.1419894E-02 Eh
   gradient norm :     0.0094503 Eh/α   predicted    -0.1296053E-02 (  -8.72%)
   displ. norm   :     0.0486701 α      lambda       -0.1825765E-03
   maximum displ.:     0.0292304 α      in ANC's #7, #11, #8, ...

........................................................................
.............................. CYCLE    3 ..............................
........................................................................
   1    -30.3765214 -0.303765E+02  0.284E-02    9.90       0.0  T
   2    -30.3765228 -0.135371E-05  0.164E-02    9.90       1.1  T
   3    -30.3765229 -0.646381E-07  0.377E-03    9.90       4.9  T
   4    -30.3765229 -0.218999E-07  0.860E-04    9.90      21.6  T
   5    -30.3765229 -0.100410E-08  0.430E-04    9.90      43.2  T
     SCC iter.                  ...        0 min,  0.010 sec
     gradient                   ...        0 min,  0.003 sec
 * total energy  :   -29.9376240 Eh     change       -0.1142987E-03 Eh
   gradient norm :     0.0031956 Eh/α   predicted    -0.9214294E-04 ( -19.38%)
   displ. norm   :     0.0258857 α      lambda       -0.2750065E-04
   maximum displ.:     0.0123018 α      in ANC's #7, #5, #11, ...

........................................................................
.............................. CYCLE    4 ..............................
........................................................................
   1    -30.3764632 -0.303765E+02  0.973E-03    9.92       0.0  T
   2    -30.3764634 -0.184316E-06  0.562E-03    9.92       3.3  T
   3    -30.3764634 -0.109279E-07  0.127E-03    9.92      14.6  T
   4    -30.3764634 -0.297528E-08  0.319E-04    9.92      58.2  T
   5    -30.3764634 -0.108468E-09  0.146E-04    9.92     127.1  T
     SCC iter.                  ...        0 min,  0.010 sec
     gradient                   ...        0 min,  0.002 sec
 * total energy  :   -29.9376399 Eh     change       -0.1583751E-04 Eh
   gradient norm :     0.0006140 Eh/α   predicted    -0.1376038E-04 ( -13.12%)
   displ. norm   :     0.0185406 α      lambda       -0.2518395E-05
   maximum displ.:     0.0106064 α      in ANC's #5, #2, #11, ...

........................................................................
.............................. CYCLE    5 ..............................
........................................................................
   1    -30.3762904 -0.303763E+02  0.497E-03    9.93       0.0  T
   2    -30.3762904 -0.969034E-08  0.286E-03    9.93       6.5  T
   3    -30.3762904 -0.270575E-08  0.239E-04    9.93      77.6  T
   4    -30.3762904 -0.148468E-09  0.130E-04    9.93     142.5  T
     SCC iter.                  ...        0 min,  0.008 sec
     gradient                   ...        0 min,  0.003 sec
 * total energy  :   -29.9376419 Eh     change       -0.2049360E-05 Eh
   gradient norm :     0.0004546 Eh/α   predicted    -0.1260245E-05 ( -38.51%)
   displ. norm   :     0.0132448 α      lambda       -0.8344348E-06
   maximum displ.:     0.0092418 α      in ANC's #2, #5, #1, ...

   *** GEOMETRY OPTIMIZATION CONVERGED AFTER 5 ITERATIONS ***

------------------------------------------------------------------------
 total energy gain   :        -0.0015521 Eh       -0.9739 kcal/mol
 total RMSD          :         0.0443180 a0        0.0235 Å
 total power (kW/mol):        -0.8149971 (step)  -45.3297 (real)
------------------------------------------------------------------------

 ANCopt (total)                0 d,  0 h,  0 min,  0.090 sec
 optimizer setup                ...        0 min,  0.000 sec (  0.167%)
 model hessian                  ...        0 min,  0.013 sec ( 14.954%)
 ANC generation                 ...        0 min,  0.003 sec (  3.670%)
 coordinate transformation      ...        0 min,  0.000 sec (  0.230%)
 single point calculation       ...        0 min,  0.070 sec ( 78.110%)
 optimization log               ...        0 min,  0.001 sec (  0.931%)
 hessian update                 ...        0 min,  0.000 sec (  0.218%)
 rational function              ...        0 min,  0.001 sec (  0.687%)

================
 final structure:
================
29
 xtb: 6.5.1 (fef0646)
N            1.01579480045528        0.00705167912112       -0.06256787978229
C            2.49932896194200        0.01260731154735       -0.05823522867422
C            3.02831905952789        0.90827782186486        1.05628195456900
C            4.55654015429616        0.91995130800381        1.07304743767831
C            5.09706815698777        1.81439695550492        2.18722444721715
C            6.62355814699554        1.83639963824072        2.21429893097293
C            7.16051502542959        2.73125216340789        3.32907048584421
C            8.68693567207883        2.75743174342652        3.36223119398478
C            9.21467327984807        3.65315175338638        4.47707936644367
H            0.65481470384079       -0.59595028648823       -0.81031999322139
H            0.66105656956043        0.96002850085876       -0.20550250182689
H            0.66214781565431       -0.33605022310100        0.83849206949114
H            2.85896592163264        0.37330051597200       -1.02170241855183
H            2.86125020680664       -1.00526247996068        0.08565482974990
H            2.67552956837430        0.55349903378938        2.02553448806806
H            2.67673686515378        1.93152361005419        0.91770670956140
H            4.93605506474589        1.27985233010111        0.11494627933247
H            4.93433855629945       -0.09377071854752        1.21864710684832
H            4.73202731689225        1.45946395557249        3.15361664817280
H            4.73177436134357        2.83461024394921        2.04980212497961
H            7.00213345198932        2.19626707050741        1.25455484871867
H            7.00245356079827        0.82161788088298        2.35780635194714
H            6.78951972173757        2.37481491053139        4.29314025162606
H            6.78992480395892        3.74969519080774        3.18924781401523
H            9.06457301489047        3.11659029097195        2.40197835777271
H            9.06414507445779        1.74223066188431        3.50633357468634
H            8.86911399792048        4.67587660552078        4.34188352076408
H           10.30218211558227        3.65773074430881        4.48322640997622
H            8.86869405079973        3.30117178788132        5.44664281963641

 Bond Distances (Angstroems)
 ---------------------------
N1-C2=1.4836         N1-H10=1.0262        N1-H11=1.0269        N1-H12=1.0270        C2-N1=1.4836         C2-C3=1.5245         
C2-H13=1.0898        C2-H14=1.0898        C3-C2=1.5245         C3-C4=1.5284         C3-H15=1.0908        C3-H16=1.0908        
C4-C3=1.5284         C4-C5=1.5276         C4-H17=1.0916        C4-H18=1.0916        C5-C4=1.5276         C5-C6=1.5269         
C5-H19=1.0923        C5-H20=1.0923        C6-C5=1.5269         C6-C7=1.5270         C6-H21=1.0927        C6-H22=1.0927        
C7-C6=1.5270         C7-C8=1.5270         C7-H23=1.0928        C7-H24=1.0928        C8-C7=1.5270         C8-C9=1.5244         
C8-H25=1.0926        C8-H26=1.0926        C9-C8=1.5244         C9-H27=1.0880        C9-H28=1.0875        C9-H29=1.0880        
H10-N1=1.0262        H11-N1=1.0269        H12-N1=1.0270        H13-C2=1.0898        H14-C2=1.0898        H15-C3=1.0908        
H16-C3=1.0908        H17-C4=1.0916        H18-C4=1.0916        H19-C5=1.0923        H20-C5=1.0923        H21-C6=1.0927        
H22-C6=1.0927        H23-C7=1.0928        H24-C7=1.0928        H25-C8=1.0926        H26-C8=1.0926        H27-C9=1.0880        
H28-C9=1.0875        H29-C9=1.0880        
 C  H  Rav=1.0911 sigma=0.0018  Rmin=1.0875  Rmax=1.0928    17
 C  C  Rav=1.5265 sigma=0.0014  Rmin=1.5244  Rmax=1.5284     7
 N  H  Rav=1.0267 sigma=0.0004  Rmin=1.0262  Rmax=1.0270     3
 N  C  Rav=1.4836 sigma=0.0000  Rmin=1.4836  Rmax=1.4836     1

 selected bond angles (degree)
 --------------------
H10-N1-C2=110.86               H11-N1-C2=110.02               H11-N1-H10=108.81              H12-N1-C2=110.06               
H12-N1-H10=108.78              H12-N1-H11=108.25              C3-C2-N1=110.57                H13-C2-N1=109.19               
H13-C2-C3=109.72               H14-C2-N1=109.21               H14-C2-C3=109.69               H14-C2-H13=108.44              
C4-C3-C2=111.07                H15-C3-C2=110.26               H15-C3-C4=108.43               H16-C3-C2=110.27               
H16-C3-C4=108.45               H16-C3-H15=108.29              C5-C4-C3=111.49                H17-C4-C3=109.91               
H17-C4-C5=108.91               H18-C4-C3=109.90               H18-C4-C5=108.91               H18-C4-H17=107.63              
C6-C5-C4=112.03                H19-C5-C4=109.68               H19-C5-C6=108.85               H20-C5-C4=109.68               
H20-C5-C6=108.85               H20-C5-H19=107.64              C7-C6-C5=111.90                H21-C6-C5=109.61               
H21-C6-C7=109.05               H22-C6-C5=109.61               H22-C6-C7=109.05               H22-C6-H21=107.52              
C8-C7-C6=112.17                H23-C7-C6=109.48               H23-C7-C8=109.01               H24-C7-C6=109.48               
H24-C7-C8=109.01               H24-C7-H23=107.56              C9-C8-C7=111.84                H25-C8-C7=109.39               
H25-C8-C9=109.27               H26-C8-C7=109.39               H26-C8-C9=109.27               H26-C8-H25=107.58              
H27-C9-C8=110.58               H28-C9-C8=110.66               H28-C9-H27=108.32              H29-C9-C8=110.58               
H29-C9-H27=108.29              H29-C9-H28=108.32              

 selected dihedral angles (degree)
 ---------------------------------
C3-C2-N1-H10=180.10           C3-C2-N1-H11= 59.69           C3-C2-N1-H12=300.49           H13-C2-N1-H10= 59.29          
H13-C2-N1-H11=298.89          H13-C2-N1-H12=179.68          H14-C2-N1-H10=300.88          H14-C2-N1-H11=180.48          
H14-C2-N1-H12= 61.27          C4-C3-C2-N1=179.88            C4-C3-C2-H13=300.36           C4-C3-C2-H14= 59.38           
H15-C3-C2-N1= 59.66           H15-C3-C2-H13=180.14          H15-C3-C2-H14=299.16          H16-C3-C2-N1=300.13           
H16-C3-C2-H13= 60.62          H16-C3-C2-H14=179.63          C5-C4-C3-C2=180.03            C5-C4-C3-H15=301.33           
C5-C4-C3-H16= 58.71           H17-C4-C3-C2= 59.16           H17-C4-C3-H15=180.46          H17-C4-C3-H16=297.84          
H18-C4-C3-C2=300.88           H18-C4-C3-H15= 62.18          H18-C4-C3-H16=179.56          C6-C5-C4-C3=180.06            
C6-C5-C4-H17=301.51           C6-C5-C4-H18= 58.63           H19-C5-C4-C3= 59.07           H19-C5-C4-H17=180.52          
H19-C5-C4-H18=297.64          H20-C5-C4-C3=301.06           H20-C5-C4-H17= 62.50          H20-C5-C4-H18=179.62          
C7-C6-C5-C4=180.00            C7-C6-C5-H19=301.47           C7-C6-C5-H20= 58.53           H21-C6-C5-C4= 58.90           
H21-C6-C5-H19=180.37          H21-C6-C5-H20=297.43          H22-C6-C5-C4=301.11           H22-C6-C5-H19= 62.58          
H22-C6-C5-H20=179.64          C8-C7-C6-C5=179.98            C8-C7-C6-H21=301.40           C8-C7-C6-H22= 58.55           
H23-C7-C6-C5= 58.82           H23-C7-C6-H21=180.25          H23-C7-C6-H22=297.39          H24-C7-C6-C5=301.13           
H24-C7-C6-H21= 62.56          H24-C7-C6-H22=179.70          C9-C8-C7-C6=179.97            C9-C8-C7-H23=301.40           
C9-C8-C7-H24= 58.55           H25-C8-C7-C6= 58.78           H25-C8-C7-H23=180.21          H25-C8-C7-H24=297.36          
H26-C8-C7-C6=301.17           H26-C8-C7-H23= 62.60          H26-C8-C7-H24=179.75          H27-C9-C8-C7=300.03           
H27-C9-C8-H25= 61.30          H27-C9-C8-H26=178.76          H28-C9-C8-C7=180.00           H28-C9-C8-H25=301.27          
H28-C9-C8-H26= 58.73          H29-C9-C8-C7= 59.97           H29-C9-C8-H25=181.24          H29-C9-C8-H26=298.70          
           -------------------------------------------------
          |                Final Singlepoint                |
           -------------------------------------------------

          ...................................................
          :                      SETUP                      :
          :.................................................:
          :  # basis functions                  56          :
          :  # atomic orbitals                  56          :
          :  # shells                           38          :
          :  # electrons                        56          :
          :  max. iterations                   250          :
          :  Hamiltonian                  GFN2-xTB          :
          :  restarted?                      false          :
          :  GBSA solvation                   true          :
          :  PC potential                    false          :
          :  electronic temp.          300.0000000     K    :
          :  accuracy                    1.0000000          :
          :  -> integral cutoff          0.2500000E+02      :
          :  -> integral neglect         0.1000000E-07      :
          :  -> SCF convergence          0.1000000E-05 Eh   :
          :  -> wf. convergence          0.1000000E-03 e    :
          :  Broyden damping             0.4000000          :
          ...................................................

 iter      E             dE          RMSdq      gap      omega  full diag
   1    -30.3762904 -0.303763E+02  0.337E-05    9.93       0.0  T
   2    -30.3762904 -0.231637E-11  0.207E-05    9.93     897.9  T
   3    -30.3762904 -0.202505E-12  0.779E-06    9.93    2384.4  T

   *** convergence criteria satisfied after 3 iterations ***

         #    Occupation            Energy/Eh            Energy/eV
      -------------------------------------------------------------
         1        2.0000           -0.6924059             -18.8413
       ...           ...                  ...                  ...
        22        2.0000           -0.4491068             -12.2208
        23        2.0000           -0.4388817             -11.9426
        24        2.0000           -0.4322581             -11.7623
        25        2.0000           -0.4282345             -11.6529
        26        2.0000           -0.4211240             -11.4594
        27        2.0000           -0.4201206             -11.4321
        28        2.0000           -0.4164897             -11.3333 (HOMO)
        29                         -0.0516778              -1.4062 (LUMO)
        30                          0.0387377               1.0541
        31                          0.0659112               1.7935
        32                          0.0918557               2.4995
        33                          0.0961717               2.6170
       ...                                ...                  ...
        56                          0.3226484               8.7797
      -------------------------------------------------------------
                  HL-Gap            0.3648119 Eh            9.9270 eV
             Fermi-level           -0.2340837 Eh           -6.3697 eV

 SCC (total)                   0 d,  0 h,  0 min,  0.009 sec
 SCC setup                      ...        0 min,  0.000 sec (  3.349%)
 Dispersion                     ...        0 min,  0.000 sec (  3.279%)
 classical contributions        ...        0 min,  0.000 sec (  0.580%)
 integral evaluation            ...        0 min,  0.001 sec (  8.378%)
 iterations                     ...        0 min,  0.005 sec ( 56.807%)
 molecular gradient             ...        0 min,  0.002 sec ( 24.055%)
 printout                       ...        0 min,  0.000 sec (  1.362%)

         :::::::::::::::::::::::::::::::::::::::::::::::::::::
         ::                     SUMMARY                     ::
         :::::::::::::::::::::::::::::::::::::::::::::::::::::
         :: total energy             -29.937641925911 Eh    ::
         :: total w/o Gsasa/hb       -29.926158806499 Eh    ::
         :: gradient norm              0.000454851527 Eh/a0 ::
         :: HOMO-LUMO gap              9.927037651838 eV    ::
         ::.................................................::
         :: SCC energy               -30.376290449570 Eh    ::
         :: -> isotropic ES            0.126554848122 Eh    ::
         :: -> anisotropic ES         -0.009272498982 Eh    ::
         :: -> anisotropic XC          0.020755822210 Eh    ::
         :: -> dispersion             -0.015947212188 Eh    ::
         :: -> Gsolv                  -0.118141914087 Eh    ::
         ::    -> Gelec               -0.106658794676 Eh    ::
         ::    -> Gsasa               -0.001152044798 Eh    ::
         ::    -> Ghb                 -0.011411834312 Eh    ::
         ::    -> Gshift               0.001080759698 Eh    ::
         :: repulsion energy           0.438790110318 Eh    ::
         :: add. restraining           0.000000000000 Eh    ::
         :: total charge               1.000000000000 e     ::
         :::::::::::::::::::::::::::::::::::::::::::::::::::::

           -------------------------------------------------
          |                Property Printout                |
           -------------------------------------------------

    * Orbital Energies and Occupations

         #    Occupation            Energy/Eh            Energy/eV
      -------------------------------------------------------------
         1        2.0000           -0.6924059             -18.8413
       ...           ...                  ...                  ...
        16        2.0000           -0.4942222             -13.4485
        17        2.0000           -0.4935467             -13.4301
        18        2.0000           -0.4755266             -12.9397
        19        2.0000           -0.4707286             -12.8092
        20        2.0000           -0.4640284             -12.6269
        21        2.0000           -0.4539482             -12.3526
        22        2.0000           -0.4491068             -12.2208
        23        2.0000           -0.4388817             -11.9426
        24        2.0000           -0.4322581             -11.7623
        25        2.0000           -0.4282345             -11.6529
        26        2.0000           -0.4211240             -11.4594
        27        2.0000           -0.4201206             -11.4321
        28        2.0000           -0.4164897             -11.3333 (HOMO)
        29                         -0.0516778              -1.4062 (LUMO)
        30                          0.0387377               1.0541
        31                          0.0659112               1.7935
        32                          0.0918557               2.4995
        33                          0.0961717               2.6170
        34                          0.1100827               2.9955
        35                          0.1174464               3.1959
        36                          0.1212926               3.3005
        37                          0.1342438               3.6530
        38                          0.1446474               3.9361
        39                          0.1506096               4.0983
       ...                                ...                  ...
        56                          0.3226484               8.7797
      -------------------------------------------------------------
                  HL-Gap            0.3648119 Eh            9.9270 eV
             Fermi-level           -0.2340837 Eh           -6.3697 eV

     #   Z          covCN         q      C6AA      α(0)
     1   7 N        3.485    -0.162    24.492     7.350
     2   6 C        3.732    -0.038    21.345     6.594
     3   6 C        3.803    -0.086    22.137     6.698
     4   6 C        3.804    -0.071    21.850     6.655
     5   6 C        3.803    -0.067    21.783     6.645
     6   6 C        3.803    -0.065    21.737     6.638
     7   6 C        3.803    -0.064    21.725     6.636
     8   6 C        3.801    -0.058    21.615     6.619
     9   6 C        3.752    -0.110    22.658     6.788
    10   1 H        0.859     0.316     0.667     1.280
    11   1 H        0.859     0.309     0.688     1.299
    12   1 H        0.859     0.309     0.688     1.300
    13   1 H        0.925     0.107     1.722     2.052
    14   1 H        0.925     0.107     1.723     2.053
    15   1 H        0.924     0.066     2.126     2.280
    16   1 H        0.924     0.066     2.127     2.280
    17   1 H        0.924     0.043     2.410     2.428
    18   1 H        0.924     0.043     2.410     2.428
    19   1 H        0.924     0.037     2.495     2.470
    20   1 H        0.924     0.037     2.495     2.470
    21   1 H        0.924     0.030     2.581     2.512
    22   1 H        0.924     0.030     2.581     2.512
    23   1 H        0.924     0.031     2.573     2.509
    24   1 H        0.924     0.031     2.574     2.509
    25   1 H        0.924     0.029     2.604     2.524
    26   1 H        0.924     0.029     2.605     2.524
    27   1 H        0.925     0.035     2.522     2.484
    28   1 H        0.925     0.031     2.568     2.506
    29   1 H        0.925     0.035     2.522     2.483

 Mol. C6AA /au·bohr⁶  :       5033.357427
 Mol. C8AA /au·bohr⁸  :     104808.097171
 Mol. α(0) /au        :        105.525784


Wiberg/Mayer (AO) data.
largest (>0.10) Wiberg bond orders for each atom

 ---------------------------------------------------------------------------
     #   Z sym  total        # sym  WBO       # sym  WBO       # sym  WBO
 ---------------------------------------------------------------------------
     1   7 N    3.653 --     2 C    0.966    12 H    0.890    11 H    0.890
                            10 H    0.887
     2   6 C    3.927 --     3 C    1.011    14 H    0.966    13 H    0.966
                             1 N    0.966
     3   6 C    3.990 --     2 C    1.011     4 C    1.004    16 H    0.973
                            15 H    0.973
     4   6 C    3.995 --     5 C    1.007     3 C    1.004    17 H    0.977
                            18 H    0.977
     5   6 C    3.996 --     4 C    1.007     6 C    1.007    19 H    0.977
                            20 H    0.977
     6   6 C    3.996 --     7 C    1.007     5 C    1.007    22 H    0.977
                            21 H    0.977
     7   6 C    3.997 --     8 C    1.008     6 C    1.007    24 H    0.977
                            23 H    0.977
     8   6 C    3.997 --     9 C    1.019     7 C    1.008    26 H    0.979
                            25 H    0.979
     9   6 C    3.996 --     8 C    1.019    29 H    0.988    27 H    0.988
                            28 H    0.988
    10   1 H    0.900 --     1 N    0.887
    11   1 H    0.905 --     1 N    0.890
    12   1 H    0.905 --     1 N    0.890
    13   1 H    0.989 --     2 C    0.966
    14   1 H    0.989 --     2 C    0.966
    15   1 H    0.996 --     3 C    0.973
    16   1 H    0.996 --     3 C    0.973
    17   1 H    0.998 --     4 C    0.977
    18   1 H    0.998 --     4 C    0.977
    19   1 H    0.999 --     5 C    0.977
    20   1 H    0.999 --     5 C    0.977
    21   1 H    0.999 --     6 C    0.977
    22   1 H    0.999 --     6 C    0.977
    23   1 H    0.999 --     7 C    0.977
    24   1 H    0.999 --     7 C    0.977
    25   1 H    0.999 --     8 C    0.979
    26   1 H    0.999 --     8 C    0.979
    27   1 H    0.999 --     9 C    0.988
    28   1 H    0.999 --     9 C    0.988
    29   1 H    0.999 --     9 C    0.988
 ---------------------------------------------------------------------------

Topologies differ in total number of bonds
Writing topology from bond orders to xtbtopo.mol

molecular dipole:
                 x           y           z       tot (Debye)
 q only:        2.026       0.001      -0.134
   full:        2.043       0.048      -0.075       5.198
molecular quadrupole (traceless):
                xx          xy          yy          xz          yz          zz
 q only:        3.374      -1.097      -1.691      -1.783      -0.047      -1.684
  q+dip:        2.657      -0.489      -0.997      -1.026      -1.517      -1.660
   full:        3.912      -0.026      -1.844      -0.450      -0.523      -2.068

           -------------------------------------------------
          |                Geometry Summary                 |
           -------------------------------------------------

      molecular mass/u    :      130.2514054
   center of mass at/Å    :        5.2522632       1.6054858       1.9267470
  moments of inertia/u·Å² :        0.5440959E+02   0.1471071E+04   0.1497590E+04
rotational constants/cm⁻¹ :        0.3098283E+00   0.1145943E-01   0.1125651E-01

 * 28 selected distances

     #   Z          #   Z                                           value/Å
     1   7 N        2   6 C                                       1.4835510
     2   6 C        3   6 C                                       1.5245344
     3   6 C        4   6 C                                       1.5283578 (max)
     4   6 C        5   6 C                                       1.5276107
     5   6 C        6   6 C                                       1.5268888
     6   6 C        7   6 C                                       1.5270232
     7   6 C        8   6 C                                       1.5270054
     8   6 C        9   6 C                                       1.5243714
     1   7 N       10   1 H                                       1.0261829 (min)
     1   7 N       11   1 H                                       1.0268566
     1   7 N       12   1 H                                       1.0269831
     2   6 C       13   1 H                                       1.0898200
     2   6 C       14   1 H                                       1.0898397
     3   6 C       15   1 H                                       1.0907700
     3   6 C       16   1 H                                       1.0908003
     4   6 C       17   1 H                                       1.0915669
     4   6 C       18   1 H                                       1.0915876
     5   6 C       19   1 H                                       1.0923124
     5   6 C       20   1 H                                       1.0923186
     6   6 C       21   1 H                                       1.0926723
     6   6 C       22   1 H                                       1.0926749
     7   6 C       23   1 H                                       1.0927560
     7   6 C       24   1 H                                       1.0927552
     8   6 C       25   1 H                                       1.0925615
     8   6 C       26   1 H                                       1.0925593
     9   6 C       27   1 H                                       1.0879593
     9   6 C       28   1 H                                       1.0875359
     9   6 C       29   1 H                                       1.0879545

 * 4 distinct bonds (by element types)

   Z      Z             #   av. dist./Å        max./Å        min./Å
   1 H    6 C          17     1.0910850     1.0927560     1.0875359
   6 C    6 C           7     1.5265417     1.5283578     1.5243714
   1 H    7 N           3     1.0266742     1.0269831     1.0261829
   6 C    7 N           1     1.4835510     1.4835510     1.4835510


optimized geometry written to: xtbopt.xyz


           -------------------------------------------------
          | TOTAL ENERGY              -29.937641925911 Eh   |
          | GRADIENT NORM               0.000454851527 Eh/α |
          | HOMO-LUMO GAP               9.927037651838 eV   |
           -------------------------------------------------

------------------------------------------------------------------------
 * finished run on 2023/01/24 at 14:57:52.056     
------------------------------------------------------------------------
 total:
 * wall-time:     0 d,  0 h,  0 min,  0.141 sec
 *  cpu-time:     0 d,  0 h,  0 min, 19.532 sec
 * ratio c/w:   138.242 speedup
 SCF:
 * wall-time:     0 d,  0 h,  0 min,  0.026 sec
 *  cpu-time:     0 d,  0 h,  0 min,  3.639 sec
 * ratio c/w:   141.327 speedup
 ANC optimizer:
 * wall-time:     0 d,  0 h,  0 min,  0.100 sec
 *  cpu-time:     0 d,  0 h,  0 min, 13.963 sec
 * ratio c/w:   139.001 speedup

