26
 energy: -41.470956554551 gnorm: 0.000293376315 xtb: 6.5.1 (fef0646)
N            0.98051190125376        0.34124395828557       -0.27352967145906
C            2.43529429001126        0.35337465656543       -0.21302895825769
C            3.04978736662412        1.75891593601393       -0.35613828392094
C            4.53501003756352        1.70442560815081       -0.27296625980606
C            5.32667301616250        1.88071119167052        0.82103842970305
C            6.69747018050618        1.71379844399009        0.55266318462138
C            6.95812914362660        1.40074738441669       -0.75450824500018
C            8.22213601564483        1.17368830206646       -1.37866198874119
C            8.48378550770739        0.86066613939763       -2.68682422953466
C            9.85774424088856        0.71598720016293       -2.95616587610408
C           10.63201785851354        0.91779021660476       -1.85865443333413
S            9.69966466369295        1.29063688021190       -0.46368995216251
S            5.48066583531728        1.30845103751444       -1.67243487605185
Cl          -0.06756687142734       -2.38610949789839        0.16666298977060
H            0.42004194145851       -1.14075458520583       -0.04421516066473
H            0.65242507271415        0.67767015501262       -1.17286792572945
H            0.58402341053967        0.92818412164802        0.45326015693551
H            2.81053106919307       -0.29090266061230       -1.01088686346093
H            2.73473479761137       -0.07869267420754        0.74435180512776
H            2.67032059901017        2.40130304276336        0.44329013378552
H            2.74746559145247        2.18441101794877       -1.31674861213077
H            4.93985135580761        2.13239251061566        1.79267375000058
H            7.47348459703690        1.82045031174069        1.28960041660146
H            7.70844812427215        0.74104444961505       -3.42270607403508
H           10.25270562954507        0.47231393848501       -3.92611043425562
H           11.69951462527335        0.87182291504149       -1.77607302189279
