22
 energy: -34.932404392194 gnorm: 0.000819683988 xtb: 6.5.1 (fef0646)
N            1.03987803711176       -0.54601243972058        0.05005443382198
C            2.48968576661480       -0.63680424954815        0.20947588772625
C            2.95146660717672        0.30712486331967        1.32404867859178
C            4.45135740735356        0.34281641443973        1.39246455509278
C            5.16706219895468        1.15720390055462        0.52208059814619
C            6.54906897538342        1.17868656989491        0.54347354132531
C            7.21103548627631        0.37097602355723        1.45023034895759
F            8.56098238714235        0.38451043788052        1.47912893929241
C            6.52884898410398       -0.44899534332102        2.32884000698385
C            5.14572559337239       -0.45751562506259        2.29017091543589
Cl           0.34285347358191        2.24240488343093       -0.56197316976210
H            0.71448429738617       -1.13514674663606       -0.70867860631170
H            0.65801262279012        0.93889668597589       -0.28016505557349
H            0.56468282733898       -0.81882101857095        0.90442763709195
H            2.94593380825468       -0.33233865298091       -0.73477614555002
H            2.82305199327669       -1.65968428805222        0.43446213016190
H            2.53958467142097       -0.03079430910881        2.27624999450711
H            2.56120885303675        1.30191000725452        1.11216664171436
H            4.63400161889114        1.78548077892389       -0.17537604709457
H            7.11349572235447        1.80894321447291       -0.12515945920266
H            7.07664788615497       -1.06312967739159        3.02573349633257
H            4.60160078202224       -1.09201142931195        2.97428067831261
