      -----------------------------------------------------------      
     |                   =====================                   |     
     |                           x T B                           |     
     |                   =====================                   |     
     |                         S. Grimme                         |     
     |          Mulliken Center for Theoretical Chemistry        |     
     |                    University of Bonn                     |     
      -----------------------------------------------------------      

   * xtb version 6.5.1 (fef0646) compiled by 'conda@b96dff2e9fd6' on 2023-01-04

   xtb is free software: you can redistribute it and/or modify it under
   the terms of the GNU Lesser General Public License as published by
   the Free Software Foundation, either version 3 of the License, or
   (at your option) any later version.
   
   xtb is distributed in the hope that it will be useful,
   but WITHOUT ANY WARRANTY; without even the implied warranty of
   MERCHANTABILITY or FITNESS FOR A PARTICULAR PURPOSE.  See the
   GNU Lesser General Public License for more details.
   
   Cite this work as:
   * C. Bannwarth, E. Caldeweyher, S. Ehlert, A. Hansen, P. Pracht,
     J. Seibert, S. Spicher, S. Grimme, WIREs Comput. Mol. Sci., 2020, 11,
     e01493. DOI: 10.1002/wcms.1493
   
   for GFN2-xTB:
   * C. Bannwarth, S. Ehlert and S. Grimme., J. Chem. Theory Comput., 2019,
     15, 1652-1671. DOI: 10.1021/acs.jctc.8b01176
   for GFN1-xTB:
   * S. Grimme, C. Bannwarth, P. Shushkov, J. Chem. Theory Comput., 2017,
     13, 1989-2009. DOI: 10.1021/acs.jctc.7b00118
   for GFN0-xTB:
   * P. Pracht, E. Caldeweyher, S. Ehlert, S. Grimme, ChemRxiv, 2019, preprint.
     DOI: 10.26434/chemrxiv.8326202.v1
   for GFN-FF:
   * S. Spicher and S. Grimme, Angew. Chem. Int. Ed., 2020, 59, 15665-15673.
     DOI: 10.1002/anie.202004239
   
   for ALPB and GBSA implicit solvation:
   * S. Ehlert, M. Stahn, S. Spicher, S. Grimme, J. Chem. Theory Comput.,
     2021, 17, 4250-4261. DOI: 10.1021/acs.jctc.1c00471
   
   for DFT-D4:
   * E. Caldeweyher, C. Bannwarth and S. Grimme, J. Chem. Phys., 2017,
     147, 034112. DOI: 10.1063/1.4993215
   * E. Caldeweyher, S. Ehlert, A. Hansen, H. Neugebauer, S. Spicher,
     C. Bannwarth and S. Grimme, J. Chem. Phys., 2019, 150, 154122.
     DOI: 10.1063/1.5090222
   * E. Caldeweyher, J.-M. Mewes, S. Ehlert and S. Grimme, Phys. Chem. Chem. Phys.
     2020, 22, 8499-8512. DOI: 10.1039/D0CP00502A
   
   for sTDA-xTB:
   * S. Grimme and C. Bannwarth, J. Chem. Phys., 2016, 145, 054103.
     DOI: 10.1063/1.4959605
   
   in the mass-spec context:
   * V. Asgeirsson, C. Bauer and S. Grimme, Chem. Sci., 2017, 8, 4879.
     DOI: 10.1039/c7sc00601b
   * J. Koopman and S. Grimme, ACS Omega 2019, 4, 12, 15120-15133.
     DOI: 10.1021/acsomega.9b02011
   
   for metadynamics refer to:
   * S. Grimme, J. Chem. Theory Comput., 2019, 155, 2847-2862
     DOI: 10.1021/acs.jctc.9b00143
   
   for SPH calculations refer to:
   * S. Spicher and S. Grimme, J. Chem. Theory Comput., 2021, 17, 1701-1714
     DOI: 10.1021/acs.jctc.0c01306
   
   with help from (in alphabetical order)
   P. Atkinson, C. Bannwarth, F. Bohle, G. Brandenburg, E. Caldeweyher
   M. Checinski, S. Dohm, S. Ehlert, S. Ehrlich, I. Gerasimov, C. Hölzer
   A. Katbashev, J. Koopman, C. Lavigne, S. Lehtola, F. März, M. Müller,
   F. Musil, H. Neugebauer, J. Pisarek, C. Plett, P. Pracht, F. Pultar,
   J. Seibert, P. Shushkov, S. Spicher, M. Stahn, M. Steiner, T. Strunk,
   J. Stückrath, T. Rose, and J. Unsleber
   
 * started run on 2023/01/23 at 19:13:38.947     

           -------------------------------------------------
          |                Calculation Setup                |
           -------------------------------------------------

          program call               : xtb init.xyz --opt -c 1 -u 0 -P 16 --input xtb.inp
          hostname                   : gpg-woodward
          coordinate file            : init.xyz
          omp threads                :                    16

   ID    Z sym.   atoms
    1    7 N      1
    2    6 C      2-17
    3    1 H      18-35

           -------------------------------------------------
          |                 G F N 2 - x T B                 |
           -------------------------------------------------

        Reference                      10.1021/acs.jctc.8b01176
      * Hamiltonian:
        H0-scaling (s, p, d)           1.850000    2.230000    2.230000
        zeta-weighting                 0.500000
      * Dispersion:
        s8                             2.700000
        a1                             0.520000
        a2                             5.000000
        s9                             5.000000
      * Repulsion:
        kExp                           1.500000    1.000000
        rExp                           1.000000
      * Coulomb:
        alpha                          2.000000
        third order                    shell-resolved
        anisotropic                    true
        a3                             3.000000
        a5                             4.000000
        cn-shift                       1.200000
        cn-exp                         4.000000
        max-rad                        5.000000


          ...................................................
          :                      SETUP                      :
          :.................................................:
          :  # basis functions                  86          :
          :  # atomic orbitals                  86          :
          :  # shells                           52          :
          :  # electrons                        86          :
          :  max. iterations                   250          :
          :  Hamiltonian                  GFN2-xTB          :
          :  restarted?                      false          :
          :  GBSA solvation                  false          :
          :  PC potential                    false          :
          :  electronic temp.          300.0000000     K    :
          :  accuracy                    1.0000000          :
          :  -> integral cutoff          0.2500000E+02      :
          :  -> integral neglect         0.1000000E-07      :
          :  -> SCF convergence          0.1000000E-05 Eh   :
          :  -> wf. convergence          0.1000000E-03 e    :
          :  Broyden damping             0.4000000          :
          ...................................................

 iter      E             dE          RMSdq      gap      omega  full diag
   1    -46.5630673 -0.465631E+02  0.438E+00    3.05       0.0  T
   2    -46.6879359 -0.124869E+00  0.257E+00    2.91       1.0  T
   3    -46.6887653 -0.829457E-03  0.114E+00    2.79       1.0  T
   4    -46.6847652  0.400008E-02  0.530E-01    2.64       1.0  T
   5    -46.6940887 -0.932343E-02  0.966E-02    2.70       1.0  T
   6    -46.6940525  0.361584E-04  0.609E-02    2.71       1.0  T
   7    -46.6941296 -0.771224E-04  0.165E-02    2.71       1.0  T
   8    -46.6941360 -0.632776E-05  0.663E-03    2.71       2.5  T
   9    -46.6941369 -0.927014E-06  0.244E-03    2.71       6.9  T
  10    -46.6941369 -0.565709E-07  0.102E-03    2.71      16.6  T
  11    -46.6941369 -0.814084E-08  0.416E-04    2.71      40.6  T
  12    -46.6941370 -0.280262E-08  0.165E-04    2.71     102.6  T

   *** convergence criteria satisfied after 12 iterations ***

         #    Occupation            Energy/Eh            Energy/eV
      -------------------------------------------------------------
         1        2.0000           -0.8903057             -24.2265
       ...           ...                  ...                  ...
        37        2.0000           -0.5154537             -14.0262
        38        2.0000           -0.5105090             -13.8917
        39        2.0000           -0.4925616             -13.4033
        40        2.0000           -0.4871625             -13.2564
        41        2.0000           -0.4832377             -13.1496
        42        2.0000           -0.4652466             -12.6600
        43        2.0000           -0.4523979             -12.3104 (HOMO)
        44                         -0.3528151              -9.6006 (LUMO)
        45                         -0.3348503              -9.1117
        46                         -0.3024084              -8.2290
        47                         -0.2888521              -7.8601
        48                         -0.2549627              -6.9379
       ...                                ...                  ...
        86                          0.5873320              15.9821
      -------------------------------------------------------------
                  HL-Gap            0.0995828 Eh            2.7098 eV
             Fermi-level           -0.4026065 Eh          -10.9555 eV

 SCC (total)                   0 d,  0 h,  0 min,  0.080 sec
 SCC setup                      ...        0 min,  0.000 sec (  0.304%)
 Dispersion                     ...        0 min,  0.001 sec (  0.683%)
 classical contributions        ...        0 min,  0.000 sec (  0.130%)
 integral evaluation            ...        0 min,  0.001 sec (  1.749%)
 iterations                     ...        0 min,  0.072 sec ( 90.205%)
 molecular gradient             ...        0 min,  0.004 sec (  5.411%)
 printout                       ...        0 min,  0.001 sec (  1.109%)

         :::::::::::::::::::::::::::::::::::::::::::::::::::::
         ::                     SUMMARY                     ::
         :::::::::::::::::::::::::::::::::::::::::::::::::::::
         :: total energy             -45.887545631520 Eh    ::
         :: gradient norm              0.044072327982 Eh/a0 ::
         :: HOMO-LUMO gap              2.709785729001 eV    ::
         ::.................................................::
         :: SCC energy               -46.694136952010 Eh    ::
         :: -> isotropic ES            0.104851504633 Eh    ::
         :: -> anisotropic ES         -0.008387938256 Eh    ::
         :: -> anisotropic XC          0.034291308549 Eh    ::
         :: -> dispersion             -0.031047559948 Eh    ::
         :: repulsion energy           0.806828167509 Eh    ::
         :: add. restraining           0.000000000000 Eh    ::
         :: total charge               1.000000000000 e     ::
         :::::::::::::::::::::::::::::::::::::::::::::::::::::

      ----------------------------------------------------------- 
     |                   =====================                   |
     |                        A N C O P T                        |
     |                   =====================                   |
     |               Approximate Normal Coordinate               |
     |                Rational Function Optimizer                |
      ----------------------------------------------------------- 

          ...................................................
          :                      SETUP                      :
          :.................................................:
          :   optimization level            normal          :
          :   max. optcycles                   200          :
          :   ANC micro-cycles                  20          :
          :   degrees of freedom                99          :
          :.................................................:
          :   RF solver                   davidson          :
          :   write xtbopt.log                true          :
          :   linear?                        false          :
          :   energy convergence         0.5000000E-05 Eh   :
          :   grad. convergence          0.1000000E-02 Eh/α :
          :   maximium RF displ.         1.0000000          :
          :   Hlow (freq-cutoff)         0.1000000E-01      :
          :   Hmax (freq-cutoff)         5.0000000          :
          :   S6 in model hess.         20.0000000          :
          ...................................................

generating ANC from model Hessian ...
Using Lindh-Hessian (1995)
 Shifting diagonal of input Hessian by    9.7251705830392332E-003
 Lowest  eigenvalues of input Hessian
    0.000000    0.000000    0.000000    0.000000    0.000000    0.000000
    0.010000    0.010382    0.010560    0.011241    0.011567    0.013112
    0.014094    0.015598    0.017838    0.020325    0.023346    0.023651
 Highest eigenvalues
    1.832642    1.861577    1.924696    1.948968    1.953875    2.035698


........................................................................
.............................. CYCLE    1 ..............................
........................................................................
   1    -46.6941370 -0.466941E+02  0.642E-05    2.71       0.0  T
   2    -46.6941370 -0.127471E-10  0.424E-05    2.71     398.9  T
   3    -46.6941370  0.852651E-13  0.266E-05    2.71     634.8  T
     SCC iter.                  ...        0 min,  0.019 sec
     gradient                   ...        0 min,  0.004 sec
 * total energy  :   -45.8875456 Eh     change       -0.8263612E-10 Eh
   gradient norm :     0.0440724 Eh/α   predicted     0.0000000E+00 (-100.00%)
   displ. norm   :     0.2230355 α      lambda       -0.5189164E-02
   maximum displ.:     0.0810433 α      in ANC's #25, #7, #4, ...

........................................................................
.............................. CYCLE    2 ..............................
........................................................................
   1    -46.7289600 -0.467290E+02  0.152E-01    2.68       0.0  T
   2    -46.7289738 -0.137980E-04  0.898E-02    2.70       1.0  T
   3    -46.7289354  0.383647E-04  0.434E-02    2.70       1.0  T
   4    -46.7289802 -0.447468E-04  0.688E-03    2.70       2.5  T
   5    -46.7289813 -0.113834E-05  0.275E-03    2.70       6.1  T
   6    -46.7289814 -0.994100E-07  0.126E-03    2.70      13.5  T
   7    -46.7289814 -0.836437E-08  0.330E-04    2.70      51.3  T
   8    -46.7289814 -0.136495E-08  0.132E-04    2.70     128.2  T
     SCC iter.                  ...        0 min,  0.048 sec
     gradient                   ...        0 min,  0.004 sec
 * total energy  :   -45.8908892 Eh     change       -0.3343548E-02 Eh
   gradient norm :     0.0185678 Eh/α   predicted    -0.2724069E-02 ( -18.53%)
   displ. norm   :     0.2261854 α      lambda       -0.1222856E-02
   maximum displ.:     0.1102896 α      in ANC's #7, #4, #5, ...

........................................................................
.............................. CYCLE    3 ..............................
........................................................................
   1    -46.7426118 -0.467426E+02  0.846E-02    2.66       0.0  T
   2    -46.7426198 -0.792321E-05  0.497E-02    2.67       1.0  T
   3    -46.7426058  0.139340E-04  0.303E-02    2.67       1.0  T
   4    -46.7426253 -0.194408E-04  0.454E-03    2.67       3.7  T
   5    -46.7426257 -0.441653E-06  0.192E-03    2.67       8.8  T
   6    -46.7426258 -0.828143E-07  0.790E-04    2.67      21.4  T
   7    -46.7426258 -0.286290E-08  0.251E-04    2.67      67.4  T
     SCC iter.                  ...        0 min,  0.043 sec
     gradient                   ...        0 min,  0.004 sec
 * total energy  :   -45.8917035 Eh     change       -0.8143237E-03 Eh
   gradient norm :     0.0069526 Eh/α   predicted    -0.6433713E-03 ( -20.99%)
   displ. norm   :     0.2809836 α      lambda       -0.6300134E-03
   maximum displ.:     0.1466179 α      in ANC's #4, #5, #7, ...

........................................................................
.............................. CYCLE    4 ..............................
........................................................................
   1    -46.7451376 -0.467451E+02  0.853E-02    2.62       0.0  T
   2    -46.7451461 -0.855384E-05  0.498E-02    2.63       1.0  T
   3    -46.7451314  0.147242E-04  0.307E-02    2.63       1.0  T
   4    -46.7451527 -0.213029E-04  0.423E-03    2.63       4.0  T
   5    -46.7451531 -0.425784E-06  0.173E-03    2.63       9.7  T
   6    -46.7451532 -0.763624E-07  0.691E-04    2.63      24.5  T
   7    -46.7451532 -0.259559E-08  0.268E-04    2.63      63.1  T
     SCC iter.                  ...        0 min,  0.043 sec
     gradient                   ...        0 min,  0.004 sec
 * total energy  :   -45.8921999 Eh     change       -0.4963509E-03 Eh
   gradient norm :     0.0069916 Eh/α   predicted    -0.3398804E-03 ( -31.52%)
   displ. norm   :     0.4581165 α      lambda       -0.7692794E-03
   maximum displ.:     0.2353751 α      in ANC's #4, #5, #7, ...

........................................................................
.............................. CYCLE    5 ..............................
........................................................................
   1    -46.7423904 -0.467424E+02  0.139E-01    2.57       0.0  T
   2    -46.7424068 -0.164219E-04  0.813E-02    2.58       1.0  T
   3    -46.7423639  0.429447E-04  0.457E-02    2.58       1.0  T
   4    -46.7424193 -0.554014E-04  0.604E-03    2.58       2.8  T
   5    -46.7424202 -0.904895E-06  0.235E-03    2.58       7.2  T
   6    -46.7424203 -0.135568E-06  0.971E-04    2.58      17.4  T
   7    -46.7424203 -0.622212E-08  0.400E-04    2.58      42.3  T
     SCC iter.                  ...        0 min,  0.038 sec
     gradient                   ...        0 min,  0.004 sec
 * total energy  :   -45.8928057 Eh     change       -0.6058473E-03 Eh
   gradient norm :     0.0115973 Eh/α   predicted    -0.4653650E-03 ( -23.19%)
   displ. norm   :     0.4740300 α      lambda       -0.6787425E-03
   maximum displ.:     0.2490952 α      in ANC's #5, #4, #3, ...

........................................................................
.............................. CYCLE    6 ..............................
........................................................................
   1    -46.7378793 -0.467379E+02  0.147E-01    2.54       0.0  T
   2    -46.7378927 -0.133913E-04  0.863E-02    2.55       1.0  T
   3    -46.7378480  0.447330E-04  0.420E-02    2.55       1.0  T
   4    -46.7379018 -0.538729E-04  0.573E-03    2.55       3.0  T
   5    -46.7379027 -0.813148E-06  0.217E-03    2.55       7.8  T
   6    -46.7379028 -0.111340E-06  0.910E-04    2.55      18.6  T
   7    -46.7379028 -0.542756E-08  0.389E-04    2.55      43.4  T
     SCC iter.                  ...        0 min,  0.038 sec
     gradient                   ...        0 min,  0.004 sec
 * total energy  :   -45.8933585 Eh     change       -0.5527791E-03 Eh
   gradient norm :     0.0127710 Eh/α   predicted    -0.4156319E-03 ( -24.81%)
   displ. norm   :     0.5013590 α      lambda       -0.7252729E-03
   maximum displ.:     0.2714317 α      in ANC's #5, #4, #3, ...

........................................................................
.............................. CYCLE    7 ..............................
........................................................................
   1    -46.7344510 -0.467345E+02  0.158E-01    2.52       0.0  T
   2    -46.7344629 -0.119353E-04  0.929E-02    2.53       1.0  T
   3    -46.7344222  0.407021E-04  0.371E-02    2.53       1.0  T
   4    -46.7344698 -0.475926E-04  0.558E-03    2.53       3.0  T
   5    -46.7344705 -0.744826E-06  0.213E-03    2.53       7.9  T
   6    -46.7344706 -0.101854E-06  0.880E-04    2.53      19.2  T
   7    -46.7344706 -0.362849E-08  0.376E-04    2.53      45.0  T
     SCC iter.                  ...        0 min,  0.038 sec
     gradient                   ...        0 min,  0.004 sec
 * total energy  :   -45.8939343 Eh     change       -0.5758199E-03 Eh
   gradient norm :     0.0104412 Eh/α   predicted    -0.4537927E-03 ( -21.19%)
   displ. norm   :     0.4734305 α      lambda       -0.6931063E-03
   maximum displ.:     0.2678617 α      in ANC's #5, #4, #3, ...

........................................................................
.............................. CYCLE    8 ..............................
........................................................................
   1    -46.7344036 -0.467344E+02  0.152E-01    2.53       0.0  T
   2    -46.7344141 -0.104912E-04  0.890E-02    2.53       1.0  T
   3    -46.7343817  0.324032E-04  0.321E-02    2.53       1.0  T
   4    -46.7344200 -0.382372E-04  0.470E-03    2.53       3.6  T
   5    -46.7344205 -0.498349E-06  0.202E-03    2.53       8.4  T
   6    -46.7344206 -0.851207E-07  0.800E-04    2.53      21.1  T
   7    -46.7344206 -0.219293E-08  0.326E-04    2.53      51.8  T
     SCC iter.                  ...        0 min,  0.038 sec
     gradient                   ...        0 min,  0.004 sec
 * total energy  :   -45.8944656 Eh     change       -0.5313036E-03 Eh
   gradient norm :     0.0073532 Eh/α   predicted    -0.4242528E-03 ( -20.15%)
   displ. norm   :     0.4263183 α      lambda       -0.5654916E-03
   maximum displ.:     0.2537813 α      in ANC's #5, #3, #4, ...

........................................................................
.............................. CYCLE    9 ..............................
........................................................................
   1    -46.7368945 -0.467369E+02  0.140E-01    2.53       0.0  T
   2    -46.7369055 -0.109889E-04  0.816E-02    2.53       1.0  T
   3    -46.7368746  0.309055E-04  0.320E-02    2.53       1.0  T
   4    -46.7369118 -0.371999E-04  0.438E-03    2.53       3.9  T
   5    -46.7369123 -0.444994E-06  0.188E-03    2.53       9.0  T
   6    -46.7369123 -0.749388E-07  0.751E-04    2.53      22.5  T
   7    -46.7369123 -0.246879E-08  0.297E-04    2.53      57.0  T
     SCC iter.                  ...        0 min,  0.040 sec
     gradient                   ...        0 min,  0.004 sec
 * total energy  :   -45.8948988 Eh     change       -0.4332287E-03 Eh
   gradient norm :     0.0075240 Eh/α   predicted    -0.3341348E-03 ( -22.87%)
   displ. norm   :     0.4310706 α      lambda       -0.4739158E-03
   maximum displ.:     0.2771759 α      in ANC's #5, #3, #4, ...

........................................................................
.............................. CYCLE   10 ..............................
........................................................................
   1    -46.7392320 -0.467392E+02  0.150E-01    2.52       0.0  T
   2    -46.7392472 -0.151818E-04  0.873E-02    2.53       1.0  T
   3    -46.7392082  0.390171E-04  0.371E-02    2.53       1.0  T
   4    -46.7392559 -0.477124E-04  0.519E-03    2.53       3.3  T
   5    -46.7392566 -0.686469E-06  0.194E-03    2.53       8.7  T
   6    -46.7392567 -0.844808E-07  0.785E-04    2.53      21.5  T
   7    -46.7392567 -0.307705E-08  0.337E-04    2.53      50.1  T
     SCC iter.                  ...        0 min,  0.038 sec
     gradient                   ...        0 min,  0.004 sec
 * total energy  :   -45.8952681 Eh     change       -0.3692318E-03 Eh
   gradient norm :     0.0076810 Eh/α   predicted    -0.2809954E-03 ( -23.90%)
   displ. norm   :     0.4528212 α      lambda       -0.4128727E-03
   maximum displ.:     0.3129092 α      in ANC's #5, #3, #14, ...

........................................................................
.............................. CYCLE   11 ..............................
........................................................................
   1    -46.7395253 -0.467395E+02  0.168E-01    2.51       0.0  T
   2    -46.7395481 -0.228457E-04  0.978E-02    2.51       1.0  T
   3    -46.7394978  0.502823E-04  0.438E-02    2.51       1.0  T
   4    -46.7395608 -0.629105E-04  0.632E-03    2.51       2.7  T
   5    -46.7395618 -0.103565E-05  0.231E-03    2.51       7.3  T
   6    -46.7395619 -0.131984E-06  0.882E-04    2.51      19.2  T
   7    -46.7395619 -0.456451E-08  0.410E-04    2.51      41.3  T
     SCC iter.                  ...        0 min,  0.038 sec
     gradient                   ...        0 min,  0.004 sec
 * total energy  :   -45.8955895 Eh     change       -0.3214346E-03 Eh
   gradient norm :     0.0064067 Eh/α   predicted    -0.2487669E-03 ( -22.61%)
   displ. norm   :     0.3819535 α      lambda       -0.3566078E-03
   maximum displ.:     0.2671219 α      in ANC's #5, #3, #14, ...

........................................................................
.............................. CYCLE   12 ..............................
........................................................................
   1    -46.7433720 -0.467434E+02  0.152E-01    2.51       0.0  T
   2    -46.7433884 -0.163711E-04  0.887E-02    2.51       1.0  T
   3    -46.7433500  0.384423E-04  0.384E-02    2.51       1.0  T
   4    -46.7433987 -0.487155E-04  0.417E-03    2.51       4.1  T
   5    -46.7433992 -0.507704E-06  0.139E-03    2.51      12.1  T
   6    -46.7433992 -0.241727E-07  0.732E-04    2.51      23.1  T
   7    -46.7433992 -0.439427E-08  0.297E-04    2.51      56.9  T
     SCC iter.                  ...        0 min,  0.038 sec
     gradient                   ...        0 min,  0.004 sec
 * total energy  :   -45.8957964 Eh     change       -0.2068583E-03 Eh
   gradient norm :     0.0076595 Eh/α   predicted    -0.2043171E-03 (  -1.23%)
   displ. norm   :     0.5757548 α      lambda       -0.4501839E-03
   maximum displ.:     0.4255806 α      in ANC's #5, #3, #14, ...

........................................................................
.............................. CYCLE   13 ..............................
........................................................................
   1    -46.7336967 -0.467337E+02  0.229E-01    2.46       0.0  T
   2    -46.7337630 -0.663329E-04  0.133E-01    2.46       1.0  T
   3    -46.7336862  0.768198E-04  0.621E-02    2.47       1.0  T
   4    -46.7337901 -0.103871E-03  0.949E-03    2.47       1.8  T
   5    -46.7337919 -0.184615E-05  0.495E-03    2.47       3.4  T
   6    -46.7337926 -0.660637E-06  0.171E-03    2.47       9.9  T
   7    -46.7337926 -0.155248E-07  0.788E-04    2.47      21.4  T
   8    -46.7337926 -0.982999E-08  0.124E-04    2.47     136.6  T
     SCC iter.                  ...        0 min,  0.043 sec
     gradient                   ...        0 min,  0.003 sec
 * total energy  :   -45.8958704 Eh     change       -0.7406133E-04 Eh
   gradient norm :     0.0125655 Eh/α   predicted    -0.2997363E-03 ( 304.71%)
   displ. norm   :     0.1726743 α      lambda       -0.3402843E-03
   maximum displ.:     0.0943201 α      in ANC's #5, #3, #4, ...

........................................................................
.............................. CYCLE   14 ..............................
........................................................................
   1    -46.7397732 -0.467398E+02  0.581E-02    2.49       0.0  T
   2    -46.7397788 -0.555080E-05  0.341E-02    2.49       1.0  T
   3    -46.7397734  0.542482E-05  0.167E-02    2.49       1.0  T
   4    -46.7397805 -0.713338E-05  0.386E-03    2.49       4.4  T
   5    -46.7397808 -0.277955E-06  0.169E-03    2.49      10.0  T
   6    -46.7397808 -0.736888E-07  0.647E-04    2.49      26.1  T
   7    -46.7397808 -0.199188E-08  0.253E-04    2.49      66.7  T
     SCC iter.                  ...        0 min,  0.038 sec
     gradient                   ...        0 min,  0.004 sec
 * total energy  :   -45.8960774 Eh     change       -0.2069992E-03 Eh
   gradient norm :     0.0055140 Eh/α   predicted    -0.1752160E-03 ( -15.35%)
   displ. norm   :     0.1684478 α      lambda       -0.1622443E-03
   maximum displ.:     0.1154301 α      in ANC's #5, #4, #3, ...

........................................................................
.............................. CYCLE   15 ..............................
........................................................................
   1    -46.7409026 -0.467409E+02  0.684E-02    2.50       0.0  T
   2    -46.7409058 -0.319758E-05  0.399E-02    2.49       1.0  T
   3    -46.7408990  0.681341E-05  0.185E-02    2.49       1.0  T
   4    -46.7409079 -0.892771E-05  0.167E-03    2.49      10.1  T
   5    -46.7409080 -0.640467E-07  0.609E-04    2.49      27.7  T
   6    -46.7409080 -0.201995E-08  0.353E-04    2.49      47.9  T
     SCC iter.                  ...        0 min,  0.033 sec
     gradient                   ...        0 min,  0.003 sec
 * total energy  :   -45.8962088 Eh     change       -0.1314157E-03 Eh
   gradient norm :     0.0044630 Eh/α   predicted    -0.8342600E-04 ( -36.52%)
   displ. norm   :     0.3532340 α      lambda       -0.2719685E-03
   maximum displ.:     0.2375443 α      in ANC's #5, #4, #3, ...

........................................................................
.............................. CYCLE   16 ..............................
........................................................................
   1    -46.7416526 -0.467417E+02  0.138E-01    2.50       0.0  T
   2    -46.7416651 -0.125018E-04  0.803E-02    2.50       1.0  T
   3    -46.7416390  0.260430E-04  0.358E-02    2.50       1.0  T
   4    -46.7416728 -0.337858E-04  0.314E-03    2.50       5.4  T
   5    -46.7416730 -0.197360E-06  0.133E-03    2.50      12.7  T
   6    -46.7416730 -0.159675E-07  0.713E-04    2.50      23.7  T
   7    -46.7416730 -0.579043E-08  0.268E-04    2.50      63.2  T
     SCC iter.                  ...        0 min,  0.038 sec
     gradient                   ...        0 min,  0.003 sec
 * total energy  :   -45.8963995 Eh     change       -0.1907039E-03 Eh
   gradient norm :     0.0045206 Eh/α   predicted    -0.1529563E-03 ( -19.79%)
   displ. norm   :     0.3385011 α      lambda       -0.1607495E-03
   maximum displ.:     0.2590701 α      in ANC's #5, #4, #3, ...

........................................................................
.............................. CYCLE   17 ..............................
........................................................................
   1    -46.7383439 -0.467383E+02  0.138E-01    2.49       0.0  T
   2    -46.7383541 -0.102703E-04  0.802E-02    2.49       1.0  T
   3    -46.7383318  0.223765E-04  0.312E-02    2.49       1.0  T
   4    -46.7383599 -0.281810E-04  0.236E-03    2.49       7.2  T
   5    -46.7383600 -0.958270E-07  0.115E-03    2.49      14.7  T
   6    -46.7383600 -0.127623E-07  0.512E-04    2.49      33.0  T
   7    -46.7383600  0.429331E-09  0.260E-04    2.49      65.1  T
     SCC iter.                  ...        0 min,  0.038 sec
     gradient                   ...        0 min,  0.003 sec
 * total energy  :   -45.8964837 Eh     change       -0.8416906E-04 Eh
   gradient norm :     0.0053371 Eh/α   predicted    -0.8958532E-04 (   6.43%)
   displ. norm   :     0.1610411 α      lambda       -0.1120434E-03
   maximum displ.:     0.1069683 α      in ANC's #4, #1, #6, ...

........................................................................
.............................. CYCLE   18 ..............................
........................................................................
   1    -46.7402858 -0.467403E+02  0.464E-02    2.50       0.0  T
   2    -46.7402868 -0.102624E-05  0.270E-02    2.50       1.0  T
   3    -46.7402853  0.151117E-05  0.822E-03    2.50       2.1  T
   4    -46.7402871 -0.174661E-05  0.183E-03    2.50       9.2  T
   5    -46.7402871 -0.687233E-07  0.637E-04    2.50      26.5  T
   6    -46.7402871 -0.576859E-08  0.333E-04    2.50      50.8  T
     SCC iter.                  ...        0 min,  0.033 sec
     gradient                   ...        0 min,  0.003 sec
 * total energy  :   -45.8965513 Eh     change       -0.6756153E-04 Eh
   gradient norm :     0.0042494 Eh/α   predicted    -0.5747540E-04 ( -14.93%)
   displ. norm   :     0.1104594 α      lambda       -0.8340694E-04
   maximum displ.:     0.0524900 α      in ANC's #14, #4, #5, ...

........................................................................
.............................. CYCLE   19 ..............................
........................................................................
   1    -46.7410255 -0.467410E+02  0.343E-02    2.49       0.0  T
   2    -46.7410260 -0.517002E-06  0.202E-02    2.50       1.0  T
   3    -46.7410249  0.117629E-05  0.592E-03    2.49       2.9  T
   4    -46.7410262 -0.137367E-05  0.869E-04    2.50      19.4  T
   5    -46.7410262 -0.158237E-07  0.393E-04    2.50      43.0  T
   6    -46.7410262 -0.911548E-09  0.228E-04    2.50      74.2  T
     SCC iter.                  ...        0 min,  0.033 sec
     gradient                   ...        0 min,  0.003 sec
 * total energy  :   -45.8966113 Eh     change       -0.6008041E-04 Eh
   gradient norm :     0.0036065 Eh/α   predicted    -0.4221308E-04 ( -29.74%)
   displ. norm   :     0.1655249 α      lambda       -0.9222951E-04
   maximum displ.:     0.0752145 α      in ANC's #5, #14, #4, ...

........................................................................
.............................. CYCLE   20 ..............................
........................................................................
   1    -46.7410791 -0.467411E+02  0.528E-02    2.49       0.0  T
   2    -46.7410800 -0.895549E-06  0.310E-02    2.49       1.0  T
   3    -46.7410795  0.527525E-06  0.467E-03    2.49       3.6  T
   4    -46.7410801 -0.643978E-06  0.148E-03    2.49      11.4  T
   5    -46.7410802 -0.574337E-07  0.539E-04    2.49      31.4  T
   6    -46.7410802 -0.477023E-09  0.308E-04    2.49      54.8  T
     SCC iter.                  ...        0 min,  0.032 sec
     gradient                   ...        0 min,  0.004 sec
 * total energy  :   -45.8966574 Eh     change       -0.4606917E-04 Eh
   gradient norm :     0.0040519 Eh/α   predicted    -0.4737924E-04 (   2.84%)
   displ. norm   :     0.0996190 α      lambda       -0.4939539E-04
   maximum displ.:     0.0713701 α      in ANC's #5, #1, #4, ...
 * RMSD in coord.:     0.7856440 α      energy gain  -0.9111786E-02 Eh

generating ANC from model Hessian ...
Using Lindh-Hessian (1995)
 Shifting diagonal of input Hessian by    9.6594679837997775E-003
 Lowest  eigenvalues of input Hessian
    0.000000    0.000000    0.000000    0.000000    0.000000    0.000000
    0.010000    0.010362    0.010691    0.011447    0.012211    0.013652
    0.014938    0.016803    0.018627    0.021020    0.024156    0.024907
 Highest eigenvalues
    1.890213    1.916840    1.967595    2.012078    2.033231    2.113931


........................................................................
.............................. CYCLE   21 ..............................
........................................................................
   1    -46.7399294 -0.467399E+02  0.374E-02    2.48       0.0  T
   2    -46.7399302 -0.762785E-06  0.221E-02    2.48       1.0  T
   3    -46.7399277  0.245542E-05  0.923E-03    2.48       1.8  T
   4    -46.7399306 -0.286557E-05  0.149E-03    2.48      11.3  T
   5    -46.7399307 -0.664537E-07  0.382E-04    2.48      44.2  T
   6    -46.7399307 -0.210788E-08  0.180E-04    2.48      94.1  T
     SCC iter.                  ...        0 min,  0.033 sec
     gradient                   ...        0 min,  0.003 sec
 * total energy  :   -45.8966832 Eh     change       -0.2582349E-04 Eh
   gradient norm :     0.0040037 Eh/α   predicted     0.0000000E+00 (-100.00%)
   displ. norm   :     0.0391118 α      lambda       -0.3911758E-04
   maximum displ.:     0.0203804 α      in ANC's #6, #7, #10, ...

........................................................................
.............................. CYCLE   22 ..............................
........................................................................
   1    -46.7403608 -0.467404E+02  0.153E-02    2.49       0.0  T
   2    -46.7403610 -0.215305E-06  0.921E-03    2.49       1.8  T
   3    -46.7403605  0.504729E-06  0.434E-03    2.49       3.9  T
   4    -46.7403611 -0.636277E-06  0.416E-04    2.49      40.6  T
   5    -46.7403611 -0.309286E-08  0.210E-04    2.49      80.5  T
     SCC iter.                  ...        0 min,  0.027 sec
     gradient                   ...        0 min,  0.004 sec
 * total energy  :   -45.8967166 Eh     change       -0.3336256E-04 Eh
   gradient norm :     0.0018103 Eh/α   predicted    -0.2178808E-04 ( -34.69%)
   displ. norm   :     0.1152226 α      lambda       -0.4351995E-04
   maximum displ.:     0.0627888 α      in ANC's #6, #7, #10, ...

........................................................................
.............................. CYCLE   23 ..............................
........................................................................
   1    -46.7408391 -0.467408E+02  0.391E-02    2.50       0.0  T
   2    -46.7408398 -0.776220E-06  0.230E-02    2.49       1.0  T
   3    -46.7408375  0.236304E-05  0.820E-03    2.50       2.1  T
   4    -46.7408403 -0.280479E-05  0.846E-04    2.49      20.0  T
   5    -46.7408403 -0.146183E-07  0.412E-04    2.49      41.1  T
   6    -46.7408403 -0.140684E-08  0.244E-04    2.49      69.2  T
     SCC iter.                  ...        0 min,  0.032 sec
     gradient                   ...        0 min,  0.003 sec
 * total energy  :   -45.8967450 Eh     change       -0.2843043E-04 Eh
   gradient norm :     0.0028948 Eh/α   predicted    -0.2188916E-04 ( -23.01%)
   displ. norm   :     0.0208470 α      lambda       -0.1121379E-04
   maximum displ.:     0.0091057 α      in ANC's #6, #2, #7, ...

........................................................................
.............................. CYCLE   24 ..............................
........................................................................
   1    -46.7407808 -0.467408E+02  0.828E-03    2.49       0.0  T
   2    -46.7407809 -0.385841E-07  0.499E-03    2.49       3.4  T
   3    -46.7407807  0.138560E-06  0.225E-03    2.49       7.5  T
   4    -46.7407809 -0.162364E-06  0.290E-04    2.49      58.3  T
   5    -46.7407809 -0.207840E-08  0.109E-04    2.49     155.5  T
     SCC iter.                  ...        0 min,  0.027 sec
     gradient                   ...        0 min,  0.004 sec
 * total energy  :   -45.8967547 Eh     change       -0.9655631E-05 Eh
   gradient norm :     0.0018854 Eh/α   predicted    -0.5609752E-05 ( -41.90%)
   displ. norm   :     0.1189436 α      lambda       -0.2546686E-04
   maximum displ.:     0.0530739 α      in ANC's #2, #6, #7, ...

........................................................................
.............................. CYCLE   25 ..............................
........................................................................
   1    -46.7404902 -0.467405E+02  0.453E-02    2.48       0.0  T
   2    -46.7404909 -0.630236E-06  0.269E-02    2.49       1.0  T
   3    -46.7404882  0.269761E-05  0.952E-03    2.48       1.8  T
   4    -46.7404912 -0.306391E-05  0.120E-03    2.49      14.1  T
   5    -46.7404913 -0.344608E-07  0.453E-04    2.49      37.3  T
   6    -46.7404913 -0.391296E-08  0.221E-04    2.49      76.4  T
     SCC iter.                  ...        0 min,  0.033 sec
     gradient                   ...        0 min,  0.004 sec
 * total energy  :   -45.8967693 Eh     change       -0.1456486E-04 Eh
   gradient norm :     0.0018697 Eh/α   predicted    -0.1281450E-04 ( -12.02%)
   displ. norm   :     0.0153084 α      lambda       -0.4572579E-05
   maximum displ.:     0.0088317 α      in ANC's #2, #4, #1, ...

........................................................................
.............................. CYCLE   26 ..............................
........................................................................
   1    -46.7406356 -0.467406E+02  0.686E-03    2.49       0.0  T
   2    -46.7406356 -0.347630E-07  0.414E-03    2.49       4.1  T
   3    -46.7406355  0.948760E-07  0.190E-03    2.49       8.9  T
   4    -46.7406356 -0.116734E-06  0.207E-04    2.49      81.5  T
   5    -46.7406356 -0.766953E-09  0.105E-04    2.49     160.5  T
     SCC iter.                  ...        0 min,  0.027 sec
     gradient                   ...        0 min,  0.004 sec
 * total energy  :   -45.8967745 Eh     change       -0.5241908E-05 Eh
   gradient norm :     0.0007356 Eh/α   predicted    -0.2288428E-05 ( -56.34%)
   displ. norm   :     0.0497676 α      lambda       -0.5377639E-05
   maximum displ.:     0.0296268 α      in ANC's #2, #4, #1, ...

........................................................................
.............................. CYCLE   27 ..............................
........................................................................
   1    -46.7407003 -0.467407E+02  0.195E-02    2.49       0.0  T
   2    -46.7407004 -0.586841E-07  0.114E-02    2.49       1.5  T
   3    -46.7407001  0.223691E-06  0.263E-03    2.49       6.4  T
   4    -46.7407004 -0.261131E-06  0.229E-04    2.49      74.0  T
   5    -46.7407004 -0.478238E-09  0.126E-04    2.49     134.2  T
     SCC iter.                  ...        0 min,  0.027 sec
     gradient                   ...        0 min,  0.004 sec
 * total energy  :   -45.8967805 Eh     change       -0.6048365E-05 Eh
   gradient norm :     0.0005033 Eh/α   predicted    -0.2692624E-05 ( -55.48%)
   displ. norm   :     0.0676956 α      lambda       -0.4660235E-05
   maximum displ.:     0.0411304 α      in ANC's #2, #4, #1, ...

........................................................................
.............................. CYCLE   28 ..............................
........................................................................
   1    -46.7406626 -0.467407E+02  0.257E-02    2.49       0.0  T
   2    -46.7406626 -0.560564E-07  0.151E-02    2.49       1.1  T
   3    -46.7406625  0.171320E-06  0.234E-03    2.49       7.2  T
   4    -46.7406627 -0.206394E-06  0.255E-04    2.49      66.3  T
   5    -46.7406627 -0.135813E-09  0.155E-04    2.49     108.7  T
     SCC iter.                  ...        0 min,  0.027 sec
     gradient                   ...        0 min,  0.004 sec
 * total energy  :   -45.8967865 Eh     change       -0.5943151E-05 Eh
   gradient norm :     0.0009681 Eh/α   predicted    -0.2337111E-05 ( -60.68%)
   displ. norm   :     0.0987114 α      lambda       -0.6245761E-05
   maximum displ.:     0.0601304 α      in ANC's #2, #4, #1, ...

........................................................................
.............................. CYCLE   29 ..............................
........................................................................
   1    -46.7405686 -0.467406E+02  0.365E-02    2.49       0.0  T
   2    -46.7405687 -0.984273E-07  0.214E-02    2.48       1.0  T
   3    -46.7405685  0.269307E-06  0.285E-03    2.49       5.9  T
   4    -46.7405688 -0.329024E-06  0.347E-04    2.48      48.7  T
   5    -46.7405688 -0.270497E-09  0.222E-04    2.49      76.0  T
     SCC iter.                  ...        0 min,  0.027 sec
     gradient                   ...        0 min,  0.003 sec
 * total energy  :   -45.8967944 Eh     change       -0.7895480E-05 Eh
   gradient norm :     0.0009540 Eh/α   predicted    -0.3136908E-05 ( -60.27%)
   displ. norm   :     0.1187543 α      lambda       -0.6367538E-05
   maximum displ.:     0.0750658 α      in ANC's #2, #1, #4, ...

........................................................................
.............................. CYCLE   30 ..............................
........................................................................
   1    -46.7404386 -0.467404E+02  0.435E-02    2.48       0.0  T
   2    -46.7404387 -0.123094E-06  0.255E-02    2.48       1.0  T
   3    -46.7404385  0.258848E-06  0.284E-03    2.48       5.9  T
   4    -46.7404388 -0.327759E-06  0.416E-04    2.48      40.6  T
   5    -46.7404388 -0.386734E-09  0.276E-04    2.48      61.3  T
     SCC iter.                  ...        0 min,  0.027 sec
     gradient                   ...        0 min,  0.003 sec
 * total energy  :   -45.8968019 Eh     change       -0.7500002E-05 Eh
   gradient norm :     0.0005198 Eh/α   predicted    -0.3206005E-05 ( -57.25%)
   displ. norm   :     0.0786970 α      lambda       -0.3541214E-05
   maximum displ.:     0.0537187 α      in ANC's #2, #1, #4, ...

........................................................................
.............................. CYCLE   31 ..............................
........................................................................
   1    -46.7405462 -0.467405E+02  0.276E-02    2.48       0.0  T
   2    -46.7405462 -0.422835E-07  0.162E-02    2.48       1.0  T
   3    -46.7405461  0.696913E-07  0.145E-03    2.48      11.7  T
   4    -46.7405462 -0.924508E-07  0.257E-04    2.48      65.7  T
   5    -46.7405462 -0.252797E-09  0.168E-04    2.48     100.7  T
     SCC iter.                  ...        0 min,  0.027 sec
     gradient                   ...        0 min,  0.004 sec
 * total energy  :   -45.8968062 Eh     change       -0.4278133E-05 Eh
   gradient norm :     0.0002376 Eh/α   predicted    -0.1775794E-05 ( -58.49%)
   displ. norm   :     0.0455047 α      lambda       -0.2313689E-05
   maximum displ.:     0.0343636 α      in ANC's #2, #1, #4, ...

   *** GEOMETRY OPTIMIZATION CONVERGED AFTER 31 ITERATIONS ***

------------------------------------------------------------------------
 total energy gain   :        -0.0092605 Eh       -5.8111 kcal/mol
 total RMSD          :         0.8234372 a0        0.4357 Å
 total power (kW/mol):        -0.7843070 (step)  -18.8379 (real)
------------------------------------------------------------------------

 ANCopt (total)                0 d,  0 h,  0 min,  1.291 sec
 optimizer setup                ...        0 min,  0.000 sec (  0.013%)
 model hessian                  ...        0 min,  0.019 sec (  1.446%)
 ANC generation                 ...        0 min,  0.009 sec (  0.724%)
 coordinate transformation      ...        0 min,  0.002 sec (  0.135%)
 single point calculation       ...        0 min,  1.247 sec ( 96.579%)
 optimization log               ...        0 min,  0.003 sec (  0.266%)
 hessian update                 ...        0 min,  0.001 sec (  0.081%)
 rational function              ...        0 min,  0.004 sec (  0.279%)

================
 final structure:
================
35
 xtb: 6.5.1 (fef0646)
N            3.14511356824215       -1.57095875964326       -2.37227779092998
C            2.44222882422032       -0.25675157438954       -2.44506430648334
C            2.88772132581404        0.57640268783345       -1.23974323875022
C            4.39132259177353        0.66669766121492       -1.25117642435178
C            5.04201093348029        1.68553177644868       -1.93962490602731
C            6.41746826089758        1.71775799220135       -2.02299221781065
C            7.20565219483397        0.71992068373958       -1.43390975978182
C            8.65095386265744        0.71004999704583       -1.48746997234778
C            9.43000039783894        1.73929458283232       -1.85885476804117
C           10.87766254731950        1.74674106527552       -1.89769353895603
C           11.65049565890269        0.58483767150719       -1.80747101109825
C           13.02860178141470        0.65159590353200       -1.84854670392487
C           13.66755317612487        1.87553107645193       -1.97572546844240
C           12.91662010099704        3.03629696766460       -2.07077507936719
C           11.53794050925944        2.97216023004429       -2.03885446298824
C            6.54460508292100       -0.30860133600512       -0.75421592555146
C            5.16412843606772       -0.33959115784762       -0.66318836950347
H            3.20769149414978       -2.04029575136035       -3.27995169463942
H            2.68253896365530       -2.19638935603103       -1.70373190424989
H            4.10964036772096       -1.33719903593812       -1.99273462148384
H            1.36348756800964       -0.40911515420981       -2.45927488773739
H            2.74455636004856        0.24250493505774       -3.36649931445046
H            2.53435324791200        0.11640331541996       -0.31547715759669
H            2.44367968160779        1.56762774313404       -1.31265774277561
H            4.45960658292334        2.46866534446756       -2.40179188997497
H            6.88918818485280        2.52503192298185       -2.55895817954862
H            9.10897305161619       -0.21081933042822       -1.15375215267297
H            8.97140616766212        2.68190042050826       -2.12916956441209
H           11.17102185122464       -0.37829805208128       -1.72112771316164
H           13.61107986278966       -0.25522175131604       -1.78270646169303
H           14.74530445353064        1.92289820928329       -2.00484281179827
H           13.40859870024130        3.99178420500541       -2.17285782101537
H           10.95733637304747        3.88085934214833       -2.11255543893101
H            7.12429488429295       -1.08186703973085       -0.27258217419783
H            4.70091295194834       -1.09270543481821       -0.03524452530745

 Bond Distances (Angstroems)
 ---------------------------
N1-C2=1.4921         N1-H18=1.0238        N1-H19=1.0257        N1-H20=1.0625        C2-N1=1.4921         C2-C3=1.5315         
C2-H21=1.0895        C2-H22=1.0907        C3-C2=1.5315         C3-C4=1.5064         C3-H23=1.0912        C3-H24=1.0886        
C4-C3=1.5064         C4-C5=1.3912         C4-C17=1.3984        C5-C4=1.3912         C5-C6=1.3784         C5-H25=1.0799        
C6-C5=1.3784         C6-C7=1.4014         C6-H26=1.0777        C7-C6=1.4014         C7-C8=1.4463         C7-C16=1.3989        
C8-C7=1.4463         C8-C9=1.3432         C8-H27=1.0813        C9-C8=1.3432         C9-C10=1.4482        C9-H28=1.0825        
C10-C9=1.4482        C10-C11=1.3984       C10-C15=1.3991       C11-C10=1.3984       C11-C12=1.3803       C11-H29=1.0793       
C12-C11=1.3803       C12-C13=1.3865       C12-H30=1.0798       C13-C12=1.3865       C13-C14=1.3858       C13-H31=1.0792       
C14-C13=1.3858       C14-C15=1.3805       C14-H32=1.0795       C15-C10=1.3991       C15-C14=1.3805       C15-H33=1.0809       
C16-C7=1.3989        C16-C17=1.3838       C16-H34=1.0798       C17-C4=1.3984        C17-C16=1.3838       C17-H35=1.0845       
H18-N1=1.0238        H19-N1=1.0257        H20-N1=1.0625        H21-C2=1.0895        H22-C2=1.0907        H23-C3=1.0912        
H24-C3=1.0886        H25-C5=1.0799        H26-C6=1.0777        H27-C8=1.0813        H28-C9=1.0825        H29-C11=1.0793       
H30-C12=1.0798       H31-C13=1.0792       H32-C14=1.0795       H33-C15=1.0809       H34-C16=1.0798       H35-C17=1.0845       
 C  H  Rav=1.0830 sigma=0.0045  Rmin=1.0777  Rmax=1.0912    15
 C  C  Rav=1.4093 sigma=0.0465  Rmin=1.3432  Rmax=1.5315    17
 N  H  Rav=1.0373 sigma=0.0178  Rmin=1.0238  Rmax=1.0625     3
 N  C  Rav=1.4921 sigma=0.0000  Rmin=1.4921  Rmax=1.4921     1

 selected bond angles (degree)
 --------------------
H18-N1-C2=112.91               H19-N1-C2=110.88               H19-N1-H18=109.02              H20-N1-C2=104.55               
H20-N1-H18=111.23              H20-N1-H19=108.10              C3-C2-N1=107.68                H21-C2-N1=110.11               
H21-C2-C3=111.98               H22-C2-N1=108.29               H22-C2-C3=109.59               H22-C2-H21=109.11              
C4-C3-C2=108.48                H23-C3-C2=110.07               H23-C3-C4=110.79               H24-C3-C2=108.90               
H24-C3-C4=110.61               H24-C3-H23=107.97              C5-C4-C3=120.97                C17-C4-C3=120.35               
C17-C4-C5=118.46               C6-C5-C4=120.92                H25-C5-C4=119.38               H25-C5-C6=119.69               
C7-C6-C5=121.28                H26-C6-C5=118.97               H26-C6-C7=119.75               C8-C7-C6=123.46                
C16-C7-C6=117.52               C16-C7-C8=119.03               C9-C8-C7=125.77                H27-C8-C7=114.69               
H27-C8-C9=119.49               C10-C9-C8=126.24               H28-C9-C8=119.38               H28-C9-C10=114.35              
C11-C10-C9=123.12              C15-C10-C9=118.62              C15-C10-C11=118.26             

 selected dihedral angles (degree)
 ---------------------------------
C3-C2-N1-H18=202.43           C3-C2-N1-H19= 79.76           C3-C2-N1-H20=323.49           H21-C2-N1-H18= 80.08          
H21-C2-N1-H19=317.40          H21-C2-N1-H20=201.13          H22-C2-N1-H18=320.85          H22-C2-N1-H19=198.17          
H22-C2-N1-H20= 81.91          C4-C3-C2-N1= 55.38            C4-C3-C2-H21=176.58           C4-C3-C2-H22=297.80           
H23-C3-C2-N1=294.02           H23-C3-C2-H21= 55.21          H23-C3-C2-H22=176.44          H24-C3-C2-N1=175.84           
H24-C3-C2-H21=297.03          H24-C3-C2-H22= 58.26          C5-C4-C3-C2= 88.72            C5-C4-C3-H23=209.64           
C5-C4-C3-H24=329.34           C17-C4-C3-C2=274.20           C17-C4-C3-H23= 35.12          C17-C4-C3-H24=154.82          
C6-C5-C4-C3=184.30            C6-C5-C4-C17=358.92           H25-C5-C4-C3=  5.21           H25-C5-C4-C17=179.83          
C7-C6-C5-C4=  0.82            C7-C6-C5-H25=179.91           H26-C6-C5-C4=180.38           H26-C6-C5-H25=359.47          
C8-C7-C6-C5=180.27            C8-C7-C6-H26=  0.70           C16-C7-C6-C5=359.81           C16-C7-C6-H26=180.25          
C9-C8-C7-C6= 13.60            C9-C8-C7-C16=194.06           H27-C8-C7-C6=191.00           H27-C8-C7-C16= 11.46          
C10-C9-C8-C7=179.04           C10-C9-C8-H27=  1.75          H28-C9-C8-C7=  1.37           H28-C9-C8-H27=184.07          
C11-C10-C9-C8= 13.43          C11-C10-C9-H28=191.21         C15-C10-C9-C8=193.10          C15-C10-C9-H28= 10.88         
           -------------------------------------------------
          |                Final Singlepoint                |
           -------------------------------------------------

          ...................................................
          :                      SETUP                      :
          :.................................................:
          :  # basis functions                  86          :
          :  # atomic orbitals                  86          :
          :  # shells                           52          :
          :  # electrons                        86          :
          :  max. iterations                   250          :
          :  Hamiltonian                  GFN2-xTB          :
          :  restarted?                      false          :
          :  GBSA solvation                  false          :
          :  PC potential                    false          :
          :  electronic temp.          300.0000000     K    :
          :  accuracy                    1.0000000          :
          :  -> integral cutoff          0.2500000E+02      :
          :  -> integral neglect         0.1000000E-07      :
          :  -> SCF convergence          0.1000000E-05 Eh   :
          :  -> wf. convergence          0.1000000E-03 e    :
          :  Broyden damping             0.4000000          :
          ...................................................

 iter      E             dE          RMSdq      gap      omega  full diag
   1    -46.7405462 -0.467405E+02  0.513E-05    2.48       0.0  T
   2    -46.7405462 -0.810729E-11  0.427E-05    2.48     395.9  T
   3    -46.7405462 -0.460147E-10  0.149E-05    2.48    1132.4  T

   *** convergence criteria satisfied after 3 iterations ***

         #    Occupation            Energy/Eh            Energy/eV
      -------------------------------------------------------------
         1        2.0000           -0.8755462             -23.8248
       ...           ...                  ...                  ...
        37        2.0000           -0.5261442             -14.3171
        38        2.0000           -0.5220572             -14.2059
        39        2.0000           -0.5035689             -13.7028
        40        2.0000           -0.4961630             -13.5013
        41        2.0000           -0.4897783             -13.3275
        42        2.0000           -0.4755879             -12.9414
        43        2.0000           -0.4590102             -12.4903 (HOMO)
        44                         -0.3678031             -10.0084 (LUMO)
        45                         -0.3472364              -9.4488
        46                         -0.3091973              -8.4137
        47                         -0.2925551              -7.9608
        48                         -0.2547580              -6.9323
       ...                                ...                  ...
        86                          0.6127872              16.6748
      -------------------------------------------------------------
                  HL-Gap            0.0912070 Eh            2.4819 eV
             Fermi-level           -0.4134067 Eh          -11.2494 eV

 SCC (total)                   0 d,  0 h,  0 min,  0.022 sec
 SCC setup                      ...        0 min,  0.000 sec (  0.456%)
 Dispersion                     ...        0 min,  0.000 sec (  1.111%)
 classical contributions        ...        0 min,  0.000 sec (  0.139%)
 integral evaluation            ...        0 min,  0.001 sec (  5.316%)
 iterations                     ...        0 min,  0.017 sec ( 74.956%)
 molecular gradient             ...        0 min,  0.003 sec ( 13.372%)
 printout                       ...        0 min,  0.001 sec (  3.408%)

         :::::::::::::::::::::::::::::::::::::::::::::::::::::
         ::                     SUMMARY                     ::
         :::::::::::::::::::::::::::::::::::::::::::::::::::::
         :: total energy             -45.896806161816 Eh    ::
         :: gradient norm              0.000237933114 Eh/a0 ::
         :: HOMO-LUMO gap              2.481869121602 eV    ::
         ::.................................................::
         :: SCC energy               -46.740546230370 Eh    ::
         :: -> isotropic ES            0.097105656935 Eh    ::
         :: -> anisotropic ES         -0.011070176128 Eh    ::
         :: -> anisotropic XC          0.032363685566 Eh    ::
         :: -> dispersion             -0.031689656170 Eh    ::
         :: repulsion energy           0.844018162230 Eh    ::
         :: add. restraining           0.000000000000 Eh    ::
         :: total charge               1.000000000000 e     ::
         :::::::::::::::::::::::::::::::::::::::::::::::::::::

           -------------------------------------------------
          |                Property Printout                |
           -------------------------------------------------

    * Orbital Energies and Occupations

         #    Occupation            Energy/Eh            Energy/eV
      -------------------------------------------------------------
         1        2.0000           -0.8755462             -23.8248
       ...           ...                  ...                  ...
        31        2.0000           -0.5588355             -15.2067
        32        2.0000           -0.5553761             -15.1126
        33        2.0000           -0.5473435             -14.8940
        34        2.0000           -0.5440920             -14.8055
        35        2.0000           -0.5392893             -14.6748
        36        2.0000           -0.5364101             -14.5965
        37        2.0000           -0.5261442             -14.3171
        38        2.0000           -0.5220572             -14.2059
        39        2.0000           -0.5035689             -13.7028
        40        2.0000           -0.4961630             -13.5013
        41        2.0000           -0.4897783             -13.3275
        42        2.0000           -0.4755879             -12.9414
        43        2.0000           -0.4590102             -12.4903 (HOMO)
        44                         -0.3678031             -10.0084 (LUMO)
        45                         -0.3472364              -9.4488
        46                         -0.3091973              -8.4137
        47                         -0.2925551              -7.9608
        48                         -0.2547580              -6.9323
        49                         -0.2367194              -6.4415
        50                         -0.1979878              -5.3875
        51                         -0.1501399              -4.0855
        52                         -0.1355207              -3.6877
        53                         -0.0818376              -2.2269
        54                         -0.0741457              -2.0176
       ...                                ...                  ...
        86                          0.6127872              16.6748
      -------------------------------------------------------------
                  HL-Gap            0.0912070 Eh            2.4819 eV
             Fermi-level           -0.4134067 Eh          -11.2494 eV

     #   Z          covCN         q      C6AA      α(0)
     1   7 N        3.482    -0.146    24.146     7.298
     2   6 C        3.735    -0.028    21.165     6.566
     3   6 C        3.809    -0.090    22.208     6.708
     4   6 C        2.972    -0.015    28.374     8.737
     5   6 C        2.919    -0.039    28.982     8.828
     6   6 C        2.922    -0.030    28.753     8.793
     7   6 C        2.969     0.024    27.458     8.595
     8   6 C        2.901    -0.050    29.249     8.868
     9   6 C        2.902    -0.023    28.576     8.765
    10   6 C        2.971     0.013    27.724     8.637
    11   6 C        2.923    -0.029    28.732     8.790
    12   6 C        2.917    -0.026    28.640     8.776
    13   6 C        2.920    -0.021    28.526     8.759
    14   6 C        2.916    -0.025    28.623     8.773
    15   6 C        2.928    -0.029    28.717     8.788
    16   6 C        2.926    -0.038    28.956     8.825
    17   6 C        2.918    -0.069    29.719     8.940
    18   1 H        0.859     0.257     0.857     1.450
    19   1 H        0.859     0.260     0.847     1.441
    20   1 H        0.855     0.280     0.778     1.382
    21   1 H        0.925     0.099     1.791     2.093
    22   1 H        0.924     0.101     1.774     2.083
    23   1 H        0.924     0.067     2.116     2.275
    24   1 H        0.925     0.090     1.878     2.143
    25   1 H        0.926     0.044     2.391     2.418
    26   1 H        0.926     0.054     2.265     2.354
    27   1 H        0.925     0.044     2.397     2.421
    28   1 H        0.925     0.045     2.384     2.414
    29   1 H        0.926     0.035     2.518     2.482
    30   1 H        0.926     0.042     2.421     2.433
    31   1 H        0.926     0.046     2.369     2.407
    32   1 H        0.926     0.044     2.393     2.419
    33   1 H        0.926     0.038     2.479     2.462
    34   1 H        0.926     0.046     2.372     2.409
    35   1 H        0.925     0.028     2.613     2.528

 Mol. C6AA /au·bohr⁶  :      13085.042176
 Mol. C8AA /au·bohr⁸  :     317805.063419
 Mol. α(0) /au        :        183.058872


Wiberg/Mayer (AO) data.
largest (>0.10) Wiberg bond orders for each atom

 ---------------------------------------------------------------------------
     #   Z sym  total        # sym  WBO       # sym  WBO       # sym  WBO
 ---------------------------------------------------------------------------
     1   7 N    3.662 --     2 C    0.936    18 H    0.920    19 H    0.918
                            20 H    0.821
     2   6 C    3.899 --     3 C    0.992    22 H    0.969    21 H    0.969
                             1 N    0.936
     3   6 C    3.979 --     4 C    1.006     2 C    0.992    23 H    0.969
                            24 H    0.961
     4   6 C    3.969 --     5 C    1.391    17 C    1.366     3 C    1.006
     5   6 C    3.990 --     6 C    1.478     4 C    1.391    25 H    0.968
     6   6 C    3.980 --     5 C    1.478     7 C    1.344    26 H    0.964
     7   6 C    3.985 --    16 C    1.361     6 C    1.344     8 C    1.127
     8   6 C    3.988 --     9 C    1.736     7 C    1.127    27 H    0.958
     9   6 C    3.985 --     8 C    1.736    10 C    1.124    28 H    0.958
    10   6 C    3.988 --    15 C    1.358    11 C    1.357     9 C    1.124
    11   6 C    3.982 --    12 C    1.468    10 C    1.357    29 H    0.966
                            14 C    0.103
    12   6 C    3.991 --    11 C    1.468    13 C    1.423    30 H    0.970
                            15 C    0.102
    13   6 C    3.976 --    14 C    1.428    12 C    1.423    31 H    0.971
    14   6 C    3.991 --    15 C    1.463    13 C    1.428    32 H    0.970
                            11 C    0.103
    15   6 C    3.981 --    14 C    1.463    10 C    1.358    33 H    0.968
                            12 C    0.102
    16   6 C    3.980 --    17 C    1.444     7 C    1.361    34 H    0.968
    17   6 C    3.988 --    16 C    1.444     4 C    1.366    35 H    0.958
    18   1 H    0.934 --     1 N    0.920
    19   1 H    0.932 --     1 N    0.918
    20   1 H    0.922 --     1 N    0.821
    21   1 H    0.989 --     2 C    0.969
    22   1 H    0.990 --     2 C    0.969
    23   1 H    0.995 --     3 C    0.969
    24   1 H    0.991 --     3 C    0.961
    25   1 H    0.998 --     5 C    0.968
    26   1 H    0.997 --     6 C    0.964
    27   1 H    0.998 --     8 C    0.958
    28   1 H    0.998 --     9 C    0.958
    29   1 H    0.999 --    11 C    0.966
    30   1 H    0.998 --    12 C    0.970
    31   1 H    0.997 --    13 C    0.971
    32   1 H    0.998 --    14 C    0.970
    33   1 H    0.999 --    15 C    0.968
    34   1 H    0.998 --    16 C    0.968
    35   1 H    0.999 --    17 C    0.958
 ---------------------------------------------------------------------------

Topologies differ in total number of bonds
Writing topology from bond orders to xtbtopo.mol

molecular dipole:
                 x           y           z       tot (Debye)
 q only:        7.862      -1.601      -4.364
   full:        7.832      -1.794      -4.353      23.227
molecular quadrupole (traceless):
                xx          xy          yy          xz          yz          zz
 q only:       81.093      -3.179     -45.467     -49.979       9.872     -35.625
  q+dip:       82.781      -4.129     -41.283     -49.771       7.035     -41.498
   full:       80.090      -4.372     -43.088     -49.385       9.861     -37.002

           -------------------------------------------------
          |                Geometry Summary                 |
           -------------------------------------------------

      molecular mass/u    :      224.3214111
   center of mass at/Å    :        7.8144488       0.9004924      -1.7268735
  moments of inertia/u·Å² :        0.2742498E+03   0.3413056E+04   0.3565791E+04
rotational constants/cm⁻¹ :        0.6146816E-01   0.4939161E-02   0.4727599E-02

 * 33 selected distances

     #   Z          #   Z                                           value/Å
     1   7 N        2   6 C                                       1.4921413
     2   6 C        3   6 C                                       1.5314728 (max)
     4   6 C        5   6 C                                       1.3911793
     5   6 C        6   6 C                                       1.3783584
     6   6 C        7   6 C                                       1.4014035
     8   6 C        9   6 C                                       1.3431995
    10   6 C       11   6 C                                       1.3983673
    11   6 C       12   6 C                                       1.3803336
    12   6 C       13   6 C                                       1.3865248
    13   6 C       14   6 C                                       1.3857535
    10   6 C       15   6 C                                       1.3991233
    14   6 C       15   6 C                                       1.3805398
     7   6 C       16   6 C                                       1.3988656
     4   6 C       17   6 C                                       1.3984192
    16   6 C       17   6 C                                       1.3838217
     1   7 N       18   1 H                                       1.0237506 (min)
     1   7 N       19   1 H                                       1.0257156
     1   7 N       20   1 H                                       1.0625482
     2   6 C       21   1 H                                       1.0895410
     2   6 C       22   1 H                                       1.0907345
     3   6 C       23   1 H                                       1.0912087
     3   6 C       24   1 H                                       1.0885848
     5   6 C       25   1 H                                       1.0798572
     6   6 C       26   1 H                                       1.0777155
     8   6 C       27   1 H                                       1.0812723
     9   6 C       28   1 H                                       1.0825363
    11   6 C       29   1 H                                       1.0793428
    12   6 C       30   1 H                                       1.0797843
    13   6 C       31   1 H                                       1.0791846
    14   6 C       32   1 H                                       1.0795462
    15   6 C       33   1 H                                       1.0808641
    16   6 C       34   1 H                                       1.0797923
    17   6 C       35   1 H                                       1.0844646

 * 4 distinct bonds (by element types)

   Z      Z             #   av. dist./Å        max./Å        min./Å
   1 H    6 C          15     1.0829619     1.0912087     1.0777155
   6 C    6 C          14     1.3969544     1.5314728     1.3431995
   1 H    7 N           3     1.0373382     1.0625482     1.0237506
   6 C    7 N           1     1.4921413     1.4921413     1.4921413


optimized geometry written to: xtbopt.xyz


           -------------------------------------------------
          | TOTAL ENERGY              -45.896806161816 Eh   |
          | GRADIENT NORM               0.000237933114 Eh/α |
          | HOMO-LUMO GAP               2.481869121602 eV   |
           -------------------------------------------------

------------------------------------------------------------------------
 * finished run on 2023/01/23 at 19:13:40.359     
------------------------------------------------------------------------
 total:
 * wall-time:     0 d,  0 h,  0 min,  1.412 sec
 *  cpu-time:     0 d,  0 h,  2 min, 31.775 sec
 * ratio c/w:   107.498 speedup
 SCF:
 * wall-time:     0 d,  0 h,  0 min,  0.080 sec
 *  cpu-time:     0 d,  0 h,  0 min, 11.360 sec
 * ratio c/w:   141.711 speedup
 ANC optimizer:
 * wall-time:     0 d,  0 h,  0 min,  1.314 sec
 *  cpu-time:     0 d,  0 h,  2 min, 18.202 sec
 * ratio c/w:   105.168 speedup

