 Entering Gaussian System
 *********************************************
 Gaussian 98:
 frequency output generated by the xtb code
 *********************************************
                         Standard orientation:
 --------------------------------------------------------------------
  Center     Atomic     Atomic              Coordinates (Angstroms)
  Number     Number      Type              X           Y           Z
 --------------------------------------------------------------------
    1          7             0       -0.068741   -1.417872   -0.993477
    2          6             0        1.266133   -1.107107   -0.402803
    3          6             0        1.652470    0.374360   -0.523246
    4          6             0        0.711428    1.267737    0.284805
    5          6             0        3.106693    0.592244   -0.098322
    6         17             0       -2.696177    0.192595    0.748319
    7          1             0       -0.279446   -2.425150   -0.957605
    8          1             0       -0.112073   -1.122483   -1.978178
    9          1             0       -0.826017   -0.926197   -0.489686
   10          1             0        2.031548   -1.722762   -0.889774
   11          1             0        1.284815   -1.399006    0.652738
   12          1             0        1.559218    0.652379   -1.587087
   13          1             0       -0.320614    1.187392   -0.058011
   14          1             0        1.000613    2.317555    0.214622
   15          1             0        0.730910    0.993209    1.339926
   16          1             0        3.793858   -0.014301   -0.690303
   17          1             0        3.246435    0.319365    0.948078
   18          1             0        3.403788    1.636382   -0.207365
 --------------------------------------------------------------------
     1 basis functions        1 primitive gaussians
     1 alpha electrons        1 beta electrons

 Harmonic frequencies (cm**-1), IR intensities (km*mol⁻¹),
 Raman scattering activities (A**4/amu), Raman depolarization ratios,
 reduced masses (AMU), force constants (mDyne/A) and normal coordinates:
                      1                      2                      3
                        a                      a                      a 
 Frequencies --   -37.7647                65.4395                92.8469
 Red. masses --    21.0276                11.4708                21.2291
 Frc consts  --     0.0000                 0.0000                 0.0000
 IR Inten    --    90.4484                 9.8134                20.6731
 Raman Activ --     0.0000                 0.0000                 0.0000
 Depolar     --     0.0000                 0.0000                 0.0000
 Atom AN      X      Y      Z        X      Y      Z        X      Y      Z
   1   7     0.37  -0.23  -0.29    -0.09   0.14  -0.12     0.02  -0.23  -0.10
   2   6     0.25  -0.09  -0.12    -0.10   0.03  -0.02    -0.02  -0.08  -0.07
   3   6     0.09  -0.05  -0.05     0.08  -0.02  -0.07    -0.23  -0.02   0.05
   4   6    -0.09  -0.17  -0.12    -0.12   0.17  -0.52    -0.36  -0.20   0.10
   5   6     0.02   0.10   0.12    -0.05  -0.13   0.42    -0.28   0.17   0.10
   6  17    -0.46   0.32   0.34     0.21  -0.15   0.23     0.61   0.26  -0.06
   7   1     0.12  -0.07  -0.08    -0.03   0.04  -0.07     0.03  -0.07  -0.02
   8   1     0.13  -0.07  -0.08    -0.01   0.08  -0.02     0.00  -0.07  -0.03
   9   1     0.08  -0.07  -0.11    -0.02   0.02  -0.02    -0.00  -0.07  -0.03
  10   1     0.10   0.00  -0.02    -0.03  -0.02   0.03     0.02   0.02  -0.03
  11   1     0.05  -0.03  -0.04    -0.07   0.03   0.00     0.00  -0.05  -0.02
  12   1     0.05  -0.01  -0.01     0.14  -0.04  -0.04    -0.07   0.01   0.02
  13   1    -0.01  -0.07  -0.07     0.00   0.09  -0.27    -0.10  -0.07   0.01
  14   1    -0.05  -0.04  -0.02     0.02   0.04  -0.13    -0.13  -0.05   0.07
  15   1    -0.05  -0.06  -0.04    -0.18   0.06  -0.14    -0.11  -0.09   0.02
  16   1     0.04   0.05   0.05     0.03  -0.08   0.21    -0.05   0.08   0.03
  17   1    -0.02   0.03   0.04    -0.13  -0.01   0.14    -0.08   0.04   0.03
  18   1    -0.02   0.04   0.05     0.03  -0.05   0.11    -0.12   0.06   0.05
                      4                      5                      6
                        a                      a                      a 
 Frequencies --   153.9142               242.2247               260.1631
 Red. masses --     7.8423                 2.7278                 2.2576
 Frc consts  --     0.0000                 0.0000                 0.0000
 IR Inten    --    17.7623                 3.5035                 2.3514
 Raman Activ --     0.0000                 0.0000                 0.0000
 Depolar     --     0.0000                 0.0000                 0.0000
 Atom AN      X      Y      Z        X      Y      Z        X      Y      Z
   1   7     0.15  -0.12  -0.45     0.01   0.17  -0.10     0.08   0.06  -0.01
   2   6    -0.24   0.04   0.35    -0.04  -0.07   0.13    -0.03   0.03   0.21
   3   6    -0.12  -0.01   0.10     0.03  -0.10   0.05     0.00   0.00   0.04
   4   6     0.08   0.24   0.06    -0.02  -0.16   0.07    -0.11  -0.04  -0.04
   5   6    -0.04  -0.08  -0.12     0.04   0.15  -0.13     0.07  -0.03  -0.18
   6  17     0.09  -0.04   0.08     0.00  -0.02   0.01    -0.00  -0.01   0.00
   7   1     0.05  -0.03  -0.12    -0.04   0.05  -0.08    -0.02   0.03   0.05
   8   1     0.20  -0.06  -0.14     0.06   0.09  -0.02     0.10  -0.05  -0.03
   9   1    -0.04  -0.03  -0.24     0.00   0.05  -0.03     0.01   0.08  -0.08
  10   1     0.02  -0.04   0.29    -0.01  -0.06   0.08     0.01  -0.03   0.14
  11   1    -0.26   0.10   0.13    -0.07  -0.01   0.04    -0.08   0.06   0.08
  12   1    -0.06  -0.05   0.02    -0.02  -0.06   0.01    -0.01  -0.02   0.01
  13   1    -0.01  -0.02   0.14     0.03   0.10  -0.12     0.05   0.27  -0.32
  14   1    -0.02   0.07  -0.15     0.10  -0.06   0.20     0.19  -0.05   0.34
  15   1     0.15   0.20   0.05    -0.16  -0.19  -0.02    -0.39  -0.28  -0.07
  16   1    -0.05  -0.03  -0.06    -0.02  -0.28   0.25     0.00   0.19  -0.27
  17   1     0.03  -0.03  -0.04    -0.04   0.50   0.09     0.14  -0.27  -0.14
  18   1    -0.00  -0.03  -0.04     0.09  -0.03  -0.50    -0.05   0.04   0.19
                      7                      8                      9
                        a                      a                      a 
 Frequencies --   272.6123               319.7608               366.4161
 Red. masses --     6.5393                 2.4592                 7.8351
 Frc consts  --     0.0000                 0.0000                 0.0000
 IR Inten    --    14.1013                 3.3659                 2.0099
 Raman Activ --     0.0000                 0.0000                 0.0000
 Depolar     --     0.0000                 0.0000                 0.0000
 Atom AN      X      Y      Z        X      Y      Z        X      Y      Z
   1   7     0.02  -0.39  -0.01     0.09  -0.16   0.04    -0.23  -0.22  -0.09
   2   6    -0.00   0.17  -0.22     0.04   0.02   0.04    -0.15  -0.21  -0.05
   3   6    -0.11   0.23  -0.04    -0.09   0.06   0.08     0.06  -0.19  -0.03
   4   6     0.11   0.31   0.15    -0.03   0.18   0.02     0.41   0.12   0.02
   5   6    -0.08  -0.20   0.07    -0.02  -0.14  -0.08    -0.07   0.42   0.13
   6  17    -0.00  -0.02   0.01    -0.02   0.04  -0.03    -0.02   0.00   0.00
   7   1     0.04  -0.10   0.24     0.28  -0.11  -0.47    -0.03  -0.07  -0.08
   8   1    -0.01  -0.34  -0.07    -0.14   0.43   0.16    -0.09   0.00  -0.00
   9   1     0.00  -0.01  -0.10    -0.05  -0.43   0.28    -0.06  -0.10   0.02
  10   1     0.03   0.11  -0.10     0.03   0.06  -0.02    -0.05  -0.07  -0.02
  11   1     0.06   0.03  -0.07     0.05  -0.03  -0.00    -0.06  -0.07  -0.02
  12   1    -0.02   0.12   0.00    -0.03   0.01   0.02     0.02  -0.07  -0.01
  13   1     0.05   0.27  -0.05     0.01   0.12  -0.07     0.11   0.21  -0.01
  14   1     0.19   0.06   0.20     0.07   0.03   0.05     0.29  -0.01   0.06
  15   1    -0.09  -0.05   0.01    -0.10   0.02  -0.00     0.07  -0.02  -0.01
  16   1    -0.07  -0.22   0.13    -0.06  -0.08  -0.04     0.12   0.28   0.04
  17   1    -0.11   0.05   0.06     0.02  -0.04  -0.03    -0.01   0.10   0.03
  18   1     0.12  -0.11  -0.09     0.05  -0.06  -0.04    -0.21   0.18   0.10
                     10                     11                     12
                        a                      a                      a 
 Frequencies --   426.8347               461.8764               822.8024
 Red. masses --     7.2546                 8.4303                 6.6540
 Frc consts  --     0.0000                 0.0000                 0.0000
 IR Inten    --     6.2274                 7.7250                18.4632
 Raman Activ --     0.0000                 0.0000                 0.0000
 Depolar     --     0.0000                 0.0000                 0.0000
 Atom AN      X      Y      Z        X      Y      Z        X      Y      Z
   1   7    -0.15  -0.17   0.01    -0.26  -0.21  -0.10     0.09   0.16   0.05
   2   6    -0.23   0.35   0.07    -0.16  -0.00  -0.11    -0.16   0.39   0.05
   3   6     0.21   0.21  -0.32     0.21   0.06   0.41    -0.01  -0.16   0.25
   4   6     0.07  -0.32   0.01    -0.21   0.07  -0.03     0.24  -0.25  -0.15
   5   6     0.15   0.04   0.08     0.46   0.11  -0.03    -0.25  -0.08  -0.01
   6  17     0.00   0.01   0.00     0.01   0.00   0.00     0.00   0.00   0.00
   7   1     0.14  -0.09  -0.03     0.00  -0.07   0.04     0.35  -0.02   0.10
   8   1    -0.10  -0.02   0.01    -0.11  -0.12  -0.05     0.08  -0.11  -0.04
   9   1    -0.12  -0.19   0.02    -0.09  -0.08  -0.04    -0.18  -0.13  -0.13
  10   1    -0.05  -0.03   0.20    -0.06   0.04  -0.10    -0.08   0.24  -0.22
  11   1    -0.16   0.30   0.08    -0.03  -0.11  -0.06     0.12  -0.10  -0.05
  12   1     0.09   0.08  -0.08     0.09   0.04   0.12     0.02  -0.05   0.06
  13   1     0.01  -0.18   0.04    -0.01  -0.11  -0.13     0.09  -0.08  -0.11
  14   1    -0.12  -0.05   0.14    -0.15   0.04  -0.08     0.09  -0.08  -0.11
  15   1     0.10  -0.23  -0.03    -0.17   0.13   0.02    -0.01   0.00  -0.02
  16   1     0.08   0.00   0.08     0.05   0.02  -0.10    -0.07   0.03  -0.06
  17   1    -0.07  -0.01   0.03     0.31   0.08  -0.02     0.08   0.05  -0.00
  18   1     0.08   0.01   0.07     0.10   0.03  -0.10    -0.21   0.01  -0.10
                     13                     14                     15
                        a                      a                      a 
 Frequencies --   847.4760               952.5579               962.5878
 Red. masses --     3.1059                 5.6392                 3.8084
 Frc consts  --     0.0000                 0.0000                 0.0000
 IR Inten    --    29.4132                17.0719                 3.0898
 Raman Activ --     0.0000                 0.0000                 0.0000
 Depolar     --     0.0000                 0.0000                 0.0000
 Atom AN      X      Y      Z        X      Y      Z        X      Y      Z
   1   7     0.13   0.09  -0.08    -0.14  -0.21  -0.06    -0.15  -0.07  -0.04
   2   6     0.08   0.09  -0.27     0.14   0.03   0.06     0.15   0.00   0.05
   3   6     0.00  -0.15   0.15     0.02   0.25   0.18     0.14   0.11   0.09
   4   6     0.01  -0.08   0.05     0.22  -0.16  -0.20     0.24  -0.11   0.15
   5   6    -0.12  -0.05   0.01    -0.28   0.09   0.13    -0.14   0.03  -0.21
   6  17    -0.01   0.00  -0.00    -0.00  -0.00  -0.00    -0.00  -0.00   0.00
   7   1     0.11   0.02   0.20    -0.36   0.01  -0.13    -0.13  -0.00  -0.06
   8   1    -0.48  -0.07  -0.03     0.02   0.10   0.03     0.03   0.02  -0.00
   9   1     0.22   0.01   0.27     0.11   0.11   0.04    -0.03   0.01  -0.02
  10   1     0.14  -0.12   0.30     0.09   0.05   0.06     0.02  -0.03   0.03
  11   1    -0.34   0.24  -0.00     0.03   0.04   0.02     0.04   0.04   0.03
  12   1     0.01   0.07   0.07     0.17   0.09   0.04    -0.26   0.16   0.08
  13   1     0.02   0.04  -0.05     0.06  -0.07  -0.03     0.20  -0.22  -0.35
  14   1     0.10  -0.06  -0.13     0.02  -0.03   0.00    -0.09  -0.00  -0.17
  15   1    -0.08   0.13   0.05     0.11  -0.11  -0.07    -0.33   0.24   0.11
  16   1    -0.05   0.02  -0.05    -0.41  -0.10  -0.22     0.09  -0.02   0.13
  17   1     0.09   0.04  -0.00     0.24  -0.03  -0.03    -0.38  -0.07  -0.02
  18   1    -0.12   0.00  -0.08     0.10  -0.04  -0.10     0.05   0.00   0.13
                     16                     17                     18
                        a                      a                      a 
 Frequencies --   975.6854               985.9983              1021.6828
 Red. masses --     3.3876                 3.5572                 5.6988
 Frc consts  --     0.0000                 0.0000                 0.0000
 IR Inten    --    28.6335                 7.5296                32.4798
 Raman Activ --     0.0000                 0.0000                 0.0000
 Depolar     --     0.0000                 0.0000                 0.0000
 Atom AN      X      Y      Z        X      Y      Z        X      Y      Z
   1   7     0.04  -0.11   0.21    -0.05   0.06   0.05    -0.08  -0.19  -0.13
   2   6    -0.07   0.07  -0.26     0.04  -0.01  -0.05     0.08   0.37   0.17
   3   6     0.03  -0.09  -0.07    -0.17  -0.01  -0.01    -0.24  -0.10   0.00
   4   6    -0.07  -0.00   0.12    -0.10  -0.28  -0.02    -0.06  -0.17  -0.06
   5   6    -0.01  -0.17   0.07     0.16   0.26   0.07     0.26  -0.11  -0.01
   6  17     0.00  -0.00   0.00     0.00  -0.00   0.00    -0.00  -0.00  -0.00
   7   1    -0.16  -0.00  -0.18     0.14  -0.02  -0.01    -0.33   0.02  -0.07
   8   1     0.40   0.13   0.08     0.10  -0.03  -0.01    -0.10   0.10   0.02
   9   1    -0.05   0.05  -0.12    -0.14  -0.07  -0.10     0.18   0.13   0.09
  10   1    -0.09  -0.16   0.05    -0.08  -0.13   0.01     0.17   0.36  -0.04
  11   1     0.10   0.37   0.02     0.03   0.11   0.02     0.08  -0.02   0.01
  12   1     0.13   0.27   0.05    -0.15   0.09   0.03    -0.14  -0.07  -0.01
  13   1    -0.00   0.06  -0.03    -0.08   0.25   0.08    -0.06   0.13   0.07
  14   1     0.07  -0.03  -0.11     0.39  -0.20  -0.28     0.18  -0.11  -0.12
  15   1    -0.11   0.15   0.07     0.00   0.18   0.06     0.04   0.04   0.01
  16   1     0.09   0.11  -0.03    -0.18  -0.13  -0.03     0.27   0.09   0.12
  17   1     0.21   0.13   0.03    -0.01  -0.12  -0.02    -0.02   0.06   0.04
  18   1    -0.31   0.03  -0.14     0.42  -0.03   0.11    -0.11   0.03   0.02
                     19                     20                     21
                        a                      a                      a 
 Frequencies --  1027.0207              1159.9072              1180.2662
 Red. masses --     9.4844                 7.4096                 6.5746
 Frc consts  --     0.0000                 0.0000                 0.0000
 IR Inten    --    21.1669                 2.8873                 0.7357
 Raman Activ --     0.0000                 0.0000                 0.0000
 Depolar     --     0.0000                 0.0000                 0.0000
 Atom AN      X      Y      Z        X      Y      Z        X      Y      Z
   1   7     0.45  -0.07   0.17     0.06  -0.12  -0.01    -0.10  -0.00   0.19
   2   6    -0.61  -0.08  -0.18    -0.11   0.19   0.02     0.14   0.04  -0.31
   3   6    -0.10   0.09   0.04     0.54  -0.10   0.10    -0.06  -0.01   0.46
   4   6     0.13  -0.09  -0.06    -0.26  -0.01   0.11     0.00   0.04  -0.28
   5   6     0.10   0.11  -0.01    -0.24   0.06  -0.24     0.03  -0.01  -0.20
   6  17    -0.00  -0.00  -0.00     0.00  -0.00  -0.00     0.00  -0.00   0.00
   7   1    -0.13   0.03  -0.01    -0.11  -0.00  -0.02     0.01  -0.01  -0.09
   8   1     0.09   0.11   0.08    -0.00   0.06   0.03     0.23   0.01   0.04
   9   1     0.26   0.12   0.13     0.09   0.06   0.02    -0.13  -0.00  -0.10
  10   1    -0.05   0.12  -0.05    -0.10   0.02  -0.08     0.17  -0.02   0.17
  11   1    -0.16  -0.13  -0.08    -0.00  -0.07  -0.03    -0.26   0.07  -0.05
  12   1    -0.09   0.07   0.02     0.36  -0.14  -0.03    -0.08  -0.01   0.12
  13   1     0.06  -0.07  -0.09    -0.12   0.19   0.15    -0.06  -0.00   0.13
  14   1    -0.03  -0.01  -0.03     0.16  -0.06  -0.04     0.01   0.02   0.14
  15   1    -0.02  -0.01  -0.01     0.03   0.10   0.06     0.23  -0.22  -0.13
  16   1    -0.00  -0.03   0.03    -0.05  -0.06   0.03     0.14  -0.00   0.12
  17   1    -0.06  -0.04  -0.01    -0.28  -0.09  -0.06    -0.24  -0.02  -0.01
  18   1     0.14   0.00   0.07     0.04  -0.00   0.06    -0.00   0.01   0.10
                     22                     23                     24
                        a                      a                      a 
 Frequencies --  1189.2069              1244.1640              1302.7049
 Red. masses --     6.6680                 3.1786                 3.3419
 Frc consts  --     0.0000                 0.0000                 0.0000
 IR Inten    --     1.8141                21.4079                 3.3451
 Raman Activ --     0.0000                 0.0000                 0.0000
 Depolar     --     0.0000                 0.0000                 0.0000
 Atom AN      X      Y      Z        X      Y      Z        X      Y      Z
   1   7     0.02   0.06  -0.05    -0.12   0.04   0.19     0.09  -0.08   0.07
   2   6    -0.04  -0.28   0.19     0.08  -0.04  -0.08     0.12   0.23  -0.04
   3   6     0.09   0.52   0.05     0.04   0.10  -0.25     0.25   0.14  -0.04
   4   6    -0.08  -0.18  -0.14    -0.02  -0.06   0.18    -0.05  -0.01  -0.03
   5   6    -0.03  -0.21  -0.09    -0.03  -0.03   0.07    -0.01  -0.08   0.16
   6  17     0.00  -0.00  -0.00     0.00   0.00   0.00    -0.00  -0.00   0.00
   7   1     0.09  -0.00   0.06     0.06  -0.01  -0.08    -0.13   0.00  -0.08
   8   1    -0.08  -0.05  -0.03     0.20  -0.04   0.03    -0.02   0.01   0.03
   9   1     0.00  -0.03   0.03    -0.13  -0.01  -0.08    -0.01   0.00  -0.06
  10   1    -0.05  -0.06  -0.02     0.38   0.31   0.14    -0.29  -0.29  -0.07
  11   1    -0.03  -0.22   0.01    -0.45  -0.36  -0.11    -0.25  -0.22  -0.08
  12   1     0.05   0.40   0.09     0.15  -0.12  -0.12    -0.59  -0.25  -0.03
  13   1    -0.06   0.15   0.07     0.03   0.03  -0.07    -0.03   0.05   0.03
  14   1     0.21  -0.11  -0.09     0.04  -0.04  -0.11     0.03  -0.01   0.01
  15   1     0.13   0.02  -0.02    -0.11   0.13   0.08     0.04   0.01  -0.01
  16   1     0.18   0.11   0.05    -0.03   0.03  -0.05    -0.08   0.02  -0.09
  17   1    -0.05   0.11   0.02     0.09   0.01   0.01     0.09   0.02   0.03
  18   1    -0.25   0.02  -0.04    -0.01  -0.01  -0.06    -0.14   0.00  -0.10
                     25                     26                     27
                        a                      a                      a 
 Frequencies --  1330.7345              1352.1819              1397.3488
 Red. masses --     4.6388                 4.2996                 2.6585
 Frc consts  --     0.0000                 0.0000                 0.0000
 IR Inten    --    13.6659                 8.2193               213.3581
 Raman Activ --     0.0000                 0.0000                 0.0000
 Depolar     --     0.0000                 0.0000                 0.0000
 Atom AN      X      Y      Z        X      Y      Z        X      Y      Z
   1   7     0.07  -0.02   0.01    -0.08   0.06  -0.04    -0.24  -0.17  -0.18
   2   6     0.12   0.07  -0.05    -0.19  -0.26  -0.13     0.04   0.05  -0.01
   3   6    -0.39   0.31   0.13     0.19   0.32   0.10    -0.03   0.02  -0.00
   4   6     0.08  -0.08   0.11    -0.04  -0.08   0.02     0.03  -0.02  -0.01
   5   6     0.08  -0.05  -0.09    -0.04  -0.08   0.04     0.03  -0.00   0.01
   6  17     0.00   0.00   0.00    -0.00  -0.00  -0.00    -0.00  -0.00  -0.00
   7   1    -0.07   0.01  -0.01     0.11  -0.01  -0.01     0.34  -0.08   0.49
   8   1    -0.04   0.01   0.01     0.09  -0.06  -0.04     0.34   0.50   0.12
   9   1    -0.02  -0.02  -0.04     0.06   0.02   0.10     0.21   0.19   0.13
  10   1    -0.26  -0.30  -0.06     0.22   0.18   0.08    -0.05  -0.09   0.02
  11   1    -0.07  -0.02  -0.02     0.30   0.35   0.07    -0.05  -0.09  -0.03
  12   1     0.43  -0.45  -0.16    -0.22  -0.52  -0.11    -0.02  -0.02  -0.01
  13   1     0.08  -0.07  -0.13    -0.00   0.06  -0.02    -0.00   0.04   0.01
  14   1     0.04  -0.04  -0.13     0.06  -0.04  -0.03    -0.05   0.01   0.00
  15   1    -0.04   0.00   0.03     0.03   0.06   0.02    -0.02   0.02   0.00
  16   1     0.12   0.03   0.06     0.00   0.05  -0.04    -0.02  -0.01  -0.02
  17   1    -0.03   0.05   0.00     0.02   0.05   0.02    -0.02  -0.00   0.01
  18   1    -0.03   0.01   0.07    -0.05  -0.01  -0.02    -0.04   0.01  -0.01
                     28                     29                     30
                        a                      a                      a 
 Frequencies --  1405.7438              1426.0971              1434.3705
 Red. masses --     1.8216                 3.0811                 2.2240
 Frc consts  --     0.0000                 0.0000                 0.0000
 IR Inten    --   123.7307                14.6682                54.7956
 Raman Activ --     0.0000                 0.0000                 0.0000
 Depolar     --     0.0000                 0.0000                 0.0000
 Atom AN      X      Y      Z        X      Y      Z        X      Y      Z
   1   7     0.21  -0.00  -0.07    -0.05   0.01  -0.04    -0.05   0.12  -0.12
   2   6    -0.02  -0.09  -0.05     0.01   0.06   0.00    -0.00   0.06  -0.00
   3   6     0.05   0.03  -0.00     0.06  -0.03  -0.01    -0.02  -0.04  -0.02
   4   6    -0.04   0.03   0.01    -0.12   0.10   0.08    -0.12   0.11   0.10
   5   6    -0.04  -0.01   0.00    -0.37  -0.05  -0.09     0.16   0.04   0.05
   6  17     0.00   0.00   0.00    -0.00   0.00  -0.00    -0.00   0.00  -0.00
   7   1    -0.36   0.10   0.48    -0.01   0.00   0.02    -0.19   0.06   0.11
   8   1    -0.13   0.38   0.11     0.14  -0.05  -0.03     0.36  -0.21  -0.10
   9   1    -0.39  -0.38  -0.24     0.07  -0.05   0.16     0.06  -0.38   0.46
  10   1     0.11   0.10   0.01    -0.04  -0.04   0.00    -0.01  -0.04   0.04
  11   1    -0.00   0.07   0.01    -0.02  -0.05  -0.01     0.02  -0.06  -0.02
  12   1    -0.04  -0.03  -0.01    -0.07   0.02   0.01     0.02   0.04   0.01
  13   1     0.01  -0.07  -0.01     0.05  -0.13  -0.15     0.06  -0.15  -0.18
  14   1     0.09  -0.02  -0.01     0.15  -0.04  -0.09     0.17  -0.05  -0.11
  15   1     0.01  -0.02  -0.00     0.16  -0.13  -0.03     0.17  -0.15  -0.04
  16   1     0.03   0.03   0.01     0.34   0.18   0.24    -0.16  -0.09  -0.10
  17   1     0.03   0.01   0.00     0.45   0.11  -0.04    -0.20  -0.08   0.01
  18   1     0.04  -0.01  -0.00     0.41  -0.11   0.14    -0.18   0.05  -0.08
                     31                     32                     33
                        a                      a                      a 
 Frequencies --  1450.2436              1480.2938              1497.7241
 Red. masses --     2.5322                 1.8718                 1.5510
 Frc consts  --     0.0000                 0.0000                 0.0000
 IR Inten    --    21.9526                 9.9331                 1.0099
 Raman Activ --     0.0000                 0.0000                 0.0000
 Depolar     --     0.0000                 0.0000                 0.0000
 Atom AN      X      Y      Z        X      Y      Z        X      Y      Z
   1   7     0.00  -0.08   0.07    -0.01  -0.02   0.00     0.01   0.00   0.00
   2   6    -0.04  -0.02  -0.00     0.15  -0.19   0.12    -0.03   0.02  -0.02
   3   6     0.03  -0.03  -0.01     0.01   0.00   0.00     0.01   0.02  -0.02
   4   6    -0.19   0.20   0.19    -0.06  -0.00   0.02    -0.03  -0.09   0.05
   5   6     0.08   0.02   0.04     0.01   0.04   0.00     0.02   0.13  -0.13
   6  17     0.00  -0.00   0.00    -0.00   0.00  -0.00     0.00  -0.00   0.00
   7   1     0.18  -0.05  -0.08     0.04  -0.01   0.01    -0.01   0.00   0.01
   8   1    -0.22   0.14   0.06     0.04   0.01   0.01    -0.02   0.01   0.00
   9   1     0.01   0.31  -0.29     0.04   0.03   0.03    -0.04  -0.02  -0.04
  10   1     0.06   0.02   0.07    -0.15   0.26  -0.58     0.05  -0.03   0.11
  11   1     0.09  -0.01   0.00    -0.48   0.42   0.13     0.09  -0.07  -0.02
  12   1    -0.03   0.03   0.01    -0.01   0.01   0.00    -0.03  -0.01  -0.01
  13   1     0.11  -0.25  -0.30     0.04  -0.00  -0.13     0.05   0.24  -0.23
  14   1     0.26  -0.08  -0.28     0.02  -0.00   0.04    -0.17   0.04   0.02
  15   1     0.26  -0.34  -0.08     0.14   0.03   0.01     0.24   0.08   0.02
  16   1    -0.08  -0.03  -0.07     0.00  -0.06   0.07    -0.07  -0.47   0.39
  17   1    -0.11  -0.04   0.01     0.02  -0.11  -0.03     0.33  -0.17  -0.10
  18   1    -0.09   0.02  -0.07    -0.06   0.02  -0.05    -0.32   0.13   0.25
                     34                     35                     36
                        a                      a                      a 
 Frequencies --  1504.1844              1508.9936              1516.8101
 Red. masses --     1.5883                 1.5770                 1.5039
 Frc consts  --     0.0000                 0.0000                 0.0000
 IR Inten    --     2.8889                 7.6592                 1.8552
 Raman Activ --     0.0000                 0.0000                 0.0000
 Depolar     --     0.0000                 0.0000                 0.0000
 Atom AN      X      Y      Z        X      Y      Z        X      Y      Z
   1   7     0.00  -0.00   0.00    -0.01   0.00  -0.00    -0.01  -0.01   0.01
   2   6    -0.02   0.03  -0.02    -0.01  -0.03   0.00    -0.00   0.01   0.00
   3   6    -0.06   0.02   0.03     0.02   0.09  -0.00    -0.04   0.00  -0.05
   4   6    -0.06  -0.09  -0.04     0.08   0.13  -0.05    -0.12   0.04  -0.14
   5   6    -0.05   0.10   0.14    -0.03   0.13   0.00     0.04  -0.01  -0.05
   6  17     0.00  -0.00   0.00    -0.00   0.00  -0.00    -0.00   0.00   0.00
   7   1     0.01  -0.00  -0.00     0.02  -0.00  -0.00     0.04  -0.01  -0.02
   8   1    -0.02   0.01   0.00     0.02  -0.01  -0.01    -0.01   0.01   0.00
   9   1    -0.01   0.02  -0.03     0.03   0.01   0.03     0.03   0.06  -0.02
  10   1     0.01  -0.07   0.10     0.00   0.01  -0.01     0.01  -0.01   0.03
  11   1     0.09  -0.06  -0.02    -0.00   0.01   0.01     0.01  -0.04  -0.01
  12   1     0.04  -0.01   0.00    -0.01  -0.04  -0.02     0.02  -0.01  -0.02
  13   1     0.06   0.03  -0.20    -0.10  -0.28   0.40     0.03  -0.49   0.01
  14   1    -0.01   0.01   0.26     0.22  -0.06  -0.16     0.42  -0.08   0.50
  15   1     0.24   0.26   0.06    -0.44  -0.21  -0.05     0.03   0.40   0.10
  16   1     0.23   0.17   0.10     0.09  -0.18   0.30    -0.09  -0.12   0.01
  17   1    -0.07  -0.49  -0.11     0.16  -0.39  -0.12     0.06   0.13   0.03
  18   1     0.08  -0.08  -0.56    -0.16   0.03  -0.18    -0.08   0.05   0.20
                     37                     38                     39
                        a                      a                      a 
 Frequencies --  2853.4215              2953.3027              2985.6409
 Red. masses --     1.7437                 1.9366                 1.5666
 Frc consts  --     0.0000                 0.0000                 0.0000
 IR Inten    --    62.6483                16.5936                 9.4623
 Raman Activ --     0.0000                 0.0000                 0.0000
 Depolar     --     0.0000                 0.0000                 0.0000
 Atom AN      X      Y      Z        X      Y      Z        X      Y      Z
   1   7    -0.00  -0.00   0.00     0.00  -0.00  -0.00    -0.00   0.00   0.00
   2   6    -0.00   0.00   0.00    -0.16   0.10   0.22     0.08  -0.12   0.16
   3   6    -0.02   0.07  -0.25    -0.00   0.00   0.01     0.00  -0.01   0.01
   4   6     0.00  -0.00   0.00     0.00   0.01  -0.01     0.00   0.02  -0.01
   5   6    -0.00  -0.00   0.00     0.00  -0.01  -0.00    -0.01   0.05  -0.00
   6  17     0.00  -0.00   0.00    -0.00   0.00  -0.00     0.00  -0.00  -0.00
   7   1     0.00   0.00  -0.00     0.00   0.00  -0.00     0.00  -0.00   0.00
   8   1     0.00   0.00   0.00     0.00  -0.00   0.01     0.00  -0.01   0.02
   9   1     0.00   0.00  -0.00    -0.03   0.02   0.02     0.02  -0.01  -0.01
  10   1     0.01  -0.01  -0.00     0.59  -0.48  -0.38    -0.30   0.23   0.23
  11   1    -0.00   0.01  -0.04    -0.02   0.13  -0.41     0.01   0.20  -0.82
  12   1     0.08  -0.25   0.93    -0.00   0.01  -0.02    -0.00   0.01  -0.02
  13   1    -0.01  -0.00  -0.00    -0.01  -0.00  -0.00     0.00   0.00  -0.00
  14   1     0.01   0.01   0.00    -0.01  -0.02   0.00    -0.01  -0.05   0.00
  15   1     0.00   0.00  -0.03     0.00  -0.01   0.02     0.00  -0.01   0.04
  16   1     0.01  -0.01  -0.01    -0.01   0.01   0.01     0.07  -0.06  -0.07
  17   1    -0.01   0.01  -0.03    -0.00   0.00  -0.01     0.00  -0.01   0.06
  18   1     0.00   0.01   0.00     0.00   0.01  -0.00    -0.03  -0.10   0.01
                     40                     41                     42
                        a                      a                      a 
 Frequencies --  2995.3181              2998.1943              3001.5167
 Red. masses --     1.9116                 1.9059                 1.9157
 Frc consts  --     0.0000                 0.0000                 0.0000
 IR Inten    --    49.7117                43.9329                92.6218
 Raman Activ --     0.0000                 0.0000                 0.0000
 Depolar     --     0.0000                 0.0000                 0.0000
 Atom AN      X      Y      Z        X      Y      Z        X      Y      Z
   1   7    -0.00   0.00   0.00    -0.00  -0.00  -0.00     0.00   0.00  -0.00
   2   6     0.01  -0.02   0.01    -0.00   0.00  -0.02     0.01  -0.01   0.02
   3   6     0.00  -0.00  -0.01     0.00   0.01  -0.00    -0.00  -0.01   0.02
   4   6     0.03   0.06  -0.00     0.08   0.23  -0.11    -0.03  -0.07   0.03
   5   6     0.11  -0.19  -0.17    -0.04  -0.02   0.09    -0.04  -0.21   0.17
   6  17     0.00   0.00  -0.00     0.00   0.00  -0.00    -0.00   0.00  -0.00
   7   1    -0.00  -0.00   0.00     0.00   0.00  -0.00    -0.00  -0.00   0.00
   8   1     0.00  -0.00   0.00    -0.00   0.00  -0.00     0.00  -0.00   0.00
   9   1     0.00  -0.00  -0.00    -0.00  -0.00  -0.00     0.00   0.00   0.00
  10   1    -0.05   0.04   0.04     0.00  -0.00  -0.00    -0.04   0.03   0.03
  11   1     0.00   0.02  -0.08     0.00  -0.02   0.06     0.00   0.03  -0.11
  12   1     0.00  -0.00   0.01     0.00  -0.00   0.01    -0.00   0.01  -0.03
  13   1    -0.06   0.00  -0.02    -0.09   0.03  -0.05     0.03  -0.01   0.02
  14   1    -0.06  -0.23   0.02    -0.22  -0.76   0.05     0.06   0.23  -0.01
  15   1     0.00   0.00   0.02     0.03  -0.08   0.39    -0.01   0.02  -0.10
  16   1    -0.52   0.46   0.46     0.14  -0.14  -0.12     0.03  -0.07  -0.01
  17   1     0.04  -0.09   0.21    -0.03   0.05  -0.19    -0.07   0.12  -0.54
  18   1     0.10   0.29  -0.06     0.03   0.15  -0.00     0.18   0.69  -0.05
                     43                     44                     45
                        a                      a                      a 
 Frequencies --  3011.7424              3018.4013              3027.9749
 Red. masses --     1.7455                 1.3483                 1.4376
 Frc consts  --     0.0000                 0.0000                 0.0000
 IR Inten    --    47.4071                60.7990                20.8786
 Raman Activ --     0.0000                 0.0000                 0.0000
 Depolar     --     0.0000                 0.0000                 0.0000
 Atom AN      X      Y      Z        X      Y      Z        X      Y      Z
   1   7     0.00  -0.00  -0.00     0.00  -0.00  -0.00     0.00  -0.00  -0.00
   2   6     0.00  -0.00  -0.00    -0.00   0.01  -0.00    -0.00   0.00   0.00
   3   6    -0.00  -0.00  -0.01    -0.01  -0.00  -0.01    -0.00   0.00  -0.00
   4   6    -0.12  -0.03  -0.22    -0.04  -0.02  -0.06    -0.20   0.03  -0.00
   5   6     0.04  -0.01   0.01    -0.11  -0.03  -0.11     0.00   0.00   0.00
   6  17    -0.00  -0.00   0.00    -0.00  -0.00   0.00    -0.00  -0.00   0.00
   7   1     0.00  -0.00   0.00    -0.00  -0.00   0.00     0.00   0.01  -0.00
   8   1     0.00   0.00  -0.00     0.00   0.00  -0.00     0.00  -0.00  -0.00
   9   1    -0.00   0.00   0.00    -0.01   0.01   0.00    -0.01   0.01   0.01
  10   1    -0.01   0.01   0.01     0.01  -0.01  -0.01     0.01  -0.00  -0.00
  11   1     0.00  -0.00   0.00    -0.00  -0.01   0.03    -0.00   0.00  -0.00
  12   1     0.00  -0.01   0.02    -0.00  -0.00   0.01     0.00  -0.00   0.00
  13   1     0.34   0.03   0.09     0.12   0.01   0.04     0.83   0.08   0.29
  14   1     0.07   0.31  -0.06     0.03   0.11  -0.02    -0.10  -0.27   0.02
  15   1     0.01  -0.22   0.75    -0.00  -0.06   0.20    -0.03   0.08  -0.31
  16   1    -0.12   0.11   0.11     0.21  -0.20  -0.21    -0.01   0.01   0.01
  17   1    -0.01   0.04  -0.17     0.07  -0.19   0.68    -0.00   0.00  -0.01
  18   1    -0.03  -0.13   0.01     0.12   0.50  -0.07    -0.00  -0.01   0.00
                     46                     47                     48
                        a                      a                      a 
 Frequencies --  3143.0756              3222.7815              3241.4788
 Red. masses --     1.9433                 2.0346                 1.4368
 Frc consts  --     0.0000                 0.0000                 0.0000
 IR Inten    --   504.3671               165.2062                69.1991
 Raman Activ --     0.0000                 0.0000                 0.0000
 Depolar     --     0.0000                 0.0000                 0.0000
 Atom AN      X      Y      Z        X      Y      Z        X      Y      Z
   1   7     0.17  -0.15  -0.15     0.04   0.23  -0.15     0.06   0.06   0.16
   2   6     0.01  -0.01  -0.00    -0.00   0.00  -0.01     0.01  -0.00   0.01
   3   6     0.00   0.00  -0.00    -0.00  -0.00  -0.00    -0.00   0.00  -0.00
   4   6     0.00   0.00   0.00    -0.00   0.00  -0.00     0.00   0.00   0.00
   5   6     0.00  -0.00  -0.00     0.00   0.00  -0.00     0.00   0.00   0.00
   6  17    -0.00   0.00   0.00    -0.00  -0.00   0.00     0.00  -0.00  -0.00
   7   1     0.04   0.13  -0.02    -0.15  -0.77   0.02    -0.10  -0.54   0.04
   8   1     0.02  -0.05   0.10     0.02  -0.15   0.53    -0.02   0.24  -0.75
   9   1    -0.68   0.46   0.47    -0.03   0.05   0.01    -0.13   0.09   0.11
  10   1    -0.03   0.02   0.02    -0.00  -0.00   0.00    -0.01   0.00   0.00
  11   1     0.00   0.00  -0.00    -0.00  -0.00   0.01    -0.00   0.00  -0.02
  12   1     0.00  -0.00   0.00    -0.00  -0.00   0.00     0.00  -0.00   0.00
  13   1    -0.01  -0.00  -0.00     0.00  -0.00   0.00    -0.00   0.00  -0.00
  14   1    -0.00  -0.00   0.00    -0.00  -0.00   0.00    -0.00  -0.00   0.00
  15   1    -0.00   0.00  -0.00     0.00   0.00  -0.00    -0.00   0.00  -0.00
  16   1    -0.00   0.00   0.00    -0.00   0.00   0.00    -0.00   0.00   0.00
  17   1    -0.00   0.00  -0.00     0.00   0.00  -0.00    -0.00   0.00  -0.00
  18   1    -0.00  -0.00   0.00    -0.00  -0.00   0.00    -0.00  -0.00   0.00
