 Entering Gaussian System
 *********************************************
 Gaussian 98:
 frequency output generated by the xtb code
 *********************************************
                         Standard orientation:
 --------------------------------------------------------------------
  Center     Atomic     Atomic              Coordinates (Angstroms)
  Number     Number      Type              X           Y           Z
 --------------------------------------------------------------------
    1          7             0       -2.280660   -0.945246    1.478700
    2          6             0       -2.085399   -2.066178    0.518811
    3          6             0       -1.417491   -1.600594   -0.772392
    4          6             0       -0.113337   -0.900700   -0.529858
    5          6             0        1.065310   -1.619956   -0.386431
    6          6             0        2.258175   -0.981512   -0.123566
    7          6             0        2.312422    0.407398    0.012871
    8          8             0        3.473757    1.135382    0.279576
    9          6             0        4.645144    0.359296    0.390973
   10          6             0        1.119956    1.121124   -0.122936
   11          6             0       -0.068669    0.479100   -0.385861
   12         17             0       -3.405442    1.806977   -0.348961
   13          1             0       -1.372177   -0.588790    1.816376
   14          1             0       -2.836179   -1.221811    2.304312
   15          1             0       -2.760167   -0.150774    1.017310
   16          1             0       -3.051843   -2.536764    0.298665
   17          1             0       -1.476482   -2.845281    0.992900
   18          1             0       -2.089570   -0.920991   -1.309021
   19          1             0       -1.254748   -2.446726   -1.451041
   20          1             0        1.036834   -2.693417   -0.480669
   21          1             0        3.156742   -1.563737   -0.019778
   22          1             0        4.549043   -0.343312    1.219945
   23          1             0        5.485808    1.025782    0.588939
   24          1             0        4.829218   -0.173166   -0.543337
   25          1             0        1.152902    2.191744   -0.013098
   26          1             0       -0.982646    1.044254   -0.469598
 --------------------------------------------------------------------
     1 basis functions        1 primitive gaussians
     1 alpha electrons        1 beta electrons

 Harmonic frequencies (cm**-1), IR intensities (km*mol⁻¹),
 Raman scattering activities (A**4/amu), Raman depolarization ratios,
 reduced masses (AMU), force constants (mDyne/A) and normal coordinates:
                      1                      2                      3
                        a                      a                      a 
 Frequencies --  -139.0710                49.2544                60.2862
 Red. masses --    19.4403                12.4644                23.1695
 Frc consts  --     0.0000                 0.0000                 0.0000
 IR Inten    --   131.8711                 1.0343                10.0117
 Raman Activ --     0.0000                 0.0000                 0.0000
 Depolar     --     0.0000                 0.0000                 0.0000
 Atom AN      X      Y      Z        X      Y      Z        X      Y      Z
   1   7     0.25  -0.47   0.30     0.05  -0.15   0.07    -0.12   0.04  -0.01
   2   6     0.13  -0.24   0.02     0.01  -0.00  -0.11     0.04   0.08  -0.03
   3   6    -0.03   0.02   0.03    -0.08   0.21  -0.07     0.03   0.21   0.02
   4   6    -0.03   0.01   0.02    -0.05   0.15  -0.05     0.06   0.13   0.06
   5   6    -0.03   0.00   0.03    -0.14   0.07   0.23     0.02   0.05   0.04
   6   6    -0.03  -0.00   0.02    -0.10   0.00   0.24     0.07  -0.03   0.03
   7   6    -0.02   0.00  -0.00     0.02   0.03  -0.09     0.16  -0.04   0.05
   8   8    -0.01  -0.01  -0.01     0.07  -0.02  -0.14     0.25  -0.14   0.02
   9   6    -0.02  -0.01   0.01    -0.04  -0.12   0.23     0.19  -0.18  -0.15
  10   6    -0.01   0.01  -0.01     0.10   0.12  -0.37     0.20   0.04   0.10
  11   6    -0.02   0.02   0.01     0.07   0.17  -0.34     0.15   0.12   0.11
  12  17    -0.16   0.50  -0.31     0.07  -0.26   0.20    -0.68  -0.16  -0.12
  13   1     0.08  -0.09   0.00     0.01  -0.06   0.03    -0.04   0.07  -0.03
  14   1     0.16  -0.19   0.12     0.02  -0.07   0.01     0.01  -0.02   0.01
  15   1    -0.02  -0.16   0.17     0.01  -0.02   0.05    -0.10  -0.03   0.01
  16   1     0.03  -0.06   0.02    -0.00   0.01  -0.03     0.03  -0.00  -0.02
  17   1     0.06  -0.09  -0.06     0.01  -0.02  -0.07     0.03   0.04  -0.01
  18   1    -0.03   0.03   0.06    -0.03   0.09   0.03     0.01   0.08   0.03
  19   1    -0.02   0.04  -0.04    -0.04   0.09  -0.06    -0.00   0.08  -0.02
  20   1    -0.01   0.00   0.01    -0.07   0.01   0.14    -0.01   0.02   0.00
  21   1    -0.01  -0.00   0.01    -0.05  -0.02   0.15     0.01  -0.03   0.00
  22   1    -0.00   0.01   0.01    -0.05   0.06   0.14     0.07  -0.07  -0.05
  23   1    -0.00  -0.00  -0.01     0.01  -0.04   0.01     0.07  -0.07  -0.06
  24   1    -0.01  -0.02   0.01    -0.01  -0.14   0.13     0.02  -0.04  -0.06
  25   1    -0.00   0.00  -0.01     0.06   0.04  -0.17     0.08   0.01   0.04
  26   1    -0.01   0.01  -0.00     0.03   0.06  -0.13     0.05   0.05   0.04
                      4                      5                      6
                        a                      a                      a 
 Frequencies --    71.2684                88.0004               111.7038
 Red. masses --    11.0541                20.4232                11.0987
 Frc consts  --     0.0000                 0.0000                 0.0000
 IR Inten    --     8.7017                17.1732                25.5278
 Raman Activ --     0.0000                 0.0000                 0.0000
 Depolar     --     0.0000                 0.0000                 0.0000
 Atom AN      X      Y      Z        X      Y      Z        X      Y      Z
   1   7     0.12   0.18   0.07     0.07  -0.05   0.21    -0.51  -0.24   0.05
   2   6     0.16   0.07   0.19     0.05   0.03   0.10    -0.17  -0.13  -0.02
   3   6     0.00  -0.05   0.06    -0.16   0.24   0.07     0.03   0.01   0.14
   4   6     0.02  -0.02  -0.13    -0.12   0.19   0.01     0.03   0.01   0.19
   5   6     0.05  -0.01  -0.31    -0.14   0.13  -0.20     0.07   0.03  -0.00
   6   6     0.05  -0.01  -0.31    -0.10   0.06  -0.20     0.10   0.05  -0.18
   7   6     0.03  -0.02  -0.16    -0.05   0.03   0.02     0.10   0.05  -0.18
   8   8     0.01  -0.04  -0.03    -0.00  -0.06   0.07     0.14   0.08  -0.35
   9   6    -0.09  -0.09   0.53    -0.04  -0.12  -0.03     0.05   0.03   0.17
  10   6     0.02  -0.03  -0.10    -0.03   0.09   0.20     0.07   0.03  -0.00
  11   6     0.01  -0.03  -0.07    -0.07   0.17   0.19     0.04   0.01   0.19
  12  17    -0.26   0.02   0.05     0.36  -0.43  -0.31     0.10   0.08  -0.03
  13   1     0.03   0.11  -0.04     0.02  -0.02   0.06    -0.17  -0.12   0.16
  14   1     0.09   0.05   0.06     0.02  -0.02   0.05    -0.26  -0.07  -0.07
  15   1    -0.04   0.00   0.01     0.02  -0.02   0.05    -0.03  -0.02  -0.03
  16   1     0.06  -0.02   0.10     0.02  -0.01   0.05    -0.03  -0.05  -0.08
  17   1     0.09   0.06   0.07     0.05   0.01  -0.01    -0.07  -0.04   0.02
  18   1    -0.02  -0.03   0.02    -0.07   0.10   0.09     0.02   0.01   0.03
  19   1    -0.02  -0.03   0.04    -0.08   0.10  -0.03     0.02   0.02   0.02
  20   1     0.02   0.00  -0.12    -0.05   0.04  -0.10     0.02   0.01  -0.01
  21   1     0.02   0.00  -0.13    -0.03   0.00  -0.10     0.04   0.02  -0.09
  22   1    -0.14   0.01   0.17    -0.02  -0.06  -0.03    -0.06   0.08   0.10
  23   1    -0.04  -0.03   0.22    -0.00  -0.06   0.01     0.01   0.01   0.05
  24   1     0.08  -0.06   0.20    -0.02  -0.01  -0.03     0.07  -0.07   0.11
  25   1     0.00  -0.01  -0.01     0.01   0.02   0.10     0.02   0.01  -0.00
  26   1    -0.00  -0.01   0.00    -0.02   0.06   0.09     0.01   0.00   0.09
                      7                      8                      9
                        a                      a                      a 
 Frequencies --   161.9628               189.2510               239.3528
 Red. masses --     9.4374                 8.3745                 7.9005
 Frc consts  --     0.0000                 0.0000                 0.0000
 IR Inten    --    10.0217                 2.7554                 2.7252
 Raman Activ --     0.0000                 0.0000                 0.0000
 Depolar     --     0.0000                 0.0000                 0.0000
 Atom AN      X      Y      Z        X      Y      Z        X      Y      Z
   1   7    -0.37  -0.08   0.06     0.11  -0.04   0.30    -0.15   0.02   0.09
   2   6     0.26  -0.12   0.22    -0.39   0.16  -0.06     0.09   0.10   0.02
   3   6     0.00  -0.03   0.11    -0.07   0.08   0.06    -0.17   0.24  -0.06
   4   6     0.01   0.05  -0.13     0.04  -0.08   0.03     0.01  -0.06  -0.18
   5   6    -0.00   0.04  -0.09     0.07  -0.06  -0.08    -0.03  -0.15  -0.14
   6   6    -0.00   0.01  -0.04     0.09  -0.03  -0.16    -0.00  -0.23   0.07
   7   6    -0.01   0.01   0.04     0.07  -0.04  -0.03     0.03  -0.23   0.06
   8   8    -0.05  -0.05   0.39    -0.03   0.01   0.28    -0.12   0.00  -0.04
   9   6     0.02  -0.02  -0.13     0.10   0.18   0.03     0.15   0.43   0.04
  10   6     0.04   0.04  -0.21     0.08  -0.05  -0.17     0.06  -0.18   0.08
  11   6     0.05   0.06  -0.31     0.09  -0.06  -0.15     0.06  -0.09  -0.02
  12  17     0.06   0.09   0.03    -0.09  -0.08  -0.05     0.04   0.00   0.00
  13   1    -0.16   0.01   0.16     0.07  -0.19   0.16    -0.06   0.07   0.02
  14   1    -0.21  -0.02  -0.06    -0.06   0.00   0.02    -0.01  -0.05   0.03
  15   1    -0.04  -0.03  -0.07     0.17   0.09   0.12    -0.09  -0.02   0.04
  16   1     0.14  -0.18   0.08    -0.18   0.22  -0.08     0.05  -0.05   0.04
  17   1     0.18   0.07   0.10    -0.25  -0.09  -0.06     0.10   0.07  -0.02
  18   1    -0.04  -0.03   0.07     0.03   0.06  -0.00    -0.05   0.14   0.08
  19   1    -0.01  -0.01   0.02    -0.05   0.01   0.02    -0.15   0.10  -0.08
  20   1    -0.01   0.01  -0.02     0.03  -0.02  -0.02    -0.03  -0.04  -0.06
  21   1    -0.01  -0.00  -0.00     0.04  -0.00  -0.08    -0.00  -0.07   0.07
  22   1     0.03  -0.15  -0.16     0.04  -0.08  -0.11     0.19   0.28   0.16
  23   1    -0.01  -0.02   0.08    -0.02   0.07   0.15     0.01   0.24  -0.21
  24   1     0.01   0.16  -0.13     0.10   0.21  -0.07    -0.01  -0.05   0.10
  25   1     0.02   0.01  -0.08     0.02  -0.01  -0.07     0.04  -0.06   0.05
  26   1     0.02   0.02  -0.12     0.03  -0.02  -0.06     0.02  -0.01   0.01
                     10                     11                     12
                        a                      a                      a 
 Frequencies --   245.6713               277.6537               327.4642
 Red. masses --     3.6779                 5.8914                 9.4135
 Frc consts  --     0.0000                 0.0000                 0.0000
 IR Inten    --     1.4061                 2.4896                14.8598
 Raman Activ --     0.0000                 0.0000                 0.0000
 Depolar     --     0.0000                 0.0000                 0.0000
 Atom AN      X      Y      Z        X      Y      Z        X      Y      Z
   1   7    -0.15  -0.02  -0.11     0.18   0.04  -0.13     0.14   0.00  -0.26
   2   6    -0.11  -0.04  -0.03     0.21  -0.05  -0.03    -0.09  -0.26   0.06
   3   6    -0.07   0.06   0.04    -0.05   0.11  -0.08    -0.05  -0.20   0.12
   4   6    -0.04  -0.02   0.15    -0.06   0.05   0.05    -0.23   0.17   0.21
   5   6    -0.03  -0.03   0.13    -0.15  -0.06   0.21    -0.22   0.13  -0.04
   6   6     0.02  -0.03  -0.07    -0.06  -0.15   0.03    -0.09  -0.07  -0.15
   7   6     0.04  -0.03  -0.09    -0.00  -0.14  -0.07     0.07  -0.09  -0.06
   8   8    -0.01   0.02   0.01    -0.06  -0.04  -0.25     0.05  -0.12   0.21
   9   6     0.06   0.13   0.02     0.04   0.16   0.07     0.25   0.17   0.06
  10   6     0.05  -0.02  -0.10     0.02  -0.08   0.12     0.13   0.01  -0.18
  11   6     0.02  -0.01   0.03    -0.02   0.04   0.10    -0.05   0.19   0.08
  12  17     0.15  -0.04   0.04    -0.08   0.04  -0.01    -0.02   0.02   0.00
  13   1    -0.01   0.28  -0.40     0.03  -0.13   0.15     0.07  -0.04  -0.10
  14   1     0.33  -0.10   0.19    -0.16   0.09  -0.15     0.01   0.12  -0.05
  15   1    -0.41  -0.17   0.08     0.24   0.08  -0.13     0.10   0.01  -0.13
  16   1    -0.02  -0.03  -0.01     0.08  -0.07   0.04    -0.04  -0.06   0.03
  17   1    -0.01   0.01  -0.00     0.12   0.03  -0.02    -0.05  -0.07   0.04
  18   1    -0.00   0.05   0.03    -0.04   0.06   0.04    -0.05  -0.13  -0.00
  19   1    -0.03   0.04  -0.02    -0.02   0.07  -0.07     0.10  -0.05   0.05
  20   1    -0.02  -0.01   0.05    -0.08  -0.02   0.09    -0.10   0.04  -0.04
  21   1     0.01  -0.01  -0.06    -0.01  -0.05  -0.03    -0.04  -0.04  -0.06
  22   1    -0.05  -0.13  -0.15    -0.12  -0.15  -0.17     0.21   0.14   0.11
  23   1    -0.04   0.04   0.25    -0.08   0.06   0.37     0.05   0.13  -0.15
  24   1     0.16   0.24  -0.08     0.26   0.28  -0.07     0.01  -0.04   0.06
  25   1     0.02  -0.00  -0.05     0.04  -0.02   0.05     0.09   0.01  -0.09
  26   1     0.01   0.00   0.00     0.01   0.03   0.02     0.01   0.10   0.04
                     13                     14                     15
                        a                      a                      a 
 Frequencies --   361.4573               379.3951               392.8846
 Red. masses --     9.4404                 8.9005                 9.8014
 Frc consts  --     0.0000                 0.0000                 0.0000
 IR Inten    --    12.7882                 0.5139                 1.9492
 Raman Activ --     0.0000                 0.0000                 0.0000
 Depolar     --     0.0000                 0.0000                 0.0000
 Atom AN      X      Y      Z        X      Y      Z        X      Y      Z
   1   7     0.09   0.04  -0.20    -0.01  -0.00   0.05     0.06   0.02  -0.15
   2   6     0.10  -0.06  -0.04     0.01   0.05  -0.01    -0.10  -0.19   0.09
   3   6    -0.01   0.29   0.10     0.05  -0.02  -0.03    -0.38   0.04   0.03
   4   6     0.13  -0.11   0.34     0.01   0.03  -0.02    -0.12  -0.25  -0.10
   5   6     0.13  -0.15   0.09     0.06   0.04  -0.41     0.05  -0.00  -0.08
   6   6     0.12  -0.02  -0.14    -0.08  -0.06   0.44    -0.08   0.24   0.12
   7   6    -0.04  -0.01  -0.15    -0.01  -0.03   0.03     0.08   0.25   0.09
   8   8    -0.22   0.04   0.21    -0.01  -0.01  -0.07     0.34   0.12   0.00
   9   6    -0.27  -0.07  -0.05    -0.01   0.01  -0.01     0.24  -0.06   0.04
  10   6     0.02   0.02  -0.27     0.07   0.03  -0.37    -0.09  -0.01  -0.00
  11   6     0.04  -0.11   0.20    -0.08  -0.01   0.41     0.00  -0.25  -0.02
  12  17    -0.03   0.03   0.00     0.00  -0.01  -0.01    -0.02   0.02   0.00
  13   1     0.03  -0.02  -0.03    -0.01  -0.00   0.03     0.04  -0.03  -0.06
  14   1    -0.03   0.07  -0.07    -0.01  -0.02   0.00    -0.01   0.11  -0.03
  15   1     0.08   0.02  -0.11    -0.01   0.00   0.02     0.08   0.01  -0.11
  16   1     0.04  -0.05  -0.00     0.00   0.02  -0.01    -0.03  -0.08   0.09
  17   1     0.06   0.00  -0.03    -0.00   0.01  -0.00     0.02  -0.02   0.01
  18   1     0.03   0.23   0.17     0.01  -0.03  -0.04    -0.11   0.13   0.17
  19   1    -0.10   0.19  -0.12     0.04  -0.03   0.02    -0.24   0.09  -0.12
  20   1     0.05  -0.04   0.01     0.03   0.02  -0.26     0.11  -0.00  -0.03
  21   1     0.05   0.02  -0.06    -0.04  -0.03   0.24    -0.02   0.07   0.05
  22   1    -0.03   0.03   0.03    -0.04  -0.07  -0.07     0.03  -0.03  -0.01
  23   1    -0.03  -0.05  -0.13    -0.02  -0.00   0.11     0.08  -0.05   0.05
  24   1    -0.19  -0.08  -0.00     0.06   0.09  -0.04     0.07   0.00   0.00
  25   1     0.02   0.01  -0.14     0.05   0.02  -0.24    -0.13   0.00  -0.02
  26   1    -0.01  -0.06   0.07    -0.04  -0.01   0.22     0.00  -0.07  -0.00
                     16                     17                     18
                        a                      a                      a 
 Frequencies --   454.7856               503.3405               541.5922
 Red. masses --    10.0672                10.3989                 8.9114
 Frc consts  --     0.0000                 0.0000                 0.0000
 IR Inten    --     1.6523                 3.6836                 5.0061
 Raman Activ --     0.0000                 0.0000                 0.0000
 Depolar     --     0.0000                 0.0000                 0.0000
 Atom AN      X      Y      Z        X      Y      Z        X      Y      Z
   1   7    -0.04   0.03   0.16    -0.00  -0.00  -0.02    -0.00   0.03   0.09
   2   6     0.16   0.22  -0.11     0.06   0.04  -0.04     0.11   0.15  -0.11
   3   6    -0.00  -0.04  -0.27     0.17   0.11   0.07    -0.10  -0.06  -0.25
   4   6    -0.06  -0.10  -0.06     0.12  -0.04   0.27    -0.22  -0.09   0.35
   5   6    -0.08  -0.05   0.25     0.08  -0.12  -0.09    -0.10   0.05   0.04
   6   6    -0.09   0.13  -0.14    -0.10   0.10  -0.01    -0.00  -0.01  -0.12
   7   6    -0.01   0.13  -0.36    -0.33   0.04   0.26     0.08  -0.04   0.43
   8   8     0.11  -0.15   0.24    -0.02  -0.42  -0.16     0.14   0.26  -0.05
   9   6     0.24  -0.01   0.05     0.26  -0.00   0.04    -0.03  -0.00  -0.01
  10   6    -0.14   0.03  -0.17    -0.25   0.23  -0.02     0.07  -0.18  -0.11
  11   6    -0.17  -0.14   0.26    -0.10   0.01  -0.14    -0.02  -0.09  -0.01
  12  17     0.01  -0.01  -0.01     0.00  -0.00   0.00     0.00  -0.01   0.00
  13   1    -0.04   0.02   0.11    -0.01   0.01   0.00    -0.02   0.01   0.08
  14   1    -0.02  -0.11  -0.01     0.00  -0.02  -0.01    -0.01  -0.08  -0.01
  15   1    -0.04   0.02   0.10    -0.01  -0.00   0.00    -0.02   0.03   0.08
  16   1     0.06  -0.00   0.03     0.02   0.02  -0.04     0.05  -0.05   0.07
  17   1     0.12   0.10  -0.05     0.00   0.00  -0.01     0.15   0.11  -0.07
  18   1     0.02  -0.05  -0.14     0.07   0.07   0.04     0.00  -0.06  -0.16
  19   1     0.02  -0.07  -0.00     0.04   0.05  -0.01     0.05  -0.06  -0.00
  20   1    -0.01  -0.02   0.18     0.05  -0.02  -0.15     0.02   0.03  -0.18
  21   1    -0.02   0.05   0.03     0.05   0.13  -0.12     0.01  -0.03  -0.27
  22   1     0.15   0.01   0.03     0.16   0.02   0.04    -0.08   0.01  -0.00
  23   1     0.04   0.05  -0.04    -0.04   0.14   0.01     0.05  -0.08  -0.01
  24   1     0.05  -0.01   0.01     0.19  -0.00   0.03    -0.06  -0.03   0.00
  25   1    -0.10   0.01  -0.00    -0.08   0.08  -0.12     0.03  -0.03  -0.24
  26   1    -0.07  -0.07   0.16    -0.06  -0.06  -0.16     0.04   0.02  -0.15
                     19                     20                     21
                        a                      a                      a 
 Frequencies --   607.7938               680.7421               713.8984
 Red. masses --    11.1780                11.1855                10.4675
 Frc consts  --     0.0000                 0.0000                 0.0000
 IR Inten    --     3.8363                 3.9309                63.2198
 Raman Activ --     0.0000                 0.0000                 0.0000
 Depolar     --     0.0000                 0.0000                 0.0000
 Atom AN      X      Y      Z        X      Y      Z        X      Y      Z
   1   7    -0.00  -0.01   0.01    -0.01  -0.01   0.00     0.01  -0.02  -0.05
   2   6    -0.00  -0.00   0.01    -0.05  -0.06   0.07     0.13   0.03  -0.00
   3   6    -0.00  -0.07  -0.03    -0.04  -0.04  -0.00     0.32   0.12   0.23
   4   6     0.03  -0.10  -0.01     0.10   0.05  -0.51     0.09   0.07  -0.11
   5   6    -0.20  -0.40  -0.06     0.02   0.03   0.31    -0.21  -0.27  -0.03
   6   6    -0.43   0.05  -0.08     0.13   0.04  -0.26    -0.25  -0.14  -0.12
   7   6    -0.03   0.10   0.01    -0.10  -0.05   0.49    -0.02  -0.02   0.10
   8   8    -0.03   0.06   0.00    -0.06  -0.10  -0.10     0.27   0.37   0.06
   9   6    -0.08   0.06  -0.01    -0.03   0.00  -0.01     0.13   0.00   0.02
  10   6     0.25   0.39   0.07     0.08   0.10  -0.25    -0.14  -0.15  -0.09
  11   6     0.50  -0.07   0.09     0.00   0.01   0.30    -0.25  -0.01  -0.00
  12  17    -0.00   0.00  -0.00     0.00   0.00   0.00    -0.00   0.00   0.00
  13   1    -0.00  -0.00   0.00     0.00   0.00  -0.02    -0.03   0.05   0.01
  14   1     0.00  -0.01   0.00    -0.00   0.04   0.02    -0.01  -0.02  -0.03
  15   1     0.00  -0.00   0.01     0.00  -0.01  -0.03    -0.03  -0.04  -0.04
  16   1     0.00  -0.01   0.01    -0.03   0.03  -0.01     0.00   0.16  -0.17
  17   1     0.01   0.01   0.00    -0.06  -0.05   0.03    -0.14  -0.11   0.04
  18   1    -0.01  -0.07  -0.07    -0.05  -0.00   0.05     0.07   0.06   0.12
  19   1     0.05  -0.05   0.04    -0.08  -0.01  -0.02     0.05   0.07   0.01
  20   1    -0.02  -0.11  -0.02     0.01   0.01   0.09    -0.14  -0.07   0.02
  21   1    -0.10   0.05  -0.02     0.05   0.03  -0.12    -0.09  -0.07   0.00
  22   1    -0.03   0.02  -0.00     0.00   0.01   0.01    -0.06  -0.01  -0.01
  23   1    -0.01   0.00  -0.00    -0.04   0.03  -0.00     0.13  -0.12   0.01
  24   1    -0.03   0.01  -0.00     0.03  -0.01   0.01    -0.05  -0.01  -0.01
  25   1     0.03   0.11   0.01     0.05   0.03  -0.13    -0.06  -0.04  -0.00
  26   1     0.13  -0.04   0.01     0.00   0.01   0.09    -0.09  -0.03   0.02
                     22                     23                     24
                        a                      a                      a 
 Frequencies --   801.5425               814.7779               855.9296
 Red. masses --     4.7794                 7.7247                 7.3505
 Frc consts  --     0.0000                 0.0000                 0.0000
 IR Inten    --    33.9768                 6.7907                36.3369
 Raman Activ --     0.0000                 0.0000                 0.0000
 Depolar     --     0.0000                 0.0000                 0.0000
 Atom AN      X      Y      Z        X      Y      Z        X      Y      Z
   1   7    -0.00  -0.01  -0.03    -0.06  -0.03   0.01     0.04   0.15   0.16
   2   6    -0.07   0.03  -0.05    -0.23  -0.04   0.02     0.07  -0.17   0.03
   3   6    -0.06   0.05   0.03    -0.14   0.07  -0.06    -0.09  -0.28  -0.34
   4   6    -0.01  -0.01   0.20     0.16   0.08  -0.09    -0.01  -0.01   0.15
   5   6     0.06  -0.03  -0.21     0.10  -0.31   0.06     0.07  -0.13  -0.04
   6   6     0.08   0.00  -0.31     0.16  -0.26   0.09     0.18  -0.19  -0.07
   7   6    -0.07  -0.03   0.30    -0.12  -0.05  -0.10    -0.10  -0.06  -0.01
   8   8     0.03   0.03  -0.07     0.13   0.20   0.06     0.07   0.11   0.01
   9   6     0.01  -0.00  -0.00     0.10  -0.02   0.02     0.05  -0.00   0.01
  10   6     0.00   0.03  -0.15    -0.12   0.24   0.03    -0.03   0.28   0.04
  11   6    -0.01   0.01  -0.08    -0.18   0.20   0.02    -0.07   0.19  -0.01
  12  17    -0.00  -0.00  -0.00    -0.00  -0.00  -0.00     0.00   0.00   0.00
  13   1     0.05  -0.09  -0.04     0.11  -0.20  -0.14    -0.13   0.26   0.17
  14   1     0.03  -0.00   0.01     0.06   0.11   0.09    -0.09  -0.01  -0.04
  15   1     0.03   0.06   0.06     0.09   0.10   0.07    -0.09  -0.11  -0.10
  16   1     0.03  -0.14   0.07     0.04  -0.27   0.14    -0.10   0.18   0.06
  17   1     0.12   0.11  -0.03     0.19   0.17  -0.01    -0.15  -0.17   0.01
  18   1     0.02  -0.03  -0.09    -0.01  -0.07  -0.15    -0.06   0.06   0.12
  19   1     0.07  -0.02   0.07     0.03  -0.06   0.10    -0.13   0.07  -0.29
  20   1    -0.07  -0.05   0.39    -0.03  -0.08  -0.11    -0.05  -0.04   0.03
  21   1    -0.08  -0.05   0.56     0.12  -0.00  -0.15     0.04  -0.04   0.17
  22   1    -0.01  -0.01  -0.01    -0.03  -0.01  -0.00    -0.02  -0.01  -0.01
  23   1     0.00  -0.01   0.04     0.09  -0.09  -0.00     0.05  -0.05   0.01
  24   1     0.01   0.01  -0.01    -0.03  -0.01  -0.00    -0.02  -0.00  -0.00
  25   1    -0.04  -0.02   0.24     0.05   0.07  -0.05     0.08   0.08  -0.00
  26   1    -0.04  -0.03   0.15    -0.09  -0.01  -0.04    -0.04   0.03  -0.03
                     25                     26                     27
                        a                      a                      a 
 Frequencies --   876.9012               892.1224               894.8129
 Red. masses --     3.4404                 3.6202                 4.1122
 Frc consts  --     0.0000                 0.0000                 0.0000
 IR Inten    --     6.4880                 2.8425                 8.2649
 Raman Activ --     0.0000                 0.0000                 0.0000
 Depolar     --     0.0000                 0.0000                 0.0000
 Atom AN      X      Y      Z        X      Y      Z        X      Y      Z
   1   7     0.05  -0.04   0.01     0.07  -0.15  -0.03     0.12  -0.20  -0.08
   2   6     0.02   0.02   0.01     0.02   0.08   0.07     0.06   0.14   0.06
   3   6    -0.08   0.04  -0.02    -0.12   0.17   0.07    -0.22   0.18   0.10
   4   6    -0.01  -0.01   0.08     0.00   0.00  -0.03    -0.01  -0.01  -0.01
   5   6     0.01  -0.03   0.07    -0.01  -0.05   0.28     0.09  -0.02  -0.21
   6   6     0.01  -0.04   0.17     0.08   0.01  -0.22     0.08  -0.05   0.11
   7   6    -0.03  -0.01   0.09    -0.01   0.01  -0.05    -0.03   0.00  -0.00
   8   8     0.01   0.01  -0.02    -0.00   0.00  -0.00     0.00   0.01   0.01
   9   6     0.01  -0.00  -0.01     0.01  -0.01   0.00     0.02  -0.01   0.00
  10   6     0.05   0.06  -0.35    -0.03  -0.01   0.05    -0.04   0.04   0.08
  11   6     0.02   0.02  -0.14    -0.00  -0.02   0.00    -0.00  -0.03   0.03
  12  17    -0.00   0.00  -0.00     0.00   0.00   0.01     0.00   0.01   0.01
  13   1    -0.05   0.10   0.04    -0.06   0.13   0.01    -0.10   0.21   0.07
  14   1    -0.04   0.02  -0.02    -0.06   0.07  -0.03    -0.09   0.02  -0.08
  15   1    -0.03  -0.11  -0.12    -0.01  -0.18  -0.22    -0.04  -0.24  -0.26
  16   1    -0.03   0.06   0.03    -0.03   0.09   0.03    -0.05   0.15   0.05
  17   1    -0.00  -0.04  -0.07     0.01  -0.07  -0.13    -0.01  -0.09  -0.17
  18   1    -0.00  -0.03  -0.08    -0.02  -0.09  -0.17    -0.04  -0.12  -0.21
  19   1     0.02  -0.03   0.05     0.06  -0.09   0.20     0.06  -0.11   0.26
  20   1     0.04   0.01  -0.17     0.12   0.04  -0.54    -0.06  -0.05   0.46
  21   1     0.07   0.03  -0.30    -0.06  -0.03   0.45     0.07   0.03  -0.21
  22   1    -0.01   0.01   0.00     0.01  -0.01  -0.00     0.00   0.00   0.01
  23   1     0.01  -0.00  -0.01    -0.00  -0.00   0.02     0.01  -0.01  -0.01
  24   1     0.01  -0.01   0.00    -0.00   0.01  -0.01    -0.00  -0.01   0.00
  25   1    -0.11  -0.06   0.68    -0.01   0.00  -0.02     0.03   0.04  -0.23
  26   1    -0.05  -0.03   0.33     0.02  -0.00  -0.13    -0.01  -0.02  -0.01
                     28                     29                     30
                        a                      a                      a 
 Frequencies --   917.1663               950.9687              1004.5148
 Red. masses --     6.6717                 3.2070                 9.1060
 Frc consts  --     0.0000                 0.0000                 0.0000
 IR Inten    --    43.8839                 1.9745                 6.8345
 Raman Activ --     0.0000                 0.0000                 0.0000
 Depolar     --     0.0000                 0.0000                 0.0000
 Atom AN      X      Y      Z        X      Y      Z        X      Y      Z
   1   7    -0.10   0.09   0.37     0.01   0.03   0.02     0.06  -0.03  -0.07
   2   6    -0.10  -0.30   0.03    -0.01  -0.03  -0.02    -0.09   0.03   0.06
   3   6     0.19   0.19  -0.28     0.01  -0.00  -0.01    -0.06  -0.07  -0.04
   4   6     0.06   0.04   0.01     0.01  -0.00   0.01     0.16   0.07   0.02
   5   6    -0.01   0.00  -0.05    -0.01  -0.03   0.10     0.13  -0.37  -0.02
   6   6    -0.13   0.11  -0.01    -0.01   0.03  -0.05    -0.20   0.29  -0.01
   7   6     0.05   0.03   0.02     0.01   0.00   0.04     0.17   0.08   0.04
   8   8    -0.02  -0.03  -0.01     0.00  -0.01   0.00     0.10  -0.11   0.01
   9   6    -0.02   0.00   0.00    -0.01   0.00  -0.00    -0.20   0.03  -0.03
  10   6     0.01  -0.19  -0.02    -0.02  -0.04   0.20     0.13  -0.29  -0.01
  11   6    -0.01  -0.06   0.01     0.05   0.05  -0.37    -0.28   0.33   0.01
  12  17    -0.00   0.00   0.01    -0.00   0.00  -0.01     0.00  -0.00   0.00
  13   1     0.03   0.09  -0.12    -0.00   0.01   0.02    -0.04   0.05   0.07
  14   1    -0.05   0.48   0.23    -0.01   0.01   0.00    -0.02  -0.12  -0.08
  15   1     0.07  -0.12  -0.25    -0.01  -0.01  -0.01    -0.04  -0.03   0.01
  16   1    -0.02  -0.10   0.02    -0.01  -0.01   0.02    -0.05  -0.01   0.15
  17   1     0.04  -0.09  -0.10     0.01   0.00  -0.01     0.02   0.03  -0.01
  18   1     0.09   0.02  -0.15     0.02   0.01  -0.01     0.00   0.01   0.00
  19   1     0.19   0.07  -0.07     0.00   0.00  -0.01    -0.06  -0.01  -0.03
  20   1    -0.00  -0.01   0.09     0.03   0.00  -0.10     0.17  -0.11   0.03
  21   1    -0.04   0.02  -0.02    -0.00   0.01   0.01     0.02   0.20   0.02
  22   1     0.01   0.00   0.00     0.00  -0.00  -0.00     0.04   0.01   0.01
  23   1    -0.02   0.02  -0.00    -0.01   0.01  -0.00    -0.12   0.10  -0.01
  24   1     0.01   0.00   0.00     0.00   0.00  -0.00     0.04   0.01   0.00
  25   1    -0.03  -0.05  -0.02     0.07   0.03  -0.38     0.24  -0.09   0.04
  26   1     0.02   0.00  -0.04    -0.12  -0.06   0.79    -0.02   0.18  -0.04
                     31                     32                     33
                        a                      a                      a 
 Frequencies --  1033.7133              1047.0705              1057.0660
 Red. masses --     7.6939                 9.8433                 5.9191
 Frc consts  --     0.0000                 0.0000                 0.0000
 IR Inten    --    17.4425                39.4143                27.2854
 Raman Activ --     0.0000                 0.0000                 0.0000
 Depolar     --     0.0000                 0.0000                 0.0000
 Atom AN      X      Y      Z        X      Y      Z        X      Y      Z
   1   7     0.07   0.39   0.07     0.10   0.02  -0.03     0.18  -0.02  -0.07
   2   6     0.02  -0.44  -0.30    -0.19  -0.04   0.01    -0.37  -0.01   0.08
   3   6    -0.16   0.20   0.19     0.07  -0.02   0.02     0.22  -0.03   0.02
   4   6     0.00   0.08  -0.07     0.09   0.01  -0.04     0.10   0.03  -0.07
   5   6     0.04  -0.07   0.02     0.02   0.07   0.01    -0.10   0.14   0.00
   6   6     0.04  -0.01   0.01    -0.12   0.14  -0.01    -0.01  -0.11  -0.01
   7   6    -0.00   0.04  -0.00    -0.12  -0.08  -0.03     0.05   0.01   0.00
   8   8     0.03  -0.01   0.01    -0.49   0.19  -0.06     0.23  -0.08   0.03
   9   6    -0.04  -0.00  -0.01     0.49  -0.15   0.06    -0.20   0.09  -0.03
  10   6    -0.01  -0.05  -0.00     0.04  -0.13  -0.01    -0.07   0.07  -0.00
  11   6     0.02  -0.07   0.01     0.07   0.02   0.03     0.04  -0.10   0.02
  12  17     0.00  -0.00  -0.00     0.00  -0.00   0.00     0.00   0.00   0.00
  13   1    -0.08   0.14   0.22    -0.06   0.09   0.12    -0.09   0.16   0.18
  14   1     0.01  -0.21  -0.09    -0.03  -0.12  -0.09    -0.06  -0.17  -0.14
  15   1    -0.10   0.13   0.20    -0.06  -0.04   0.00    -0.08  -0.10  -0.04
  16   1    -0.04  -0.06  -0.01    -0.06  -0.08   0.21    -0.11  -0.16   0.38
  17   1    -0.00  -0.10  -0.04     0.08   0.06  -0.05     0.15   0.13  -0.08
  18   1    -0.19  -0.19  -0.06     0.10   0.07  -0.01     0.25   0.17  -0.01
  19   1     0.32   0.08   0.10     0.02   0.03  -0.04     0.03   0.07  -0.09
  20   1     0.04  -0.02  -0.02     0.09   0.02   0.01    -0.17   0.05  -0.04
  21   1     0.04   0.04  -0.00    -0.02   0.06  -0.00    -0.06  -0.13  -0.03
  22   1     0.01   0.00   0.01    -0.06  -0.03  -0.01     0.01   0.01  -0.00
  23   1    -0.03   0.03   0.00     0.26  -0.21   0.02    -0.09   0.08  -0.01
  24   1     0.02  -0.00   0.00    -0.06  -0.03  -0.01     0.01   0.01   0.01
  25   1    -0.07  -0.01  -0.01     0.15  -0.05   0.02    -0.19   0.03  -0.04
  26   1    -0.01  -0.06  -0.03     0.05   0.05  -0.01    -0.02  -0.09  -0.04
                     34                     35                     36
                        a                      a                      a 
 Frequencies --  1075.9551              1131.5981              1136.4930
 Red. masses --     7.2087                 5.0126                 3.8052
 Frc consts  --     0.0000                 0.0000                 0.0000
 IR Inten    --     9.6613                30.7280                 2.0153
 Raman Activ --     0.0000                 0.0000                 0.0000
 Depolar     --     0.0000                 0.0000                 0.0000
 Atom AN      X      Y      Z        X      Y      Z        X      Y      Z
   1   7     0.03   0.11   0.20     0.01  -0.02   0.04     0.00   0.00  -0.00
   2   6     0.03  -0.01  -0.51    -0.01   0.06  -0.10    -0.00  -0.00  -0.00
   3   6    -0.02  -0.24   0.37    -0.01  -0.12   0.05     0.00   0.01  -0.00
   4   6     0.00  -0.11  -0.04    -0.03   0.15   0.01     0.00  -0.00  -0.00
   5   6    -0.04   0.05  -0.00    -0.01  -0.18  -0.02    -0.00   0.01   0.00
   6   6    -0.03   0.02   0.00     0.13  -0.08   0.01    -0.01   0.00   0.00
   7   6     0.02  -0.05  -0.00     0.02   0.19   0.02     0.00  -0.01   0.00
   8   8     0.04  -0.02   0.00    -0.17   0.19  -0.02     0.04   0.01  -0.23
   9   6    -0.02   0.04   0.00     0.06  -0.29  -0.00    -0.07  -0.03   0.42
  10   6     0.02   0.08   0.01     0.01  -0.15  -0.01    -0.00   0.01  -0.00
  11   6    -0.07   0.08   0.01     0.10   0.04   0.02    -0.00  -0.00   0.00
  12  17    -0.00   0.00   0.00     0.00  -0.00   0.00     0.00  -0.00  -0.00
  13   1    -0.02   0.12   0.01    -0.00   0.03  -0.01    -0.00   0.00   0.00
  14   1    -0.05   0.17   0.06    -0.01   0.03   0.01     0.00  -0.01  -0.00
  15   1     0.01  -0.07  -0.11     0.01  -0.03  -0.04     0.00   0.00   0.00
  16   1     0.06  -0.12  -0.11     0.01  -0.02  -0.00    -0.00  -0.00   0.00
  17   1     0.19   0.05  -0.29     0.03   0.04  -0.03    -0.00   0.00   0.01
  18   1     0.18   0.11   0.09    -0.00   0.01   0.06    -0.00  -0.00  -0.00
  19   1    -0.33  -0.15   0.12    -0.07  -0.02  -0.02     0.01   0.00  -0.00
  20   1     0.03   0.01   0.00    -0.33  -0.04  -0.06     0.01   0.00   0.00
  21   1    -0.04  -0.04  -0.01     0.16   0.17   0.04    -0.00  -0.01  -0.02
  22   1    -0.02   0.00  -0.01     0.18  -0.02   0.05     0.47  -0.33  -0.12
  23   1     0.01  -0.01  -0.00    -0.18   0.18  -0.02     0.04   0.02  -0.24
  24   1    -0.02   0.00   0.00     0.16   0.01  -0.01    -0.44   0.36  -0.20
  25   1     0.14   0.02   0.02    -0.44  -0.02  -0.08     0.01   0.00   0.01
  26   1    -0.01   0.04  -0.03     0.22   0.31   0.06    -0.01  -0.02  -0.00
                     37                     38                     39
                        a                      a                      a 
 Frequencies --  1154.2336              1173.7598              1194.5366
 Red. masses --     5.5408                 7.0936                 3.9007
 Frc consts  --     0.0000                 0.0000                 0.0000
 IR Inten    --    43.3416               136.3438                 3.5914
 Raman Activ --     0.0000                 0.0000                 0.0000
 Depolar     --     0.0000                 0.0000                 0.0000
 Atom AN      X      Y      Z        X      Y      Z        X      Y      Z
   1   7    -0.01   0.00   0.01    -0.02   0.02  -0.02    -0.08   0.15  -0.10
   2   6     0.02   0.01  -0.03     0.04  -0.04   0.02     0.13  -0.30   0.18
   3   6    -0.04  -0.03  -0.00    -0.03   0.02  -0.03    -0.01   0.16  -0.14
   4   6     0.05   0.06   0.02     0.12  -0.03   0.03     0.11  -0.06   0.05
   5   6     0.03  -0.13  -0.01    -0.02  -0.07  -0.01    -0.05   0.05  -0.01
   6   6     0.03   0.03   0.01    -0.01  -0.03  -0.01    -0.00   0.06   0.00
   7   6     0.24   0.07   0.05     0.49   0.16   0.10    -0.02  -0.01  -0.00
   8   8    -0.08  -0.35  -0.05    -0.32   0.06  -0.04     0.02  -0.01   0.00
   9   6     0.04   0.35   0.04     0.12  -0.20  -0.00    -0.01   0.01   0.00
  10   6    -0.04  -0.01  -0.01     0.01   0.14   0.01    -0.02  -0.04  -0.01
  11   6    -0.02   0.13   0.01    -0.15   0.12  -0.01     0.02   0.03   0.01
  12  17     0.00  -0.00  -0.00     0.00  -0.00   0.00    -0.00  -0.00  -0.00
  13   1     0.00  -0.00  -0.01     0.00  -0.02  -0.00     0.01  -0.08   0.04
  14   1     0.00  -0.00   0.00     0.00  -0.01  -0.00     0.07  -0.11  -0.01
  15   1     0.01   0.00  -0.00    -0.00   0.03   0.03    -0.02   0.14   0.15
  16   1    -0.00   0.01   0.00    -0.02   0.03   0.02    -0.04   0.09   0.01
  17   1    -0.00  -0.00  -0.00    -0.02  -0.04  -0.01    -0.05  -0.22  -0.08
  18   1    -0.03  -0.02   0.02    -0.00  -0.01  -0.03     0.32   0.17  -0.27
  19   1    -0.04  -0.02   0.01    -0.08  -0.05   0.04    -0.39  -0.28   0.27
  20   1    -0.00  -0.03  -0.00     0.10  -0.02   0.02    -0.29   0.03  -0.04
  21   1    -0.02  -0.04  -0.01    -0.26  -0.44  -0.08     0.04   0.08   0.01
  22   1    -0.26   0.01  -0.08     0.07  -0.02   0.01    -0.00  -0.00  -0.00
  23   1     0.31  -0.30   0.02    -0.15   0.17  -0.01     0.01  -0.02  -0.00
  24   1    -0.27  -0.00  -0.00     0.07  -0.02   0.00    -0.01   0.01  -0.00
  25   1    -0.50   0.02  -0.08    -0.13   0.05  -0.02     0.03  -0.01   0.01
  26   1     0.08   0.17   0.03    -0.21  -0.24  -0.05     0.03   0.05   0.01
                     40                     41                     42
                        a                      a                      a 
 Frequencies --  1206.0015              1232.4121              1255.9877
 Red. masses --     2.9708                 3.0852                 7.9668
 Frc consts  --     0.0000                 0.0000                 0.0000
 IR Inten    --    13.7866                11.1243                61.2210
 Raman Activ --     0.0000                 0.0000                 0.0000
 Depolar     --     0.0000                 0.0000                 0.0000
 Atom AN      X      Y      Z        X      Y      Z        X      Y      Z
   1   7     0.01  -0.04   0.03     0.26   0.00   0.07     0.04  -0.02   0.01
   2   6    -0.01   0.08  -0.08    -0.19  -0.05   0.02    -0.01  -0.00  -0.08
   3   6    -0.08  -0.08   0.01     0.04   0.14  -0.11    -0.12  -0.06  -0.10
   4   6     0.18   0.11   0.05    -0.08  -0.09   0.01     0.39   0.29   0.14
   5   6    -0.04  -0.01  -0.00    -0.02  -0.03  -0.01     0.11   0.17   0.03
   6   6     0.04   0.13   0.02     0.05   0.01   0.01    -0.25  -0.00  -0.04
   7   6     0.15   0.11   0.04     0.06   0.04   0.01    -0.25  -0.23  -0.06
   8   8    -0.09  -0.10  -0.02    -0.03  -0.02  -0.01     0.13   0.10   0.03
   9   6     0.02   0.05   0.01     0.01   0.00  -0.00    -0.03  -0.01  -0.01
  10   6     0.08  -0.07   0.01    -0.01   0.05  -0.00     0.02  -0.19  -0.02
  11   6    -0.01  -0.09  -0.01    -0.04   0.01  -0.01     0.19   0.07   0.04
  12  17     0.00   0.00   0.00     0.00  -0.00   0.00    -0.00   0.00   0.00
  13   1    -0.00   0.02  -0.02    -0.04   0.16   0.13    -0.01   0.03   0.01
  14   1    -0.02   0.05   0.01    -0.08  -0.04  -0.09    -0.02   0.04   0.00
  15   1     0.01  -0.04  -0.04    -0.08  -0.15  -0.07    -0.01  -0.03  -0.01
  16   1     0.01  -0.01   0.01     0.20  -0.31  -0.47     0.01  -0.04  -0.02
  17   1    -0.00   0.05   0.03    -0.13   0.22   0.49    -0.05   0.04   0.11
  18   1    -0.17  -0.11   0.07     0.03   0.01  -0.09    -0.20  -0.12   0.05
  19   1    -0.02   0.02  -0.05    -0.14  -0.10   0.10    -0.28  -0.14   0.07
  20   1    -0.61   0.02  -0.11    -0.04  -0.01  -0.00     0.16   0.05   0.04
  21   1     0.12   0.22   0.04     0.00  -0.01   0.00    -0.11  -0.06  -0.02
  22   1    -0.06   0.01  -0.01    -0.01   0.00  -0.00     0.05  -0.01   0.00
  23   1     0.07  -0.08   0.01     0.00   0.00   0.00    -0.02   0.02  -0.00
  24   1    -0.06   0.01  -0.01    -0.01  -0.00   0.00     0.05  -0.01   0.01
  25   1     0.19  -0.02   0.03     0.06   0.01   0.01    -0.30  -0.05  -0.06
  26   1    -0.25  -0.44  -0.07     0.02   0.06   0.01    -0.07  -0.20  -0.02
                     43                     44                     45
                        a                      a                      a 
 Frequencies --  1282.0848              1324.1891              1334.2720
 Red. masses --     3.8996                 4.2283                 9.7603
 Frc consts  --     0.0000                 0.0000                 0.0000
 IR Inten    --     1.8960                20.8728                14.0584
 Raman Activ --     0.0000                 0.0000                 0.0000
 Depolar     --     0.0000                 0.0000                 0.0000
 Atom AN      X      Y      Z        X      Y      Z        X      Y      Z
   1   7     0.02   0.02  -0.02    -0.02  -0.19  -0.00     0.01  -0.02  -0.03
   2   6    -0.03  -0.02   0.08     0.15  -0.06  -0.37    -0.05  -0.04  -0.03
   3   6     0.09  -0.00   0.01     0.09   0.14   0.02     0.28   0.11  -0.08
   4   6    -0.24   0.04  -0.04    -0.04  -0.12  -0.02    -0.29   0.27   0.02
   5   6    -0.20  -0.02  -0.04    -0.12   0.01  -0.02     0.23  -0.04   0.04
   6   6     0.03  -0.06   0.00     0.06   0.04   0.01    -0.10  -0.31  -0.05
   7   6     0.18  -0.23   0.01     0.09  -0.09   0.01    -0.11   0.39   0.02
   8   8    -0.05   0.06  -0.00    -0.01   0.01   0.00    -0.04  -0.07  -0.01
   9   6    -0.03  -0.06  -0.01    -0.01  -0.02  -0.00     0.02   0.04   0.01
  10   6     0.14   0.05   0.03    -0.07   0.05  -0.01     0.31  -0.00   0.05
  11   6    -0.00   0.13   0.01     0.00   0.04   0.00    -0.16  -0.26  -0.06
  12  17     0.00   0.00   0.00    -0.00  -0.00   0.00     0.00  -0.00  -0.00
  13   1    -0.00  -0.00   0.02    -0.05   0.12  -0.04    -0.02   0.03   0.02
  14   1    -0.01  -0.00  -0.01    -0.05   0.20   0.06    -0.02   0.04  -0.00
  15   1    -0.02   0.00   0.02     0.06   0.06   0.11    -0.01   0.03   0.06
  16   1     0.03  -0.02  -0.08    -0.18   0.13   0.50    -0.05  -0.00   0.12
  17   1     0.03  -0.02  -0.07    -0.20   0.14   0.48     0.03  -0.01  -0.05
  18   1     0.14   0.09  -0.03    -0.00   0.01   0.00    -0.14  -0.06   0.14
  19   1    -0.04  -0.01  -0.00    -0.06  -0.07   0.12    -0.26  -0.16   0.13
  20   1     0.32  -0.02   0.06     0.04  -0.00   0.00     0.11  -0.01   0.02
  21   1     0.30   0.46   0.10     0.06   0.08   0.02     0.03   0.00   0.00
  22   1     0.03   0.03   0.04     0.00   0.01   0.01    -0.02   0.00  -0.01
  23   1     0.01  -0.03   0.00    -0.01   0.00  -0.00     0.04  -0.04   0.00
  24   1     0.04   0.03  -0.02     0.01   0.01  -0.01    -0.02   0.00  -0.00
  25   1    -0.28   0.03  -0.05     0.01   0.01   0.01     0.06   0.00   0.02
  26   1    -0.24  -0.35  -0.07     0.01   0.03   0.01    -0.03  -0.04  -0.00
                     46                     47                     48
                        a                      a                      a 
 Frequencies --  1344.4583              1377.5057              1398.1846
 Red. masses --     6.0920                 2.4400                 2.3747
 Frc consts  --     0.0000                 0.0000                 0.0000
 IR Inten    --     6.3012               126.9745                15.9100
 Raman Activ --     0.0000                 0.0000                 0.0000
 Depolar     --     0.0000                 0.0000                 0.0000
 Atom AN      X      Y      Z        X      Y      Z        X      Y      Z
   1   7    -0.02  -0.03   0.03    -0.16   0.21   0.15     0.03   0.06   0.00
   2   6     0.15  -0.00  -0.08     0.01  -0.01  -0.11     0.02   0.00  -0.02
   3   6    -0.36  -0.17   0.14     0.06   0.06   0.01     0.01   0.02   0.00
   4   6    -0.00   0.21  -0.04    -0.01  -0.01   0.00    -0.01  -0.04  -0.01
   5   6     0.21   0.01   0.04    -0.01   0.02  -0.00     0.01  -0.01   0.00
   6   6    -0.14  -0.16  -0.03    -0.01  -0.03  -0.01     0.01   0.02   0.00
   7   6    -0.11   0.17  -0.00     0.03  -0.01   0.00     0.04   0.00   0.01
   8   8    -0.01  -0.02  -0.00    -0.00   0.00   0.00    -0.10   0.06  -0.01
   9   6     0.00   0.02   0.00    -0.01  -0.00  -0.00    -0.27   0.14  -0.03
  10   6     0.23  -0.04   0.04     0.01   0.02   0.00     0.02   0.02   0.01
  11   6    -0.09  -0.09  -0.02    -0.02  -0.03  -0.01    -0.03   0.01  -0.00
  12  17    -0.00  -0.00   0.00    -0.00   0.01   0.00     0.00  -0.00   0.00
  13   1     0.02  -0.01  -0.04     0.08  -0.20  -0.02     0.07  -0.18   0.02
  14   1    -0.01   0.01   0.01     0.32  -0.50   0.07    -0.06   0.04  -0.03
  15   1     0.03  -0.01  -0.03     0.25  -0.15  -0.58    -0.19  -0.12  -0.01
  16   1     0.01   0.05  -0.01    -0.03  -0.03   0.15    -0.01   0.01   0.04
  17   1    -0.12   0.04   0.26    -0.08   0.02   0.13    -0.01  -0.00   0.01
  18   1     0.47   0.26  -0.29    -0.04  -0.05  -0.01    -0.02  -0.01   0.01
  19   1     0.18   0.14  -0.12    -0.08  -0.02   0.02     0.01  -0.00   0.01
  20   1     0.01   0.01  -0.01     0.02   0.00   0.01    -0.03  -0.00  -0.00
  21   1    -0.03  -0.02  -0.01     0.02   0.04   0.01    -0.03  -0.05  -0.01
  22   1     0.00  -0.00  -0.01    -0.00   0.01   0.01     0.49  -0.17  -0.10
  23   1     0.02  -0.02   0.00     0.00  -0.00  -0.00     0.28  -0.37   0.00
  24   1    -0.00  -0.01   0.01     0.01   0.00  -0.00     0.45  -0.20   0.21
  25   1    -0.05  -0.01  -0.01     0.01   0.01  -0.01    -0.01   0.01  -0.00
  26   1    -0.06  -0.09  -0.03    -0.01  -0.01  -0.00     0.00   0.02  -0.00
                     49                     50                     51
                        a                      a                      a 
 Frequencies --  1403.6025              1425.5873              1436.8155
 Red. masses --     2.0052                 9.2266                 2.3538
 Frc consts  --     0.0000                 0.0000                 0.0000
 IR Inten    --    80.1383                 9.1403                82.6996
 Raman Activ --     0.0000                 0.0000                 0.0000
 Depolar     --     0.0000                 0.0000                 0.0000
 Atom AN      X      Y      Z        X      Y      Z        X      Y      Z
   1   7     0.09   0.18   0.01     0.03   0.03   0.05     0.04   0.05   0.25
   2   6     0.06   0.01  -0.07     0.00   0.00   0.00     0.03  -0.01   0.01
   3   6     0.00  -0.00   0.01    -0.02   0.07  -0.01     0.03   0.01  -0.00
   4   6    -0.03   0.05  -0.00     0.14  -0.28  -0.00    -0.03   0.06  -0.00
   5   6    -0.05  -0.03  -0.01     0.27   0.23   0.07    -0.07  -0.05  -0.02
   6   6     0.05   0.00   0.01    -0.34  -0.08  -0.07     0.08   0.01   0.02
   7   6    -0.03   0.04  -0.00     0.16  -0.29   0.00    -0.04   0.07  -0.00
   8   8     0.04  -0.03   0.00    -0.02   0.07   0.00     0.01  -0.01   0.00
   9   6     0.09  -0.04   0.01    -0.00  -0.07  -0.01    -0.00   0.02   0.00
  10   6    -0.05  -0.04  -0.01     0.25   0.25   0.07    -0.07  -0.06  -0.02
  11   6     0.06   0.01   0.02    -0.34  -0.11  -0.07     0.09   0.03   0.01
  12  17     0.01  -0.00   0.00     0.00  -0.00   0.00    -0.00   0.00   0.00
  13   1     0.20  -0.54   0.06     0.07  -0.04  -0.14     0.19   0.12  -0.61
  14   1    -0.16   0.12  -0.08    -0.15  -0.03  -0.11    -0.47  -0.26  -0.39
  15   1    -0.55  -0.36  -0.04    -0.07  -0.03   0.03     0.08   0.05   0.03
  16   1    -0.03   0.03   0.12    -0.00  -0.01   0.02     0.01  -0.03   0.06
  17   1    -0.05  -0.01   0.05    -0.01  -0.02  -0.02    -0.05  -0.06  -0.02
  18   1     0.01   0.01   0.01    -0.10  -0.06   0.03     0.02   0.00  -0.01
  19   1    -0.01  -0.02   0.02     0.08   0.01   0.02    -0.05  -0.01   0.01
  20   1     0.04  -0.01   0.01    -0.18   0.08  -0.03     0.05  -0.02   0.01
  21   1     0.01  -0.00   0.00     0.02   0.17   0.02    -0.00  -0.03  -0.00
  22   1    -0.16   0.05   0.02    -0.02   0.08   0.07     0.01  -0.01  -0.01
  23   1    -0.10   0.13   0.01    -0.02   0.01   0.00     0.01  -0.01   0.00
  24   1    -0.16   0.05  -0.06    -0.00   0.09  -0.06     0.00  -0.02   0.01
  25   1     0.03  -0.01   0.00    -0.14   0.08  -0.01     0.04  -0.02   0.00
  26   1     0.01  -0.02  -0.02     0.04   0.20   0.02    -0.01  -0.05  -0.00
                     52                     53                     54
                        a                      a                      a 
 Frequencies --  1475.3745              1480.9728              1483.3036
 Red. masses --     5.4706                 2.0122                 1.5237
 Frc consts  --     0.0000                 0.0000                 0.0000
 IR Inten    --    87.9206                15.3777                 4.2909
 Raman Activ --     0.0000                 0.0000                 0.0000
 Depolar     --     0.0000                 0.0000                 0.0000
 Atom AN      X      Y      Z        X      Y      Z        X      Y      Z
   1   7    -0.00   0.00   0.01     0.00  -0.01   0.00    -0.00  -0.00   0.00
   2   6    -0.01  -0.02  -0.01    -0.03  -0.14   0.03    -0.01  -0.02   0.00
   3   6     0.08   0.05   0.00     0.13   0.06   0.21     0.00   0.00  -0.00
   4   6    -0.24  -0.17  -0.06    -0.04  -0.04   0.00    -0.00  -0.00  -0.00
   5   6     0.17  -0.08   0.02     0.02  -0.00   0.00     0.00  -0.00   0.00
   6   6     0.06   0.22   0.03     0.01   0.02   0.00    -0.00   0.00   0.00
   7   6    -0.21  -0.15  -0.05    -0.02  -0.01  -0.00    -0.00   0.00  -0.00
   8   8     0.03   0.06   0.01     0.00  -0.00   0.00     0.00   0.00  -0.03
   9   6     0.11   0.12   0.03    -0.01  -0.01   0.00     0.03   0.02  -0.21
  10   6     0.28  -0.03   0.04     0.02   0.00   0.00     0.00  -0.00   0.00
  11   6    -0.03   0.17   0.01    -0.00   0.01   0.00     0.00   0.00   0.00
  12  17    -0.00   0.00   0.00     0.00  -0.00  -0.00    -0.00   0.00   0.00
  13   1     0.00  -0.00  -0.01     0.01  -0.02  -0.02    -0.00   0.00  -0.00
  14   1     0.00  -0.01  -0.00    -0.03   0.00  -0.02     0.00  -0.01   0.00
  15   1     0.01  -0.00  -0.02    -0.02  -0.01   0.01     0.01   0.00  -0.01
  16   1    -0.02   0.04   0.01    -0.13   0.31  -0.10    -0.02   0.04  -0.01
  17   1     0.04   0.03   0.01     0.26   0.23   0.06     0.03   0.03   0.01
  18   1    -0.00   0.01   0.03    -0.02  -0.38  -0.44    -0.00   0.00   0.00
  19   1     0.03  -0.01   0.03    -0.35   0.24  -0.37    -0.00  -0.00   0.00
  20   1    -0.17  -0.02  -0.03    -0.00  -0.00   0.00    -0.00  -0.00   0.00
  21   1    -0.07  -0.08  -0.02    -0.01  -0.02  -0.00     0.00  -0.00  -0.03
  22   1    -0.08  -0.35  -0.30    -0.01   0.03   0.03     0.42   0.15   0.17
  23   1    -0.15   0.21  -0.02     0.02  -0.02  -0.02    -0.11  -0.07   0.70
  24   1    -0.14  -0.39   0.20     0.03   0.05  -0.02    -0.44  -0.18   0.01
  25   1    -0.17  -0.00  -0.03    -0.01   0.00  -0.00    -0.00  -0.00   0.00
  26   1    -0.10  -0.09  -0.02     0.01   0.02   0.00    -0.00  -0.00   0.00
                     55                     56                     57
                        a                      a                      a 
 Frequencies --  1486.7672              1489.6252              1572.5102
 Red. masses --     4.3448                 3.1915                11.6134
 Frc consts  --     0.0000                 0.0000                 0.0000
 IR Inten    --    14.5329                26.6761                 3.9483
 Raman Activ --     0.0000                 0.0000                 0.0000
 Depolar     --     0.0000                 0.0000                 0.0000
 Atom AN      X      Y      Z        X      Y      Z        X      Y      Z
   1   7    -0.01   0.01   0.02    -0.00   0.00   0.03     0.00  -0.00  -0.00
   2   6    -0.03  -0.10   0.00    -0.06  -0.20   0.03    -0.00   0.00   0.00
   3   6     0.03   0.02  -0.07    -0.10  -0.05  -0.12    -0.02   0.04   0.00
   4   6    -0.21  -0.11  -0.05     0.16   0.09   0.03     0.25  -0.49  -0.00
   5   6     0.13  -0.11   0.01    -0.08   0.07  -0.01    -0.25   0.20  -0.02
   6   6     0.10   0.22   0.04    -0.07  -0.14  -0.02    -0.00  -0.32  -0.03
   7   6    -0.21  -0.05  -0.04     0.13   0.05   0.03    -0.21   0.44   0.00
   8   8     0.03  -0.02   0.00    -0.02   0.01  -0.00    -0.00  -0.05  -0.00
   9   6    -0.07  -0.10  -0.02     0.03   0.04   0.02     0.01   0.02   0.00
  10   6     0.18  -0.08   0.02    -0.13   0.03  -0.02     0.22  -0.18   0.02
  11   6     0.03   0.19   0.02    -0.00  -0.10  -0.01    -0.00   0.35   0.03
  12  17    -0.00   0.00   0.00    -0.00   0.00   0.00     0.00  -0.00   0.00
  13   1     0.01  -0.02  -0.02     0.03  -0.02  -0.05    -0.00  -0.00   0.01
  14   1    -0.00  -0.03  -0.01    -0.02  -0.05  -0.03     0.00   0.00   0.00
  15   1     0.01  -0.02  -0.04     0.02  -0.03  -0.05    -0.00  -0.00  -0.00
  16   1    -0.09   0.21  -0.07    -0.18   0.44  -0.19     0.00  -0.00  -0.00
  17   1     0.18   0.17   0.05     0.38   0.35   0.09    -0.00  -0.00  -0.00
  18   1     0.02   0.15   0.17     0.00   0.18   0.21    -0.06  -0.05   0.00
  19   1     0.14  -0.09   0.15     0.15  -0.13   0.18     0.06   0.02  -0.01
  20   1    -0.14  -0.03  -0.02     0.07   0.02   0.02     0.06   0.05   0.01
  21   1    -0.14  -0.21  -0.04     0.08   0.12   0.03     0.08   0.05   0.02
  22   1     0.03   0.29   0.25    -0.04  -0.14  -0.12    -0.01  -0.00  -0.01
  23   1     0.12  -0.15  -0.01    -0.04   0.07  -0.04     0.02  -0.01   0.00
  24   1     0.11   0.34  -0.17    -0.02  -0.14   0.08    -0.01  -0.00   0.00
  25   1    -0.12  -0.02  -0.02     0.08   0.00   0.01    -0.05  -0.04  -0.01
  26   1    -0.10  -0.11  -0.03     0.05   0.04   0.01    -0.07  -0.02  -0.01
                     58                     59                     60
                        a                      a                      a 
 Frequencies --  1615.9255              2895.0628              2939.9971
 Red. masses --    11.5497                 1.9720                 1.9442
 Frc consts  --     0.0000                 0.0000                 0.0000
 IR Inten    --    43.5972              1343.0430                 7.5646
 Raman Activ --     0.0000                 0.0000                 0.0000
 Depolar     --     0.0000                 0.0000                 0.0000
 Atom AN      X      Y      Z        X      Y      Z        X      Y      Z
   1   7    -0.00  -0.00  -0.00     0.13  -0.19   0.13     0.01  -0.02   0.01
   2   6     0.01   0.01  -0.01    -0.03   0.02  -0.02     0.19  -0.05   0.09
   3   6     0.04   0.02   0.02    -0.01   0.01   0.00    -0.08   0.18   0.04
   4   6    -0.28  -0.13  -0.06     0.00   0.00   0.00    -0.00   0.01   0.00
   5   6     0.48   0.07   0.09     0.00  -0.00  -0.00    -0.00  -0.00  -0.00
   6   6    -0.31  -0.25  -0.08    -0.00  -0.00  -0.00     0.00   0.00   0.00
   7   6     0.18   0.06   0.04     0.00   0.00  -0.00    -0.00  -0.00  -0.00
   8   8     0.00   0.00   0.00    -0.00  -0.00  -0.00     0.00   0.00   0.00
   9   6    -0.01   0.00  -0.00    -0.00  -0.00   0.00     0.00   0.00   0.00
  10   6    -0.42  -0.10  -0.08     0.00  -0.00   0.00    -0.00   0.00  -0.00
  11   6     0.32   0.33   0.09    -0.01   0.01  -0.00     0.00  -0.00   0.00
  12  17     0.00   0.00  -0.00    -0.00   0.01  -0.01    -0.00   0.00  -0.00
  13   1    -0.00  -0.00   0.01    -0.04  -0.03  -0.01     0.01   0.00   0.00
  14   1     0.00   0.00   0.00     0.02  -0.00  -0.01     0.00  -0.00  -0.00
  15   1    -0.00  -0.00  -0.00    -0.46   0.71  -0.43    -0.03   0.05  -0.03
  16   1     0.00  -0.00   0.01     0.01   0.01   0.00    -0.37  -0.19  -0.08
  17   1    -0.01  -0.00   0.00     0.09  -0.10   0.07    -0.30   0.39  -0.23
  18   1     0.01   0.00  -0.00     0.01  -0.01   0.01     0.24  -0.23   0.20
  19   1     0.01   0.01  -0.00     0.00  -0.03  -0.02     0.08  -0.41  -0.33
  20   1    -0.12   0.03  -0.02     0.00   0.00  -0.00     0.00   0.00   0.00
  21   1     0.01   0.08   0.01     0.00  -0.00  -0.00     0.00   0.00  -0.00
  22   1     0.01  -0.00  -0.00     0.00   0.00  -0.00    -0.00  -0.00   0.00
  23   1    -0.00   0.00  -0.00     0.00   0.00   0.00    -0.00  -0.00  -0.00
  24   1     0.00  -0.01   0.00     0.00  -0.00  -0.00     0.00  -0.00  -0.00
  25   1     0.07  -0.04   0.01    -0.00   0.00   0.00     0.00  -0.00   0.00
  26   1    -0.03  -0.11  -0.01     0.03  -0.02   0.00    -0.00   0.00  -0.00
                     61                     62                     63
                        a                      a                      a 
 Frequencies --  2944.9507              2969.4812              2972.2821
 Red. masses --     1.9136                 1.5100                 1.9534
 Frc consts  --     0.0000                 0.0000                 0.0000
 IR Inten    --     6.5159                15.3103                44.0815
 Raman Activ --     0.0000                 0.0000                 0.0000
 Depolar     --     0.0000                 0.0000                 0.0000
 Atom AN      X      Y      Z        X      Y      Z        X      Y      Z
   1   7     0.01  -0.02   0.02     0.02  -0.02   0.01     0.00  -0.00   0.00
   2   6     0.19  -0.01   0.07    -0.07  -0.18   0.03    -0.00  -0.00  -0.00
   3   6     0.07  -0.17  -0.08    -0.03  -0.02  -0.08    -0.00   0.00  -0.00
   4   6    -0.00  -0.01  -0.00    -0.00  -0.00  -0.00    -0.00  -0.00  -0.00
   5   6     0.00   0.00   0.00     0.00   0.00   0.00     0.00  -0.00  -0.00
   6   6    -0.00  -0.00   0.00     0.00  -0.00   0.00     0.00  -0.00   0.00
   7   6     0.00   0.00   0.00     0.00   0.00   0.00     0.00   0.00   0.00
   8   8    -0.00   0.00  -0.00    -0.00  -0.00   0.00    -0.00   0.00  -0.01
   9   6     0.00   0.00  -0.00    -0.00  -0.00   0.00     0.05   0.06  -0.28
  10   6     0.00  -0.00   0.00     0.00   0.00   0.00    -0.00  -0.00  -0.00
  11   6    -0.00   0.00  -0.00    -0.00   0.00   0.00     0.00  -0.00  -0.00
  12  17    -0.00   0.00  -0.00    -0.00   0.00  -0.00    -0.00  -0.00  -0.00
  13   1     0.00   0.00   0.00    -0.02  -0.01  -0.01    -0.00  -0.00  -0.00
  14   1     0.00   0.00  -0.00     0.00  -0.00  -0.00    -0.00  -0.00   0.00
  15   1    -0.05   0.07  -0.04    -0.04   0.06  -0.04    -0.00   0.00  -0.00
  16   1    -0.47  -0.23  -0.11     0.60   0.25   0.15     0.01   0.00   0.00
  17   1    -0.19   0.26  -0.15    -0.36   0.40  -0.25    -0.00   0.00  -0.00
  18   1    -0.11   0.10  -0.11     0.16  -0.17   0.12     0.01  -0.01   0.01
  19   1    -0.10   0.53   0.41    -0.05   0.22   0.16    -0.00   0.00   0.00
  20   1    -0.00  -0.01  -0.00    -0.00  -0.01  -0.00     0.00   0.00   0.00
  21   1    -0.00   0.00   0.00    -0.00   0.00  -0.00    -0.00   0.00   0.00
  22   1    -0.00  -0.00   0.00     0.00   0.01  -0.01    -0.08  -0.51   0.57
  23   1    -0.00  -0.00  -0.00     0.00  -0.00   0.00    -0.01  -0.01  -0.05
  24   1     0.00  -0.00  -0.00     0.00  -0.00  -0.01    -0.08   0.30   0.48
  25   1    -0.00   0.00  -0.00     0.00  -0.00  -0.00     0.00   0.00  -0.00
  26   1     0.01  -0.00   0.00     0.00  -0.00  -0.00    -0.00   0.00  -0.00
                     64                     65                     66
                        a                      a                      a 
 Frequencies --  2975.2549              2977.7307              3007.3451
 Red. masses --     1.6109                 1.5453                 1.5983
 Frc consts  --     0.0000                 0.0000                 0.0000
 IR Inten    --     3.0729                22.9546                26.5484
 Raman Activ --     0.0000                 0.0000                 0.0000
 Depolar     --     0.0000                 0.0000                 0.0000
 Atom AN      X      Y      Z        X      Y      Z        X      Y      Z
   1   7    -0.01   0.01  -0.01     0.00  -0.00   0.00     0.00   0.00  -0.00
   2   6    -0.03   0.08  -0.04     0.00  -0.00   0.00     0.00  -0.00   0.00
   3   6    -0.12   0.07  -0.16     0.00  -0.00   0.01     0.00  -0.00   0.00
   4   6    -0.01   0.00  -0.00     0.00   0.00   0.00    -0.00   0.00   0.00
   5   6     0.00  -0.00  -0.00    -0.00   0.00  -0.00     0.00  -0.00   0.00
   6   6     0.00   0.00   0.00    -0.01   0.00  -0.00    -0.00   0.00  -0.00
   7   6     0.00  -0.00  -0.00    -0.00  -0.00  -0.00     0.00  -0.00   0.00
   8   8     0.00  -0.00   0.00     0.02  -0.01   0.00    -0.01   0.00  -0.00
   9   6    -0.00  -0.01  -0.00    -0.02  -0.21  -0.07    -0.19  -0.13  -0.04
  10   6    -0.00   0.00   0.00     0.00   0.00   0.00     0.00  -0.00   0.00
  11   6     0.00  -0.00   0.00    -0.00   0.00  -0.00     0.00  -0.00   0.00
  12  17     0.00  -0.00   0.00     0.00   0.00  -0.00    -0.00   0.00   0.00
  13   1     0.01   0.00   0.00    -0.00  -0.00   0.00    -0.00  -0.00  -0.00
  14   1     0.00   0.00  -0.00     0.00  -0.00  -0.00    -0.00  -0.00   0.00
  15   1     0.03  -0.04   0.02    -0.00   0.00  -0.00     0.00  -0.00   0.00
  16   1    -0.13  -0.05  -0.04     0.00  -0.00   0.00    -0.00  -0.00  -0.00
  17   1     0.21  -0.25   0.16    -0.01   0.01  -0.01    -0.00   0.00  -0.00
  18   1     0.50  -0.53   0.38    -0.02   0.02  -0.02    -0.00   0.00  -0.00
  19   1    -0.07   0.27   0.18     0.00  -0.01  -0.01    -0.00   0.00   0.00
  20   1     0.00   0.00   0.00    -0.00   0.00   0.00    -0.00   0.00   0.00
  21   1    -0.00   0.00  -0.00     0.02  -0.01   0.00     0.00  -0.00   0.00
  22   1     0.00   0.02  -0.02     0.05   0.34  -0.46    -0.03  -0.10   0.08
  23   1     0.01   0.00   0.00     0.11   0.07   0.02     0.73   0.60   0.17
  24   1    -0.00   0.01   0.02    -0.13   0.35   0.67    -0.01  -0.08  -0.10
  25   1     0.00  -0.00  -0.00    -0.00  -0.00  -0.00     0.00   0.00   0.00
  26   1    -0.01   0.01  -0.00     0.00  -0.00   0.00    -0.00   0.00  -0.00
                     67                     68                     69
                        a                      a                      a 
 Frequencies --  3097.6066              3098.8114              3129.7984
 Red. masses --     1.8539                 1.8203                 1.8460
 Frc consts  --     0.0000                 0.0000                 0.0000
 IR Inten    --   137.0724                44.2763                 7.4796
 Raman Activ --     0.0000                 0.0000                 0.0000
 Depolar     --     0.0000                 0.0000                 0.0000
 Atom AN      X      Y      Z        X      Y      Z        X      Y      Z
   1   7    -0.01   0.00  -0.00     0.00  -0.00   0.00    -0.00   0.00   0.00
   2   6     0.00   0.00  -0.00     0.00  -0.00   0.00    -0.00   0.00   0.00
   3   6    -0.00   0.00  -0.00     0.00  -0.00  -0.00     0.00   0.00   0.00
   4   6    -0.01  -0.01  -0.00    -0.00  -0.00  -0.00     0.00  -0.00  -0.00
   5   6    -0.00  -0.14  -0.01    -0.01  -0.22  -0.02    -0.00   0.00   0.00
   6   6    -0.01   0.01  -0.00    -0.03   0.02  -0.00    -0.01   0.00  -0.00
   7   6    -0.00  -0.00  -0.00    -0.00   0.00   0.00     0.01   0.01   0.00
   8   8     0.00   0.00   0.00    -0.00  -0.00  -0.00    -0.00  -0.00  -0.00
   9   6    -0.00   0.00  -0.00     0.00   0.00   0.00    -0.00   0.00  -0.00
  10   6     0.00  -0.02  -0.00    -0.00   0.02   0.00     0.01   0.27   0.03
  11   6    -0.20   0.13  -0.02     0.13  -0.08   0.01    -0.04   0.02  -0.00
  12  17     0.00   0.00  -0.00    -0.00  -0.00   0.00     0.00  -0.00  -0.00
  13   1     0.01   0.00   0.00    -0.00  -0.00   0.00    -0.00   0.00  -0.00
  14   1     0.00   0.00  -0.00     0.00   0.00  -0.00     0.00   0.00  -0.00
  15   1     0.01  -0.02   0.01    -0.01   0.01  -0.01     0.00  -0.00   0.00
  16   1    -0.00  -0.00  -0.00     0.00   0.00   0.00    -0.00  -0.00  -0.00
  17   1    -0.00   0.00  -0.00    -0.00   0.01  -0.00     0.00  -0.00   0.00
  18   1     0.01  -0.01   0.00    -0.01   0.01  -0.00    -0.00   0.00  -0.00
  19   1     0.00   0.00   0.00     0.00   0.01   0.01     0.00  -0.00  -0.00
  20   1     0.01   0.50   0.05     0.02   0.80   0.07    -0.00  -0.01  -0.00
  21   1     0.06  -0.04   0.01     0.13  -0.08   0.02     0.03  -0.02   0.00
  22   1    -0.00  -0.00   0.00    -0.00  -0.00   0.00     0.00  -0.00   0.00
  23   1     0.00   0.00   0.00    -0.00  -0.00  -0.00     0.00  -0.00  -0.00
  24   1     0.00  -0.00  -0.00     0.00  -0.00  -0.00     0.00  -0.00  -0.00
  25   1     0.00   0.10   0.01    -0.00  -0.07  -0.01    -0.02  -0.95  -0.10
  26   1     0.68  -0.43   0.07    -0.43   0.27  -0.04     0.09  -0.06   0.01
                     70                     71                     72
                        a                      a                      a 
 Frequencies --  3134.2173              3190.1012              3199.5754
 Red. masses --     1.8366                 2.0410                 1.4831
 Frc consts  --     0.0000                 0.0000                 0.0000
 IR Inten    --    31.5711                60.8159                19.6915
 Raman Activ --     0.0000                 0.0000                 0.0000
 Depolar     --     0.0000                 0.0000                 0.0000
 Atom AN      X      Y      Z        X      Y      Z        X      Y      Z
   1   7     0.00   0.00  -0.00     0.25   0.11  -0.07     0.03   0.01   0.19
   2   6    -0.00   0.00  -0.00     0.01   0.01   0.00     0.00   0.01   0.01
   3   6    -0.00   0.00  -0.00    -0.00  -0.00  -0.00     0.00   0.00   0.00
   4   6     0.00  -0.00   0.00    -0.00  -0.00   0.00    -0.00  -0.00   0.00
   5   6    -0.00   0.06   0.00     0.00  -0.00  -0.00     0.00  -0.00  -0.00
   6   6    -0.22   0.15  -0.03     0.00  -0.00   0.00    -0.00   0.00   0.00
   7   6    -0.01  -0.00  -0.00     0.00   0.00  -0.00    -0.00   0.00  -0.00
   8   8    -0.00   0.00   0.00    -0.00  -0.00  -0.00     0.00   0.00  -0.00
   9   6    -0.00   0.00   0.00     0.00  -0.00   0.00    -0.00   0.00  -0.00
  10   6     0.00  -0.01  -0.00     0.00   0.00   0.00     0.00  -0.00   0.00
  11   6    -0.00   0.00  -0.00    -0.00   0.00   0.00    -0.00   0.00   0.00
  12  17    -0.00   0.00   0.00     0.00  -0.00   0.00    -0.00   0.00  -0.00
  13   1    -0.00  -0.00  -0.00    -0.64  -0.24  -0.25    -0.57  -0.22  -0.19
  14   1    -0.00  -0.00   0.00    -0.32  -0.17   0.50     0.42   0.21  -0.58
  15   1     0.00  -0.00   0.00     0.04  -0.01   0.01     0.03  -0.05   0.05
  16   1     0.00  -0.00   0.00    -0.02  -0.01  -0.00    -0.01  -0.01  -0.00
  17   1     0.00  -0.00   0.00     0.00  -0.00   0.00     0.00  -0.01   0.00
  18   1     0.00  -0.00   0.00     0.00  -0.00   0.00    -0.00   0.00  -0.00
  19   1    -0.00  -0.00  -0.00     0.00  -0.00  -0.00     0.00  -0.00  -0.00
  20   1    -0.00  -0.16  -0.01     0.00   0.01   0.00     0.00   0.00   0.00
  21   1     0.79  -0.51   0.09    -0.00   0.00  -0.00     0.00  -0.00   0.00
  22   1    -0.00  -0.01   0.01     0.00   0.00  -0.00    -0.00  -0.00   0.00
  23   1    -0.00  -0.00  -0.00    -0.00  -0.00  -0.00     0.00   0.00  -0.00
  24   1     0.00  -0.01  -0.01     0.00   0.00  -0.00     0.00   0.00   0.00
  25   1    -0.00   0.04   0.00     0.00  -0.00  -0.00     0.00   0.00   0.00
  26   1     0.02  -0.01   0.00     0.01  -0.00   0.00     0.00  -0.00   0.00
