41
 energy: -42.595872967308 gnorm: 0.000079800173 xtb: 6.5.1 (fef0646)
N            0.80726734370563        0.00806194584697        0.08807864954897
C            2.29106042512747        0.00161496298290        0.08368982236513
C            2.82030023563712       -1.08597360912505       -0.84398999662265
C            4.34833958578436       -1.10230843788148       -0.85457085154855
C            4.89129374028896       -2.18853103809896       -1.78093314767976
C            6.41773092081644       -2.21251618515012       -1.80021856786273
C            6.95918556147775       -3.29849298426574       -2.72702698172983
C            8.48551888723482       -3.32574981723596       -2.75028173210223
C            9.02534093137894       -4.41230902807008       -3.67725513409997
C           10.55174744982282       -4.44124674426333       -3.70169406343055
C           11.09044763941766       -5.52786628783566       -4.62918556982795
C           12.61690944713091       -5.55901939981109       -4.65532116575070
C           13.14675053169712       -6.64549833056078       -5.58370825598610
H            0.44744451118662        0.74103020013012        0.70963551781222
H            0.45114969607500       -0.90075269872693        0.40753428939788
H            0.45294767891264        0.17684135872208       -0.86088878359587
H            2.65159522481233       -0.17260643394381        1.09730562337266
H            2.65222521522909        0.97501466771332       -0.24767890886322
H            2.46976664693421       -0.91714351610071       -1.86312642684594
H            2.46685633811559       -2.06539863551031       -0.51875835987119
H            4.72503308811723       -1.27788150565359        0.15482780464439
H            4.72794483051249       -0.13370176915605       -1.18516392248267
H            4.52800850155744       -2.02125093714913       -2.79739760946763
H            4.52695253267812       -3.16572246331898       -1.45614711969423
H            6.79443638738023       -2.38610074857096       -0.78943019090387
H            6.79540906931894       -1.24173124471665       -2.12985479421461
H            6.58988758093732       -3.12929429138224       -3.74139651829164
H            6.58985900865467       -4.27366346887073       -2.40055884889511
H            8.86168583795533       -3.49815489554843       -1.73895506276662
H            8.86164417709131       -2.35421710435958       -3.07990715292510
H            8.65371138091039       -4.24201900410677       -4.69060755689621
H            8.65349555746608       -5.38615279047153       -3.34962832411147
H           10.92718085400916       -4.61359090641850       -2.69002715938472
H           10.92739586591015       -3.46924094803506       -4.03064284410942
H           10.71787408345095       -5.35651524322237       -5.64203283694562
H           10.71749161405896       -6.50118819345628       -4.30120993163842
H           12.99164054189915       -5.73245260335157       -3.64389955341570
H           12.99209528235590       -4.58710630490727       -4.98411432309159
H           12.80041550001085       -7.62494238290518       -5.26113963130176
H           14.23406582862725       -6.65005397222090       -5.58707019337831
H           12.80103446631259       -6.47914921099362       -6.60161018740934
