 Entering Gaussian System
 *********************************************
 Gaussian 98:
 frequency output generated by the xtb code
 *********************************************
                         Standard orientation:
 --------------------------------------------------------------------
  Center     Atomic     Atomic              Coordinates (Angstroms)
  Number     Number      Type              X           Y           Z
 --------------------------------------------------------------------
    1          7             0       -2.505470    1.911314    0.161575
    2          6             0       -1.460813    1.896686   -0.905598
    3          6             0       -0.244696    1.084180   -0.571131
    4          6             0       -0.009164    0.597021    0.705959
    5          6             0        1.119693   -0.143764    0.986236
    6          6             0        2.060358   -0.419421   -0.004086
    7          6             0        3.250285   -1.211737    0.316651
    8          6             0        4.366273   -1.224484   -0.399423
    9          6             0        1.820276    0.070948   -1.286277
   10          6             0        0.689209    0.810414   -1.560724
   11         17             0       -3.083665   -1.455002    0.943033
   12          1             0       -3.359218    2.402008   -0.139642
   13          1             0       -2.160934    2.378233    1.014873
   14          1             0       -2.768274    0.946555    0.415588
   15          1             0       -1.152069    2.923304   -1.133251
   16          1             0       -1.897309    1.507347   -1.832596
   17          1             0       -0.719601    0.796926    1.488441
   18          1             0        1.286364   -0.515183    1.983297
   19          1             0        3.197795   -1.812195    1.210882
   20          1             0        4.475153   -0.624056   -1.280475
   21          1             0        5.211581   -1.822488   -0.117205
   22          1             0        2.521092   -0.142707   -2.074969
   23          1             0        0.518627    1.183753   -2.556764
 --------------------------------------------------------------------
     1 basis functions        1 primitive gaussians
     1 alpha electrons        1 beta electrons

 Harmonic frequencies (cm**-1), IR intensities (km*mol⁻¹),
 Raman scattering activities (A**4/amu), Raman depolarization ratios,
 reduced masses (AMU), force constants (mDyne/A) and normal coordinates:
                      1                      2                      3
                        a                      a                      a 
 Frequencies --  -142.3444               -75.7865               -42.3071
 Red. masses --    21.0063                 7.6417                11.8790
 Frc consts  --     0.0000                 0.0000                 0.0000
 IR Inten    --   131.3746                 0.2479                 2.9254
 Raman Activ --     0.0000                 0.0000                 0.0000
 Depolar     --     0.0000                 0.0000                 0.0000
 Atom AN      X      Y      Z        X      Y      Z        X      Y      Z
   1   7    -0.16  -0.58   0.06     0.03   0.02   0.03    -0.05  -0.10  -0.03
   2   6    -0.09  -0.13   0.11     0.05   0.07   0.04     0.10   0.22   0.11
   3   6    -0.02  -0.05   0.04     0.02   0.02   0.01     0.04   0.11   0.04
   4   6     0.04  -0.01   0.04     0.10   0.14   0.05     0.20   0.37   0.12
   5   6     0.05   0.01   0.02     0.03   0.03   0.02     0.16   0.33   0.12
   6   6     0.02   0.00   0.00    -0.09  -0.15  -0.04     0.01   0.05   0.04
   7   6     0.03   0.00  -0.01    -0.14  -0.29  -0.16     0.02   0.07   0.07
   8   6     0.01  -0.03  -0.03     0.11   0.45   0.21    -0.10  -0.20  -0.11
   9   6    -0.01  -0.00   0.00    -0.13  -0.23  -0.06    -0.14  -0.21  -0.03
  10   6    -0.03  -0.03   0.02    -0.09  -0.17  -0.04    -0.13  -0.19  -0.03
  11  17     0.13   0.61  -0.19     0.06   0.03  -0.05    -0.07  -0.27  -0.18
  12   1    -0.08  -0.22   0.02     0.00  -0.01   0.00    -0.01  -0.02  -0.00
  13   1    -0.10  -0.15   0.03    -0.00   0.01   0.01    -0.05  -0.08   0.04
  14   1     0.03  -0.21  -0.00     0.02   0.00   0.01    -0.00  -0.05  -0.09
  15   1    -0.06  -0.01   0.10     0.02   0.02   0.04     0.04   0.08   0.14
  16   1     0.01   0.00  -0.00     0.02   0.04   0.00     0.07   0.15  -0.02
  17   1     0.02   0.01   0.02     0.06   0.10   0.03     0.10   0.19   0.06
  18   1     0.03   0.01   0.01     0.03   0.03   0.01     0.08   0.15   0.05
  19   1     0.01   0.01   0.00    -0.12  -0.30  -0.20     0.04   0.10   0.08
  20   1    -0.00  -0.02  -0.02     0.09   0.38   0.24    -0.06  -0.14  -0.09
  21   1     0.00  -0.01  -0.01     0.03   0.09  -0.01    -0.03  -0.05  -0.02
  22   1    -0.01   0.00  -0.00    -0.06  -0.12  -0.02    -0.08  -0.12  -0.02
  23   1    -0.02  -0.02   0.01    -0.05  -0.08  -0.02    -0.07  -0.12  -0.03
                      4                      5                      6
                        a                      a                      a 
 Frequencies --    52.5841                85.8477               126.3984
 Red. masses --    24.1941                14.4111                10.8641
 Frc consts  --     0.0000                 0.0000                 0.0000
 IR Inten    --    17.1310                 7.0075                 4.7547
 Raman Activ --     0.0000                 0.0000                 0.0000
 Depolar     --     0.0000                 0.0000                 0.0000
 Atom AN      X      Y      Z        X      Y      Z        X      Y      Z
   1   7    -0.07   0.02  -0.08     0.06   0.26   0.10     0.06   0.21   0.18
   2   6    -0.04   0.12  -0.05     0.04   0.09   0.08    -0.24  -0.42  -0.10
   3   6    -0.04   0.14  -0.02    -0.13  -0.19   0.02    -0.06  -0.08   0.08
   4   6    -0.11   0.10  -0.02    -0.14  -0.21   0.01     0.07   0.12   0.13
   5   6    -0.17   0.01  -0.00    -0.10  -0.15   0.02     0.14   0.23   0.14
   6   6    -0.16  -0.03   0.02    -0.07  -0.08   0.04     0.05   0.10   0.09
   7   6    -0.26  -0.16   0.03     0.13   0.25   0.13    -0.03  -0.07  -0.05
   8   6    -0.22  -0.23   0.09     0.01   0.18  -0.05    -0.06  -0.10  -0.10
   9   6    -0.06   0.06   0.03    -0.17  -0.25  -0.01    -0.01   0.03   0.07
  10   6    -0.01   0.13   0.01    -0.19  -0.28  -0.01    -0.06  -0.06   0.07
  11  17     0.74  -0.08   0.00     0.33   0.17  -0.24     0.10   0.06  -0.31
  12   1    -0.06  -0.08  -0.04     0.06   0.15   0.05     0.04   0.12   0.07
  13   1    -0.06   0.07  -0.04     0.06  -0.00   0.05     0.12   0.08  -0.01
  14   1     0.07  -0.01   0.02    -0.06   0.08  -0.03    -0.05   0.10   0.11
  15   1    -0.02   0.04  -0.00     0.08   0.01   0.05    -0.12  -0.16  -0.26
  16   1     0.00   0.04  -0.02    -0.02   0.08   0.01    -0.14  -0.32   0.09
  17   1    -0.03   0.04  -0.01    -0.05  -0.08   0.00     0.03   0.04   0.04
  18   1    -0.07  -0.01  -0.00    -0.02  -0.04   0.01     0.07   0.10   0.05
  19   1    -0.11  -0.06  -0.00     0.12   0.19   0.12    -0.03  -0.08  -0.05
  20   1    -0.03  -0.05   0.04    -0.08  -0.07  -0.10     0.00   0.03   0.01
  21   1    -0.09  -0.10   0.03     0.06   0.14   0.02    -0.04  -0.09  -0.08
  22   1    -0.01   0.01   0.02    -0.06  -0.08  -0.01    -0.01  -0.00   0.02
  23   1     0.02   0.05   0.01    -0.07  -0.10  -0.01    -0.04  -0.04   0.01
                      7                      8                      9
                        a                      a                      a 
 Frequencies --   177.0868               246.8750               267.7387
 Red. masses --     9.8296                 9.7483                 5.1239
 Frc consts  --     0.0000                 0.0000                 0.0000
 IR Inten    --    10.6629                11.8261                 0.0758
 Raman Activ --     0.0000                 0.0000                 0.0000
 Depolar     --     0.0000                 0.0000                 0.0000
 Atom AN      X      Y      Z        X      Y      Z        X      Y      Z
   1   7    -0.19   0.07  -0.41    -0.38   0.24  -0.18    -0.01   0.07   0.07
   2   6     0.12  -0.01  -0.09    -0.04   0.05   0.12    -0.06  -0.07   0.01
   3   6     0.04  -0.01   0.19    -0.15  -0.15   0.15     0.12   0.21   0.11
   4   6    -0.01  -0.05   0.19     0.06  -0.13   0.12     0.13   0.13   0.07
   5   6    -0.00  -0.08   0.20     0.20  -0.01  -0.07    -0.01  -0.16  -0.08
   6   6     0.00  -0.07   0.20     0.16   0.10  -0.16    -0.09  -0.25  -0.14
   7   6     0.08  -0.07  -0.12     0.09  -0.04  -0.11     0.07   0.08   0.06
   8   6    -0.11   0.16  -0.44     0.29  -0.23   0.20     0.07   0.06   0.06
   9   6     0.01  -0.04   0.21    -0.02   0.13  -0.11    -0.11  -0.16  -0.11
  10   6     0.06   0.00   0.21    -0.22  -0.07   0.06     0.02   0.09   0.04
  11  17     0.01   0.04   0.04     0.04   0.04  -0.01    -0.07  -0.02  -0.07
  12   1    -0.06  -0.05  -0.21    -0.09   0.00  -0.16    -0.15  -0.32  -0.12
  13   1    -0.14   0.10  -0.12    -0.19   0.14  -0.05    -0.13   0.37  -0.12
  14   1    -0.01   0.02  -0.05    -0.08   0.08   0.01     0.26   0.01   0.28
  15   1     0.05  -0.01  -0.02     0.06   0.00   0.08    -0.10  -0.03  -0.13
  16   1     0.11  -0.01  -0.05     0.03   0.07  -0.01    -0.02  -0.16   0.06
  17   1    -0.02  -0.01   0.04     0.03  -0.05   0.05     0.07   0.09   0.04
  18   1    -0.01  -0.03   0.06     0.10  -0.01  -0.03    -0.01  -0.08  -0.04
  19   1     0.10  -0.08  -0.07    -0.06  -0.04  -0.05     0.08   0.16   0.11
  20   1    -0.11   0.11  -0.09     0.20  -0.06   0.08    -0.04  -0.13  -0.09
  21   1     0.00   0.04  -0.24     0.02  -0.13   0.13     0.08   0.15   0.12
  22   1    -0.01  -0.02   0.06    -0.01   0.09  -0.05    -0.05  -0.05  -0.05
  23   1     0.03   0.01   0.06    -0.11  -0.03   0.02     0.01   0.06   0.02
                     10                     11                     12
                        a                      a                      a 
 Frequencies --   294.2433               361.2367               374.4456
 Red. masses --     5.9968                 8.7113                10.5596
 Frc consts  --     0.0000                 0.0000                 0.0000
 IR Inten    --     2.0602                 1.1474                 2.7033
 Raman Activ --     0.0000                 0.0000                 0.0000
 Depolar     --     0.0000                 0.0000                 0.0000
 Atom AN      X      Y      Z        X      Y      Z        X      Y      Z
   1   7    -0.18  -0.02  -0.17     0.06  -0.01  -0.03    -0.36   0.12   0.17
   2   6    -0.07  -0.11  -0.04     0.03  -0.03  -0.03    -0.30   0.13   0.07
   3   6     0.09   0.20   0.17     0.00  -0.02   0.02    -0.06   0.17  -0.25
   4   6     0.13   0.10   0.12     0.19   0.33   0.12     0.04   0.14  -0.28
   5   6     0.04  -0.11  -0.06    -0.22  -0.37  -0.08    -0.09  -0.03  -0.04
   6   6    -0.10  -0.25  -0.16    -0.03  -0.00   0.00     0.13  -0.19   0.19
   7   6    -0.01  -0.05  -0.01    -0.01   0.03  -0.01     0.27  -0.17   0.06
   8   6     0.06   0.03   0.09    -0.02   0.01  -0.02     0.20  -0.05  -0.10
   9   6    -0.10  -0.07  -0.10     0.19   0.37   0.10     0.10  -0.11   0.22
  10   6     0.05   0.23   0.11    -0.20  -0.33  -0.08     0.14  -0.05  -0.05
  11  17     0.07   0.03   0.05     0.00   0.00   0.01     0.02   0.00  -0.00
  12   1     0.11   0.34   0.05     0.03   0.04   0.02    -0.08   0.06   0.04
  13   1     0.07  -0.33   0.09     0.04  -0.04   0.00    -0.10   0.01   0.06
  14   1    -0.33   0.02  -0.28    -0.01  -0.00  -0.03    -0.12   0.03   0.02
  15   1    -0.08  -0.03  -0.09     0.00  -0.01  -0.02    -0.12   0.05   0.03
  16   1     0.02  -0.13   0.01     0.01  -0.02  -0.01    -0.12   0.05   0.03
  17   1     0.05   0.03   0.05     0.14   0.24   0.07     0.01   0.07  -0.08
  18   1     0.03  -0.05  -0.03    -0.13  -0.23  -0.06    -0.12   0.02   0.01
  19   1     0.04   0.09   0.07     0.00   0.01  -0.00     0.12  -0.08   0.00
  20   1    -0.03  -0.11  -0.06    -0.00  -0.01  -0.02     0.02   0.02  -0.01
  21   1     0.07   0.13   0.12    -0.00   0.01   0.01     0.08  -0.01  -0.08
  22   1    -0.06  -0.03  -0.05     0.13   0.23   0.06     0.04  -0.03   0.07
  23   1     0.01   0.11   0.05    -0.13  -0.21  -0.05     0.12  -0.06  -0.05
                     13                     14                     15
                        a                      a                      a 
 Frequencies --   414.0203               453.1142               524.1901
 Red. masses --     8.7506                 9.2332                 9.1290
 Frc consts  --     0.0000                 0.0000                 0.0000
 IR Inten    --     9.3617                 9.4709                 3.5536
 Raman Activ --     0.0000                 0.0000                 0.0000
 Depolar     --     0.0000                 0.0000                 0.0000
 Atom AN      X      Y      Z        X      Y      Z        X      Y      Z
   1   7     0.16  -0.11  -0.06     0.25  -0.07  -0.06     0.09  -0.03  -0.05
   2   6    -0.03   0.10  -0.16    -0.06   0.12  -0.24    -0.14   0.18  -0.19
   3   6     0.09   0.43   0.15    -0.35  -0.20  -0.04    -0.19   0.15   0.11
   4   6    -0.16  -0.03   0.04    -0.10   0.10   0.06    -0.00  -0.09  -0.00
   5   6    -0.17  -0.12  -0.00    -0.03   0.13   0.07     0.19   0.05  -0.29
   6   6     0.11   0.24   0.13    -0.14  -0.29   0.02     0.31  -0.03  -0.11
   7   6     0.17   0.13  -0.13     0.14  -0.10  -0.20     0.07  -0.26   0.36
   8   6     0.26  -0.15  -0.02     0.30  -0.05  -0.02    -0.16   0.05   0.04
   9   6    -0.21  -0.14   0.05    -0.12   0.10   0.17     0.06   0.09  -0.04
  10   6    -0.15  -0.05   0.08    -0.10   0.12   0.17    -0.15  -0.08   0.23
  11  17    -0.01  -0.01   0.01    -0.02  -0.00   0.00    -0.01  -0.00   0.00
  12   1     0.01  -0.03   0.07     0.00  -0.06   0.10    -0.04  -0.04   0.10
  13   1     0.09  -0.07  -0.01     0.14  -0.03  -0.04     0.09  -0.03  -0.03
  14   1     0.07  -0.05  -0.05     0.15  -0.04  -0.01     0.11  -0.04  -0.03
  15   1    -0.11   0.04  -0.14     0.06   0.02  -0.01    -0.05   0.05  -0.07
  16   1     0.02  -0.10  -0.01    -0.04   0.11  -0.09    -0.03   0.03  -0.05
  17   1    -0.09  -0.12  -0.00     0.05   0.12   0.07     0.04  -0.13   0.06
  18   1    -0.12  -0.14  -0.03     0.03   0.16   0.06     0.04  -0.02  -0.09
  19   1    -0.01  -0.06  -0.11     0.10   0.02  -0.02     0.00  -0.06   0.11
  20   1     0.22   0.03   0.06     0.12  -0.12  -0.07    -0.28   0.09   0.03
  21   1    -0.03  -0.20  -0.01     0.09   0.06   0.12     0.07   0.10  -0.17
  22   1    -0.12  -0.15  -0.01     0.02   0.15   0.06    -0.07   0.06  -0.11
  23   1    -0.10  -0.12  -0.01     0.05   0.14   0.07    -0.08  -0.07   0.05
                     16                     17                     18
                        a                      a                      a 
 Frequencies --   600.9287               615.5395               687.9414
 Red. masses --     9.3324                 9.6933                 8.0147
 Frc consts  --     0.0000                 0.0000                 0.0000
 IR Inten    --     0.8583                 1.1369                 0.5755
 Raman Activ --     0.0000                 0.0000                 0.0000
 Depolar     --     0.0000                 0.0000                 0.0000
 Atom AN      X      Y      Z        X      Y      Z        X      Y      Z
   1   7    -0.03   0.00   0.03     0.04   0.00  -0.06     0.01   0.00   0.00
   2   6    -0.01  -0.04   0.01    -0.04  -0.00  -0.06    -0.03  -0.09  -0.03
   3   6    -0.13  -0.20   0.04    -0.12  -0.15  -0.11    -0.15  -0.25  -0.07
   4   6    -0.17   0.26   0.18     0.38  -0.02  -0.11     0.12   0.28   0.08
   5   6    -0.24  -0.02  -0.31     0.11  -0.34   0.12    -0.09  -0.10  -0.04
   6   6     0.02   0.01  -0.11     0.06   0.03   0.06     0.24   0.38   0.12
   7   6     0.11   0.25   0.14     0.11   0.17   0.26    -0.10  -0.25  -0.16
   8   6    -0.01  -0.06  -0.06    -0.07  -0.06   0.01     0.03   0.06   0.05
   9   6     0.18  -0.28  -0.22    -0.39  -0.03   0.06    -0.07  -0.13  -0.01
  10   6     0.24   0.02   0.28    -0.12   0.33  -0.16     0.14   0.22   0.09
  11  17     0.00   0.00   0.00     0.00   0.00   0.00     0.00  -0.00  -0.00
  12   1     0.00   0.02   0.01    -0.00   0.00   0.02     0.00   0.00   0.01
  13   1     0.00  -0.00   0.01     0.04  -0.01  -0.02     0.05   0.03  -0.04
  14   1    -0.02   0.01   0.02     0.03  -0.00  -0.01    -0.01   0.02   0.05
  15   1     0.04  -0.01   0.05     0.04  -0.01   0.01     0.09  -0.03   0.12
  16   1    -0.02   0.04  -0.01    -0.01   0.04  -0.03    -0.02   0.12  -0.07
  17   1     0.04   0.17   0.11     0.16   0.11  -0.01    -0.07  -0.11  -0.03
  18   1     0.00   0.03  -0.08     0.03  -0.04   0.05    -0.17  -0.25  -0.07
  19   1    -0.04  -0.08  -0.06    -0.05  -0.08  -0.02     0.02   0.08   0.06
  20   1     0.10   0.17   0.12    -0.01   0.17   0.13    -0.10  -0.15  -0.12
  21   1    -0.10  -0.22  -0.15    -0.08  -0.18  -0.18     0.09   0.18   0.11
  22   1     0.06  -0.01  -0.07    -0.08   0.02   0.03    -0.15  -0.24  -0.06
  23   1     0.09   0.12   0.12     0.03   0.16  -0.03    -0.04  -0.09  -0.02
                     19                     20                     21
                        a                      a                      a 
 Frequencies --   715.8347               787.3342               835.8571
 Red. masses --     9.3376                 5.4625                 4.2482
 Frc consts  --     0.0000                 0.0000                 0.0000
 IR Inten    --     7.4747                 3.1577                49.4735
 Raman Activ --     0.0000                 0.0000                 0.0000
 Depolar     --     0.0000                 0.0000                 0.0000
 Atom AN      X      Y      Z        X      Y      Z        X      Y      Z
   1   7    -0.12   0.05   0.02     0.02   0.03   0.01    -0.01   0.12   0.04
   2   6    -0.26   0.25  -0.25     0.08   0.10   0.08     0.04   0.21   0.02
   3   6    -0.08   0.01  -0.01     0.00  -0.01  -0.00    -0.06  -0.24  -0.04
   4   6     0.24  -0.15   0.01    -0.12  -0.16  -0.07    -0.05   0.02   0.13
   5   6     0.20  -0.19   0.16    -0.12  -0.16  -0.07    -0.01   0.01   0.13
   6   6    -0.02   0.05  -0.00     0.22   0.36   0.11    -0.10  -0.07  -0.04
   7   6    -0.25   0.22  -0.21    -0.08  -0.20  -0.11     0.08  -0.00   0.07
   8   6    -0.17   0.08   0.01     0.02   0.06   0.05     0.05  -0.05  -0.02
   9   6     0.21  -0.15   0.00    -0.10  -0.16  -0.02     0.13   0.14  -0.09
  10   6     0.19  -0.15   0.18    -0.03  -0.07  -0.01     0.10   0.17  -0.11
  11  17    -0.00   0.00   0.00    -0.00   0.00   0.01    -0.01  -0.00   0.01
  12   1    -0.13  -0.03   0.20    -0.00  -0.04  -0.05    -0.10  -0.13   0.03
  13   1     0.08  -0.05  -0.01    -0.15  -0.07   0.11    -0.25  -0.15   0.21
  14   1     0.10  -0.03  -0.03     0.06  -0.05  -0.15     0.23  -0.12  -0.34
  15   1    -0.08   0.07  -0.06    -0.05  -0.00  -0.20     0.02  -0.02  -0.31
  16   1    -0.08   0.08  -0.07    -0.03  -0.18   0.13    -0.14  -0.18   0.17
  17   1     0.11  -0.03   0.04     0.21   0.40   0.09    -0.04   0.01   0.01
  18   1     0.10  -0.06   0.04     0.11   0.22   0.06    -0.01  -0.07   0.01
  19   1    -0.06   0.08  -0.04    -0.01   0.05   0.04     0.02  -0.03  -0.00
  20   1     0.13  -0.05  -0.03    -0.10  -0.11  -0.09    -0.02   0.05   0.03
  21   1    -0.14  -0.03   0.17     0.05   0.08   0.01     0.05   0.01  -0.04
  22   1     0.08  -0.06   0.03     0.09   0.17   0.04    -0.11  -0.26  -0.08
  23   1     0.10  -0.04   0.04     0.14   0.23   0.07    -0.16  -0.20  -0.09
                     22                     23                     24
                        a                      a                      a 
 Frequencies --   841.5547               849.7909               880.5648
 Red. masses --     8.8782                 3.4639                 3.8359
 Frc consts  --     0.0000                 0.0000                 0.0000
 IR Inten    --    16.3445                 8.9351                13.4873
 Raman Activ --     0.0000                 0.0000                 0.0000
 Depolar     --     0.0000                 0.0000                 0.0000
 Atom AN      X      Y      Z        X      Y      Z        X      Y      Z
   1   7    -0.15   0.01   0.03     0.01   0.03   0.01     0.01  -0.01  -0.00
   2   6    -0.13   0.06  -0.21     0.05   0.11   0.03     0.00   0.02   0.00
   3   6     0.18  -0.01   0.05    -0.04  -0.08  -0.02    -0.01   0.00  -0.00
   4   6    -0.16  -0.02   0.33     0.16   0.27   0.08     0.01   0.02   0.00
   5   6    -0.07  -0.07   0.33     0.05   0.08   0.02    -0.01  -0.02   0.00
   6   6    -0.07   0.13  -0.01     0.00   0.01   0.00     0.04   0.08   0.02
   7   6     0.13  -0.16   0.09    -0.01  -0.02  -0.01     0.06   0.13   0.09
   8   6     0.13  -0.06   0.02     0.00   0.04   0.02    -0.16  -0.36  -0.25
   9   6     0.09  -0.03  -0.33    -0.10  -0.17  -0.04    -0.02  -0.03  -0.00
  10   6     0.01   0.00  -0.35    -0.09  -0.18  -0.06    -0.02  -0.03  -0.00
  11  17    -0.00   0.00  -0.00    -0.00  -0.00   0.01    -0.00  -0.00   0.00
  12   1    -0.10   0.02   0.21    -0.03  -0.06  -0.02     0.01  -0.00  -0.01
  13   1     0.18   0.01  -0.09    -0.12  -0.06   0.09    -0.01  -0.00   0.00
  14   1     0.01   0.01   0.10     0.07  -0.05  -0.13    -0.01   0.00   0.00
  15   1    -0.04   0.05   0.08    -0.01  -0.00  -0.15    -0.01   0.00  -0.01
  16   1     0.01   0.12  -0.12    -0.04  -0.10   0.09    -0.00  -0.01   0.01
  17   1    -0.07   0.06   0.06    -0.26  -0.46  -0.13    -0.01  -0.02  -0.01
  18   1     0.07  -0.04   0.07    -0.11  -0.18  -0.05     0.01   0.01   0.01
  19   1     0.03  -0.04   0.04     0.01   0.02   0.01    -0.10  -0.18  -0.13
  20   1    -0.14   0.01   0.00     0.00  -0.00  -0.00     0.11   0.26   0.19
  21   1     0.14   0.06  -0.15    -0.03  -0.05  -0.04     0.27   0.57   0.40
  22   1     0.13   0.06  -0.02     0.21   0.35   0.09     0.02   0.02   0.02
  23   1    -0.01   0.17  -0.04     0.20   0.33   0.09     0.05   0.07   0.02
                     25                     26                     27
                        a                      a                      a 
 Frequencies --   893.8620               909.7927               970.8570
 Red. masses --     3.1598                 4.0214                 7.3543
 Frc consts  --     0.0000                 0.0000                 0.0000
 IR Inten    --     0.5099                 0.5176                46.9499
 Raman Activ --     0.0000                 0.0000                 0.0000
 Depolar     --     0.0000                 0.0000                 0.0000
 Atom AN      X      Y      Z        X      Y      Z        X      Y      Z
   1   7    -0.00   0.00   0.01    -0.00  -0.01   0.00     0.33  -0.15  -0.10
   2   6    -0.00   0.01  -0.01     0.00   0.00   0.00    -0.25   0.14   0.14
   3   6     0.02   0.02   0.00    -0.01  -0.01  -0.00    -0.19   0.06  -0.08
   4   6     0.09   0.16   0.06     0.08   0.13   0.04     0.06  -0.00  -0.06
   5   6    -0.17  -0.30  -0.08    -0.11  -0.18  -0.06    -0.00  -0.09   0.32
   6   6     0.02   0.02   0.01     0.01   0.00   0.00    -0.10   0.05  -0.04
   7   6    -0.01  -0.02  -0.01    -0.00   0.01  -0.01     0.01  -0.00  -0.02
   8   6    -0.00   0.01   0.01     0.02   0.01   0.02     0.08  -0.06   0.04
   9   6    -0.04  -0.06  -0.01     0.16   0.28   0.09     0.17  -0.03  -0.24
  10   6     0.08   0.13   0.02    -0.15  -0.24  -0.07     0.00  -0.03   0.15
  11  17    -0.00  -0.00  -0.00     0.00  -0.00  -0.00     0.01  -0.00  -0.00
  12   1    -0.01  -0.02   0.00     0.00   0.00  -0.00     0.27   0.06  -0.40
  13   1     0.00   0.01  -0.01     0.01   0.01  -0.01    -0.13   0.10  -0.01
  14   1     0.00  -0.00  -0.00    -0.01   0.00   0.01    -0.20   0.06   0.06
  15   1    -0.00   0.00   0.00    -0.02   0.01   0.00    -0.20   0.07   0.01
  16   1    -0.00   0.01  -0.01     0.01  -0.01  -0.00    -0.15   0.02   0.08
  17   1    -0.18  -0.31  -0.08    -0.08  -0.14  -0.04    -0.03   0.01  -0.06
  18   1     0.36   0.57   0.16     0.15   0.25   0.07    -0.01  -0.02   0.09
  19   1    -0.01  -0.01  -0.01    -0.01   0.01   0.00    -0.02   0.04   0.02
  20   1    -0.02  -0.02  -0.02    -0.02  -0.02  -0.01    -0.10   0.04   0.03
  21   1     0.01   0.02   0.00    -0.01  -0.03  -0.01     0.08   0.02  -0.11
  22   1     0.10   0.17   0.05    -0.29  -0.50  -0.12     0.02   0.01  -0.10
  23   1    -0.18  -0.32  -0.09     0.25   0.43   0.12    -0.05  -0.01   0.05
                     28                     29                     30
                        a                      a                      a 
 Frequencies --   995.8593              1008.9798              1016.3334
 Red. masses --     2.0078                 7.4437                 7.8029
 Frc consts  --     0.0000                 0.0000                 0.0000
 IR Inten    --    18.7140                 2.6796                 8.7029
 Raman Activ --     0.0000                 0.0000                 0.0000
 Depolar     --     0.0000                 0.0000                 0.0000
 Atom AN      X      Y      Z        X      Y      Z        X      Y      Z
   1   7     0.00   0.00   0.01    -0.19  -0.00   0.24     0.08   0.19  -0.35
   2   6    -0.00  -0.00  -0.01     0.29  -0.05  -0.27    -0.24  -0.21   0.44
   3   6     0.01   0.00   0.01     0.01   0.01  -0.03     0.02   0.09   0.04
   4   6    -0.02  -0.00   0.03     0.10  -0.00  -0.20     0.08   0.01  -0.21
   5   6    -0.01  -0.01  -0.03    -0.04   0.00   0.10    -0.07   0.01   0.07
   6   6     0.04  -0.01   0.01    -0.14   0.05  -0.09    -0.08   0.04   0.00
   7   6    -0.11  -0.19  -0.14    -0.04   0.13  -0.17    -0.01   0.03  -0.05
   8   6    -0.04  -0.10  -0.07     0.18  -0.19   0.14     0.07  -0.07   0.03
   9   6    -0.01   0.01   0.01    -0.03   0.02   0.02     0.07  -0.02  -0.09
  10   6    -0.01   0.01  -0.04     0.01  -0.08   0.29     0.00  -0.05   0.11
  11  17    -0.00  -0.00  -0.00     0.00   0.00  -0.00    -0.01  -0.00   0.00
  12   1    -0.00  -0.01   0.00    -0.05  -0.01   0.06    -0.16  -0.07   0.24
  13   1    -0.00   0.01  -0.00    -0.07  -0.01   0.07     0.21  -0.10  -0.08
  14   1    -0.00  -0.00  -0.00    -0.05  -0.01   0.04     0.32  -0.06  -0.18
  15   1     0.00  -0.00   0.00     0.11  -0.02  -0.05     0.12  -0.11   0.14
  16   1    -0.00   0.01  -0.01     0.08  -0.01  -0.07     0.02   0.02   0.05
  17   1     0.01   0.00   0.02    -0.02   0.03  -0.11    -0.01   0.00  -0.08
  18   1     0.01   0.03   0.00    -0.08   0.03   0.05    -0.11   0.07   0.06
  19   1     0.28   0.56   0.39    -0.24   0.14   0.01    -0.06   0.05   0.01
  20   1     0.20   0.45   0.33    -0.32   0.11   0.09    -0.10   0.04   0.03
  21   1    -0.02  -0.05  -0.03     0.24   0.08  -0.29     0.09   0.04  -0.10
  22   1     0.02  -0.02   0.02    -0.07   0.06  -0.06     0.02   0.02  -0.03
  23   1    -0.01  -0.00  -0.01     0.00  -0.03   0.08    -0.02   0.03   0.05
                     31                     32                     33
                        a                      a                      a 
 Frequencies --  1036.6988              1041.2251              1152.9858
 Red. masses --     6.7966                 4.9264                 2.8601
 Frc consts  --     0.0000                 0.0000                 0.0000
 IR Inten    --     2.9968                 5.5451                 0.6771
 Raman Activ --     0.0000                 0.0000                 0.0000
 Depolar     --     0.0000                 0.0000                 0.0000
 Atom AN      X      Y      Z        X      Y      Z        X      Y      Z
   1   7    -0.10   0.01   0.12    -0.15  -0.15  -0.14    -0.00   0.02  -0.03
   2   6     0.19  -0.08  -0.12     0.20   0.32   0.24     0.01  -0.02   0.07
   3   6    -0.05   0.05   0.03    -0.13  -0.23  -0.03     0.05   0.01  -0.16
   4   6     0.10   0.02  -0.27     0.04   0.03  -0.08    -0.14   0.06   0.08
   5   6    -0.07  -0.04   0.23    -0.02   0.04   0.00     0.02  -0.06   0.18
   6   6     0.01   0.03   0.07    -0.03   0.00   0.01     0.09  -0.01  -0.12
   7   6     0.07  -0.16   0.17    -0.00  -0.00  -0.01     0.02  -0.01   0.01
   8   6    -0.10   0.12  -0.11     0.01  -0.01   0.00    -0.03   0.02  -0.01
   9   6     0.10   0.03  -0.35     0.03   0.01  -0.03    -0.12   0.06   0.04
  10   6    -0.11   0.00   0.20     0.03   0.03   0.02     0.06  -0.07   0.11
  11  17     0.00   0.00   0.00     0.00  -0.00  -0.01    -0.00  -0.00   0.00
  12   1    -0.04  -0.01   0.06    -0.05   0.09   0.18    -0.03  -0.01   0.05
  13   1    -0.02  -0.01   0.04     0.33   0.06  -0.23     0.04   0.00  -0.02
  14   1    -0.00  -0.01   0.01    -0.08   0.05   0.24     0.03  -0.01  -0.03
  15   1     0.11  -0.04  -0.01    -0.30   0.13  -0.20    -0.02  -0.00   0.01
  16   1     0.07  -0.02  -0.05     0.30  -0.34   0.13     0.02  -0.01   0.01
  17   1    -0.05   0.06  -0.16    -0.01  -0.01  -0.03    -0.23   0.19  -0.19
  18   1    -0.18   0.10   0.13    -0.07   0.01   0.01     0.31  -0.17  -0.05
  19   1     0.26  -0.11   0.02     0.00   0.02   0.01     0.05  -0.00   0.01
  20   1     0.26  -0.06  -0.05    -0.01   0.01   0.00     0.02   0.02   0.02
  21   1    -0.16  -0.06   0.20     0.01   0.00  -0.01    -0.06  -0.03   0.07
  22   1    -0.07   0.09  -0.21    -0.01  -0.03  -0.01    -0.36   0.29  -0.35
  23   1    -0.23   0.11   0.13    -0.04  -0.05  -0.01     0.41  -0.20  -0.10
                     34                     35                     36
                        a                      a                      a 
 Frequencies --  1192.1259              1212.3356              1224.3116
 Red. masses --     3.9310                 4.0786                 2.6033
 Frc consts  --     0.0000                 0.0000                 0.0000
 IR Inten    --     0.3162                 2.9080                13.8190
 Raman Activ --     0.0000                 0.0000                 0.0000
 Depolar     --     0.0000                 0.0000                 0.0000
 Atom AN      X      Y      Z        X      Y      Z        X      Y      Z
   1   7     0.01  -0.00  -0.01    -0.02  -0.09  -0.08     0.12   0.20   0.09
   2   6    -0.05   0.04  -0.02    -0.08   0.15   0.00    -0.08  -0.13  -0.08
   3   6     0.11  -0.08   0.03     0.35  -0.17  -0.04     0.07  -0.14  -0.03
   4   6    -0.02  -0.04   0.17    -0.02   0.02  -0.00    -0.01   0.01   0.00
   5   6    -0.03   0.01   0.05     0.01   0.01  -0.06     0.01   0.01  -0.02
   6   6     0.34  -0.22   0.03     0.15  -0.10  -0.01     0.08  -0.05  -0.01
   7   6    -0.04   0.10  -0.10    -0.01   0.03  -0.04     0.00   0.01  -0.01
   8   6    -0.03   0.03  -0.01    -0.02   0.01  -0.01    -0.01   0.01  -0.01
   9   6     0.02  -0.01  -0.02    -0.02  -0.03   0.17    -0.00  -0.02   0.06
  10   6     0.03   0.02  -0.14    -0.02  -0.01   0.08    -0.01   0.01   0.03
  11  17    -0.00   0.00  -0.00     0.00  -0.00  -0.00    -0.00   0.00   0.00
  12   1     0.01   0.01  -0.02    -0.01   0.03   0.06    -0.02  -0.08  -0.04
  13   1    -0.01   0.00  -0.00     0.07   0.05  -0.08    -0.12  -0.04   0.13
  14   1    -0.01   0.00   0.00    -0.06   0.01   0.05     0.09  -0.01  -0.21
  15   1    -0.06   0.03   0.00     0.06  -0.01  -0.08    -0.57   0.20   0.28
  16   1    -0.06   0.03   0.01    -0.34   0.09   0.13     0.42  -0.06  -0.22
  17   1     0.07  -0.08   0.13    -0.25   0.22  -0.28    -0.12   0.10  -0.14
  18   1    -0.56   0.28   0.21     0.11  -0.05  -0.05     0.03  -0.02  -0.02
  19   1    -0.28   0.10   0.00    -0.13   0.05   0.01    -0.09   0.03   0.01
  20   1    -0.05   0.02   0.00    -0.02   0.01   0.00    -0.00   0.00  -0.00
  21   1    -0.06  -0.02   0.07    -0.03  -0.01   0.03    -0.01  -0.00   0.01
  22   1    -0.22   0.20  -0.27    -0.04   0.02   0.01     0.01  -0.02   0.03
  23   1     0.06  -0.02  -0.06    -0.47   0.23   0.19    -0.19   0.08   0.07
                     37                     38                     39
                        a                      a                      a 
 Frequencies --  1253.0553              1276.4605              1295.3807
 Red. masses --     5.8221                 6.8566                 5.0112
 Frc consts  --     0.0000                 0.0000                 0.0000
 IR Inten    --     1.9791                 0.4112                 9.6760
 Raman Activ --     0.0000                 0.0000                 0.0000
 Depolar     --     0.0000                 0.0000                 0.0000
 Atom AN      X      Y      Z        X      Y      Z        X      Y      Z
   1   7     0.01   0.03  -0.05    -0.03   0.02   0.00     0.06  -0.06   0.08
   2   6    -0.07   0.05  -0.05     0.12  -0.09   0.05    -0.23   0.12  -0.03
   3   6     0.32  -0.20  -0.02    -0.22   0.16  -0.12     0.01  -0.08   0.27
   4   6     0.17  -0.09  -0.03    -0.18   0.12  -0.07    -0.02   0.01  -0.00
   5   6    -0.13   0.11  -0.15     0.05  -0.05   0.07     0.15  -0.05  -0.13
   6   6    -0.30   0.17   0.08     0.18  -0.20   0.32     0.09  -0.06   0.08
   7   6    -0.03   0.01  -0.00    -0.10   0.18  -0.20    -0.11   0.17  -0.16
   8   6     0.03  -0.07   0.08    -0.04  -0.07   0.13    -0.07  -0.10   0.19
   9   6    -0.11   0.05   0.06     0.16  -0.10  -0.00    -0.04   0.04  -0.07
  10   6     0.13  -0.10   0.08     0.03   0.03  -0.18     0.04  -0.00  -0.08
  11  17    -0.00   0.00  -0.00    -0.00   0.00   0.00     0.00  -0.00   0.00
  12   1    -0.01  -0.01  -0.01    -0.00   0.00  -0.01     0.04   0.00  -0.04
  13   1    -0.02  -0.03   0.02     0.01  -0.05   0.02    -0.02   0.09  -0.02
  14   1     0.00   0.02   0.01     0.04   0.00   0.03    -0.06  -0.02  -0.08
  15   1    -0.22   0.09   0.05     0.04  -0.02   0.01     0.20  -0.06  -0.05
  16   1    -0.16   0.08   0.03     0.07  -0.04  -0.00     0.20  -0.08  -0.08
  17   1     0.23  -0.18   0.19     0.14  -0.13   0.20    -0.22   0.19  -0.24
  18   1    -0.03   0.03  -0.05     0.28  -0.15  -0.07    -0.18   0.10   0.04
  19   1     0.41  -0.14  -0.06     0.14  -0.02  -0.09     0.47  -0.15  -0.14
  20   1    -0.05   0.01   0.03    -0.21   0.04   0.06    -0.20   0.03   0.07
  21   1     0.05   0.01  -0.04    -0.01  -0.00   0.02     0.03   0.01  -0.03
  22   1    -0.24   0.18  -0.21    -0.12   0.13  -0.20     0.05  -0.03   0.05
  23   1    -0.07   0.02   0.06    -0.31   0.16   0.06     0.09  -0.04  -0.05
                     40                     41                     42
                        a                      a                      a 
 Frequencies --  1319.3610              1344.5552              1359.2823
 Red. masses --     5.6062                 9.3243                 3.3379
 Frc consts  --     0.0000                 0.0000                 0.0000
 IR Inten    --     8.2963                11.8146               144.0587
 Raman Activ --     0.0000                 0.0000                 0.0000
 Depolar     --     0.0000                 0.0000                 0.0000
 Atom AN      X      Y      Z        X      Y      Z        X      Y      Z
   1   7     0.02  -0.06   0.13    -0.09  -0.04   0.12     0.26   0.08  -0.14
   2   6    -0.36   0.18  -0.01    -0.12   0.04   0.04    -0.11   0.07  -0.00
   3   6     0.10  -0.09   0.13     0.10   0.04  -0.33     0.02   0.00  -0.05
   4   6     0.00   0.03  -0.13     0.19  -0.17   0.19     0.09  -0.07   0.04
   5   6    -0.00   0.02  -0.07    -0.31   0.16   0.10    -0.13   0.07   0.01
   6   6    -0.18   0.04   0.21     0.10   0.03  -0.31     0.02   0.00  -0.04
   7   6     0.06  -0.10   0.08    -0.00   0.02  -0.02    -0.01  -0.00   0.00
   8   6     0.08   0.05  -0.12    -0.03  -0.01   0.03     0.00   0.00  -0.00
   9   6    -0.06   0.04  -0.01     0.22  -0.19   0.22     0.11  -0.09   0.07
  10   6     0.18  -0.09  -0.08    -0.30   0.15   0.07    -0.11   0.07  -0.02
  11  17     0.00  -0.00   0.00    -0.00  -0.00   0.00     0.01   0.00  -0.00
  12   1     0.10   0.05  -0.14     0.11   0.12  -0.13    -0.29  -0.39   0.24
  13   1     0.00   0.08  -0.03     0.08   0.10  -0.07    -0.20  -0.18   0.18
  14   1    -0.00  -0.04  -0.08     0.14  -0.09  -0.12    -0.50   0.22   0.21
  15   1     0.32  -0.10  -0.08     0.18  -0.07  -0.07     0.16  -0.05   0.00
  16   1     0.37  -0.15  -0.13     0.23  -0.08  -0.07     0.14  -0.11  -0.02
  17   1     0.09  -0.07   0.06     0.05  -0.04   0.05     0.02  -0.00  -0.00
  18   1     0.12  -0.06  -0.07     0.01  -0.01  -0.01     0.03  -0.01  -0.02
  19   1    -0.32   0.10   0.09     0.15  -0.05  -0.03    -0.00   0.00   0.00
  20   1     0.11  -0.01  -0.04    -0.05   0.01   0.02     0.01  -0.01  -0.01
  21   1     0.00  -0.01   0.01    -0.02  -0.01   0.02    -0.00  -0.00  -0.00
  22   1    -0.15   0.12  -0.15     0.01   0.01  -0.00    -0.02   0.02  -0.04
  23   1    -0.10   0.05   0.03    -0.05   0.03   0.00    -0.00   0.00  -0.02
                     43                     44                     45
                        a                      a                      a 
 Frequencies --  1401.8140              1405.1681              1414.5296
 Red. masses --     2.4344                 2.3911                 8.5483
 Frc consts  --     0.0000                 0.0000                 0.0000
 IR Inten    --    58.6856                14.5623                 5.2232
 Raman Activ --     0.0000                 0.0000                 0.0000
 Depolar     --     0.0000                 0.0000                 0.0000
 Atom AN      X      Y      Z        X      Y      Z        X      Y      Z
   1   7    -0.04   0.02  -0.15    -0.03   0.00  -0.08     0.00   0.04   0.05
   2   6    -0.11   0.05  -0.03    -0.03   0.01  -0.02    -0.06   0.02   0.08
   3   6     0.08  -0.04  -0.04    -0.01   0.01   0.00     0.11   0.03  -0.32
   4   6    -0.07   0.05  -0.02     0.02  -0.02   0.04    -0.29   0.17   0.00
   5   6     0.02  -0.03   0.05     0.01   0.00  -0.03     0.20  -0.17   0.18
   6   6     0.00   0.03  -0.13     0.08  -0.06   0.04     0.12   0.03  -0.32
   7   6     0.14  -0.03  -0.04    -0.26   0.07   0.07    -0.03   0.01   0.04
   8   6     0.01   0.01  -0.02    -0.06  -0.02   0.07    -0.08  -0.00   0.06
   9   6    -0.10   0.06   0.00     0.05  -0.04   0.04    -0.28   0.15   0.04
  10   6     0.06  -0.05   0.06    -0.03   0.03  -0.04     0.22  -0.17   0.15
  11  17    -0.00  -0.00  -0.01    -0.00  -0.00  -0.00     0.00   0.00   0.00
  12   1     0.13   0.22  -0.03     0.08   0.16  -0.00    -0.07  -0.16  -0.08
  13   1    -0.19  -0.36   0.26    -0.12  -0.17   0.13     0.12  -0.02  -0.03
  14   1     0.32   0.05   0.52     0.21   0.01   0.27    -0.13   0.02  -0.08
  15   1     0.08  -0.01   0.03     0.02  -0.00   0.02     0.09  -0.04  -0.04
  16   1     0.10  -0.09  -0.02     0.04  -0.03  -0.01     0.12  -0.05  -0.02
  17   1    -0.01  -0.01   0.01    -0.06   0.05  -0.06     0.10  -0.10   0.21
  18   1    -0.03   0.02   0.03    -0.01   0.01  -0.00    -0.12   0.04   0.11
  19   1     0.02   0.01  -0.00     0.05  -0.02   0.00     0.12  -0.05  -0.02
  20   1    -0.26   0.09   0.04     0.51  -0.18  -0.06     0.13  -0.05  -0.01
  21   1    -0.15  -0.09   0.23     0.31   0.19  -0.46     0.06   0.04  -0.12
  22   1     0.04  -0.05   0.08    -0.06   0.04  -0.08     0.03  -0.06   0.14
  23   1    -0.02  -0.01   0.03    -0.02   0.01  -0.01    -0.15   0.06   0.12
                     46                     47                     48
                        a                      a                      a 
 Frequencies --  1444.8840              1462.2895              1495.0945
 Red. masses --     2.0278                 1.8628                 9.4797
 Frc consts  --     0.0000                 0.0000                 0.0000
 IR Inten    --    83.7042                22.1762                 3.6005
 Raman Activ --     0.0000                 0.0000                 0.0000
 Depolar     --     0.0000                 0.0000                 0.0000
 Atom AN      X      Y      Z        X      Y      Z        X      Y      Z
   1   7    -0.13   0.17   0.11     0.04  -0.04  -0.03     0.00  -0.01   0.00
   2   6     0.01   0.01   0.03     0.00  -0.12   0.24    -0.08   0.05  -0.02
   3   6     0.00  -0.03   0.08    -0.01   0.01  -0.02     0.33  -0.22   0.09
   4   6     0.05  -0.03  -0.00     0.01  -0.01   0.02    -0.06   0.11  -0.26
   5   6    -0.03   0.03  -0.04     0.01  -0.00  -0.01    -0.26   0.11   0.16
   6   6    -0.01  -0.01   0.06    -0.02   0.01  -0.00     0.33  -0.23   0.14
   7   6    -0.01   0.00  -0.01     0.01  -0.01   0.00    -0.06   0.07  -0.06
   8   6     0.01  -0.00  -0.00     0.00   0.00  -0.00    -0.05  -0.00   0.04
   9   6     0.04  -0.02  -0.02    -0.01   0.01   0.01    -0.11   0.14  -0.30
  10   6    -0.04   0.03  -0.02     0.03  -0.02  -0.00    -0.23   0.08   0.19
  11  17    -0.00   0.00  -0.00     0.00  -0.00  -0.00     0.00   0.00   0.00
  12   1    -0.03  -0.36  -0.53     0.00   0.07   0.13     0.01   0.01   0.01
  13   1     0.49  -0.44   0.05    -0.15   0.04   0.04    -0.02   0.03  -0.01
  14   1     0.01   0.04   0.10    -0.02   0.01   0.07    -0.01   0.00  -0.01
  15   1    -0.04  -0.01  -0.15    -0.16  -0.10  -0.63    -0.04   0.01  -0.04
  16   1    -0.02   0.13  -0.05     0.18   0.55  -0.31    -0.01   0.05  -0.02
  17   1    -0.05   0.05  -0.07    -0.01   0.01  -0.01     0.16  -0.13   0.12
  18   1     0.02  -0.00  -0.02    -0.01   0.01   0.00     0.20  -0.11  -0.05
  19   1    -0.01   0.01   0.00    -0.00   0.00   0.00    -0.03   0.01  -0.02
  20   1    -0.00   0.00  -0.00    -0.01   0.00  -0.00     0.02  -0.02   0.00
  21   1     0.00   0.00   0.00    -0.01  -0.00   0.01     0.02   0.02  -0.04
  22   1    -0.00   0.00  -0.02    -0.01   0.00  -0.00     0.15  -0.12   0.12
  23   1     0.03  -0.02  -0.02    -0.03   0.01   0.01     0.20  -0.11  -0.04
                     49                     50                     51
                        a                      a                      a 
 Frequencies --  1577.8361              1606.3945              1676.8771
 Red. masses --    11.5756                11.5084                11.2235
 Frc consts  --     0.0000                 0.0000                 0.0000
 IR Inten    --     0.6522                 1.5442                 0.4348
 Raman Activ --     0.0000                 0.0000                 0.0000
 Depolar     --     0.0000                 0.0000                 0.0000
 Atom AN      X      Y      Z        X      Y      Z        X      Y      Z
   1   7     0.01  -0.01   0.01    -0.00  -0.00   0.00    -0.00   0.00  -0.00
   2   6     0.01   0.00  -0.04    -0.03   0.02  -0.01     0.00  -0.00   0.00
   3   6    -0.14  -0.06   0.51     0.23  -0.15   0.08    -0.03   0.03  -0.03
   4   6    -0.00   0.09  -0.31    -0.31   0.25  -0.23     0.06  -0.05   0.05
   5   6    -0.24   0.07   0.24     0.37  -0.21  -0.02    -0.06   0.04  -0.02
   6   6     0.15   0.05  -0.47    -0.21   0.13  -0.05    -0.07   0.01   0.07
   7   6     0.05  -0.01   0.00     0.10  -0.03  -0.03     0.62  -0.07  -0.32
   8   6    -0.07   0.01   0.03    -0.06   0.00   0.04    -0.54   0.01   0.34
   9   6     0.03  -0.09   0.28     0.32  -0.24   0.19    -0.03   0.04  -0.05
  10   6     0.21  -0.05  -0.25    -0.40   0.22   0.04     0.04  -0.02   0.01
  11  17     0.00   0.00   0.00    -0.00   0.00  -0.00    -0.00  -0.00  -0.00
  12   1     0.01   0.00  -0.01     0.00   0.00  -0.00    -0.00   0.00   0.00
  13   1    -0.00   0.01  -0.00    -0.00   0.00   0.00     0.00  -0.00   0.00
  14   1    -0.00  -0.00  -0.01    -0.00   0.00   0.00     0.00  -0.00   0.00
  15   1    -0.05   0.02  -0.01    -0.03   0.00  -0.02     0.00  -0.00   0.00
  16   1    -0.05   0.05  -0.00    -0.01   0.03  -0.01     0.00  -0.00   0.00
  17   1     0.07  -0.05   0.01     0.05  -0.05   0.09    -0.01   0.01  -0.02
  18   1     0.07  -0.05   0.01    -0.07   0.03   0.05     0.01  -0.00  -0.02
  19   1     0.05  -0.02  -0.01    -0.01   0.02   0.00    -0.08   0.09  -0.05
  20   1     0.03  -0.01   0.01     0.02  -0.01   0.01     0.12  -0.10   0.07
  21   1    -0.01   0.01  -0.02    -0.00   0.01  -0.01    -0.02   0.10  -0.12
  22   1    -0.07   0.04  -0.01    -0.03   0.04  -0.08    -0.01  -0.00  -0.01
  23   1    -0.06   0.04  -0.02     0.09  -0.04  -0.06    -0.00  -0.00   0.01
                     52                     53                     54
                        a                      a                      a 
 Frequencies --  2930.1129              2946.8214              2977.8248
 Red. masses --     1.9534                 1.9826                 1.5262
 Frc consts  --     0.0000                 0.0000                 0.0000
 IR Inten    --  1176.5138               279.7180                 6.5164
 Raman Activ --     0.0000                 0.0000                 0.0000
 Depolar     --     0.0000                 0.0000                 0.0000
 Atom AN      X      Y      Z        X      Y      Z        X      Y      Z
   1   7     0.05   0.22  -0.04    -0.03  -0.14   0.03     0.01   0.03  -0.01
   2   6    -0.06  -0.14  -0.03    -0.11  -0.21  -0.08    -0.04   0.05  -0.20
   3   6     0.00  -0.01   0.00    -0.00  -0.00  -0.00    -0.01   0.01  -0.01
   4   6    -0.00   0.00  -0.00    -0.00  -0.00  -0.00    -0.00  -0.00   0.00
   5   6    -0.00   0.00  -0.00     0.00  -0.00   0.00     0.00  -0.00   0.00
   6   6    -0.00   0.00  -0.00    -0.00   0.00   0.00     0.00  -0.00   0.00
   7   6    -0.00   0.00  -0.00     0.00  -0.00   0.00    -0.00  -0.00   0.00
   8   6    -0.00   0.00  -0.00     0.00  -0.00   0.00     0.00   0.00  -0.00
   9   6    -0.00   0.00   0.00     0.00   0.00  -0.00    -0.00   0.00  -0.00
  10   6    -0.00   0.00  -0.00    -0.00   0.00   0.00     0.00  -0.00   0.00
  11  17    -0.00  -0.01   0.00     0.00   0.01  -0.00    -0.00  -0.00   0.00
  12   1     0.02   0.00   0.01    -0.02   0.00  -0.00     0.00   0.00  -0.00
  13   1    -0.01  -0.00  -0.03     0.00  -0.00   0.01    -0.01  -0.01  -0.02
  14   1    -0.21  -0.77   0.19     0.13   0.47  -0.12    -0.02  -0.09   0.02
  15   1     0.13   0.44  -0.09     0.18   0.60  -0.14    -0.17  -0.51   0.08
  16   1     0.08   0.06   0.18     0.20   0.17   0.43     0.32   0.32   0.66
  17   1     0.00  -0.00   0.00    -0.00   0.00  -0.00     0.00  -0.00  -0.00
  18   1     0.00  -0.00   0.00     0.00   0.00  -0.00    -0.00   0.00  -0.00
  19   1    -0.00  -0.00   0.00     0.00   0.00  -0.00     0.00   0.00  -0.00
  20   1    -0.00  -0.00   0.00    -0.00   0.00  -0.00    -0.00  -0.00   0.00
  21   1     0.00  -0.00   0.00    -0.00   0.00  -0.00     0.00   0.00  -0.00
  22   1     0.00  -0.00  -0.00    -0.00   0.00   0.00    -0.00   0.00   0.00
  23   1     0.00  -0.00   0.00    -0.00  -0.00   0.00    -0.00   0.01  -0.02
                     55                     56                     57
                        a                      a                      a 
 Frequencies --  3099.1400              3107.5950              3118.1470
 Red. masses --     1.8112                 1.7923                 1.7935
 Frc consts  --     0.0000                 0.0000                 0.0000
 IR Inten    --    18.3689                22.1667                12.3619
 Raman Activ --     0.0000                 0.0000                 0.0000
 Depolar     --     0.0000                 0.0000                 0.0000
 Atom AN      X      Y      Z        X      Y      Z        X      Y      Z
   1   7    -0.00   0.00  -0.00    -0.00  -0.00  -0.00     0.00  -0.00  -0.00
   2   6    -0.00   0.00   0.00     0.00  -0.00   0.00     0.00  -0.00   0.00
   3   6    -0.00   0.00  -0.00     0.01  -0.01   0.01     0.00  -0.00  -0.00
   4   6    -0.00   0.00   0.00    -0.01   0.00   0.00     0.08  -0.02  -0.08
   5   6    -0.00   0.01  -0.02    -0.00   0.00  -0.01     0.04  -0.08   0.22
   6   6    -0.00  -0.00   0.01     0.00  -0.00  -0.00     0.01  -0.00   0.00
   7   6    -0.02  -0.15   0.22     0.00   0.00  -0.01    -0.00  -0.01   0.02
   8   6    -0.01   0.02  -0.02    -0.00  -0.00   0.01    -0.00   0.00  -0.00
   9   6     0.00  -0.00  -0.00     0.06  -0.02  -0.06    -0.00   0.00   0.00
  10   6     0.00  -0.00   0.01     0.04  -0.09   0.23     0.00  -0.00   0.01
  11  17    -0.00   0.00  -0.00    -0.00  -0.00  -0.00     0.00   0.00  -0.00
  12   1     0.00  -0.00   0.00    -0.00   0.00  -0.00    -0.00   0.00  -0.00
  13   1    -0.00   0.00  -0.00     0.00   0.00   0.00     0.00   0.00   0.00
  14   1    -0.00  -0.00   0.00     0.00   0.00  -0.00    -0.00  -0.00   0.00
  15   1     0.00   0.00  -0.00     0.00   0.01  -0.00     0.00   0.00  -0.00
  16   1    -0.00  -0.00  -0.00    -0.01  -0.00  -0.01    -0.00  -0.00  -0.00
  17   1     0.01  -0.00  -0.01     0.02  -0.01  -0.02    -0.29   0.08   0.31
  18   1     0.01  -0.03   0.08     0.00  -0.01   0.02    -0.13   0.30  -0.79
  19   1     0.05   0.53  -0.79    -0.00  -0.01   0.02     0.00   0.04  -0.06
  20   1    -0.01  -0.04   0.06     0.00   0.01  -0.02    -0.00  -0.01   0.01
  21   1     0.08  -0.05   0.02    -0.00   0.00   0.00     0.00  -0.00   0.00
  22   1    -0.01   0.00   0.01    -0.22   0.07   0.24     0.01  -0.00  -0.01
  23   1    -0.00   0.01  -0.02    -0.14   0.31  -0.84    -0.01   0.02  -0.05
                     58                     59                     60
                        a                      a                      a 
 Frequencies --  3124.8404              3131.8994              3148.1534
 Red. masses --     1.8612                 1.8698                 1.5502
 Frc consts  --     0.0000                 0.0000                 0.0000
 IR Inten    --    24.7600                28.2310                15.8820
 Raman Activ --     0.0000                 0.0000                 0.0000
 Depolar     --     0.0000                 0.0000                 0.0000
 Atom AN      X      Y      Z        X      Y      Z        X      Y      Z
   1   7     0.00   0.00   0.00    -0.00   0.00   0.00     0.00  -0.00  -0.00
   2   6     0.00   0.00  -0.00    -0.00  -0.00   0.00    -0.00  -0.00  -0.00
   3   6    -0.00   0.00   0.00    -0.01   0.00  -0.00     0.00  -0.00  -0.00
   4   6     0.01  -0.00  -0.01    -0.16   0.04   0.18     0.00  -0.00  -0.00
   5   6    -0.00  -0.00   0.01     0.02  -0.05   0.12    -0.00  -0.00   0.00
   6   6     0.01  -0.00   0.00     0.00  -0.00  -0.00     0.00  -0.00   0.00
   7   6     0.00   0.00  -0.00    -0.00  -0.00   0.01     0.01   0.01  -0.02
   8   6    -0.01  -0.01   0.02    -0.00   0.00  -0.00    -0.21   0.05   0.06
   9   6     0.17  -0.05  -0.19     0.00  -0.00  -0.00    -0.01   0.00   0.01
  10   6    -0.02   0.03  -0.09     0.00   0.00  -0.01     0.00  -0.00   0.00
  11  17     0.00   0.00   0.00    -0.00  -0.00  -0.00    -0.00  -0.00   0.00
  12   1     0.00  -0.00   0.00     0.01  -0.00   0.00    -0.00   0.00  -0.00
  13   1    -0.00  -0.00  -0.00    -0.01  -0.01  -0.02     0.00   0.00   0.00
  14   1    -0.00  -0.00   0.00     0.00  -0.00   0.00     0.00   0.00  -0.00
  15   1    -0.00  -0.00   0.00     0.00   0.00   0.00    -0.00  -0.00   0.00
  16   1     0.00   0.00   0.00    -0.00  -0.00  -0.00     0.00   0.00   0.00
  17   1    -0.02   0.01   0.02     0.57  -0.16  -0.62    -0.00   0.00   0.00
  18   1    -0.00   0.01  -0.02    -0.06   0.15  -0.40    -0.00   0.00  -0.00
  19   1    -0.00  -0.00   0.00     0.00   0.02  -0.02    -0.00  -0.02   0.03
  20   1     0.01   0.04  -0.05    -0.00  -0.01   0.01     0.03   0.29  -0.41
  21   1     0.01  -0.01   0.01     0.01  -0.01   0.00     0.64  -0.47   0.23
  22   1    -0.59   0.18   0.66    -0.01   0.00   0.01     0.03  -0.01  -0.03
  23   1     0.05  -0.11   0.31     0.00  -0.01   0.02    -0.00   0.00  -0.01
                     61                     62                     63
                        a                      a                      a 
 Frequencies --  3178.7214              3203.4420              3232.1035
 Red. masses --     2.0687                 1.8393                 1.6904
 Frc consts  --     0.0000                 0.0000                 0.0000
 IR Inten    --    38.5568                38.4274                34.2823
 Raman Activ --     0.0000                 0.0000                 0.0000
 Depolar     --     0.0000                 0.0000                 0.0000
 Atom AN      X      Y      Z        X      Y      Z        X      Y      Z
   1   7     0.00  -0.00   0.00     0.11   0.08   0.21    -0.19   0.12  -0.05
   2   6     0.00  -0.00  -0.00     0.00   0.00   0.01    -0.00   0.00   0.00
   3   6    -0.00  -0.00   0.00     0.00   0.00   0.00     0.00  -0.00   0.00
   4   6     0.00  -0.00  -0.00     0.00  -0.00  -0.00     0.00  -0.00  -0.00
   5   6    -0.00   0.00  -0.00    -0.00   0.00  -0.00    -0.00   0.00  -0.00
   6   6     0.00  -0.00  -0.00     0.00   0.00  -0.00    -0.00   0.00   0.00
   7   6    -0.00   0.02  -0.03     0.00   0.00  -0.00     0.00   0.00  -0.00
   8   6    -0.08   0.20  -0.22    -0.00   0.00  -0.00    -0.00   0.00  -0.00
   9   6     0.01  -0.00  -0.01    -0.00   0.00   0.00    -0.00   0.00   0.00
  10   6     0.00   0.00  -0.00     0.00  -0.00   0.00     0.00  -0.00   0.00
  11  17     0.00  -0.00   0.00    -0.00  -0.00  -0.00    -0.00  -0.00   0.00
  12   1    -0.00   0.00  -0.00    -0.10   0.08  -0.02     0.79  -0.45   0.30
  13   1     0.00   0.00   0.00    -0.33  -0.44  -0.78    -0.07  -0.05  -0.12
  14   1    -0.00   0.00  -0.00     0.02   0.05   0.01    -0.01   0.05  -0.02
  15   1     0.00   0.00  -0.00     0.00   0.00  -0.00     0.00   0.00  -0.00
  16   1    -0.00   0.00  -0.00    -0.01  -0.01  -0.02     0.00  -0.00  -0.00
  17   1    -0.01   0.00   0.01    -0.01   0.00   0.01    -0.01   0.00   0.01
  18   1     0.00  -0.00   0.01     0.00  -0.00   0.00     0.00  -0.00   0.00
  19   1    -0.00  -0.06   0.09    -0.00  -0.00   0.00     0.00  -0.00   0.00
  20   1    -0.09  -0.45   0.67    -0.00   0.00  -0.00    -0.00  -0.00   0.00
  21   1     0.39  -0.26   0.11     0.00  -0.00   0.00     0.00  -0.00   0.00
  22   1    -0.03   0.01   0.04     0.00  -0.00  -0.00     0.00  -0.00  -0.00
  23   1     0.00  -0.00   0.00    -0.00   0.00  -0.00    -0.00   0.00  -0.00
