      -----------------------------------------------------------      
     |                   =====================                   |     
     |                           x T B                           |     
     |                   =====================                   |     
     |                         S. Grimme                         |     
     |          Mulliken Center for Theoretical Chemistry        |     
     |                    University of Bonn                     |     
      -----------------------------------------------------------      

   * xtb version 6.5.1 (fef0646) compiled by 'conda@b96dff2e9fd6' on 2023-01-04

   xtb is free software: you can redistribute it and/or modify it under
   the terms of the GNU Lesser General Public License as published by
   the Free Software Foundation, either version 3 of the License, or
   (at your option) any later version.
   
   xtb is distributed in the hope that it will be useful,
   but WITHOUT ANY WARRANTY; without even the implied warranty of
   MERCHANTABILITY or FITNESS FOR A PARTICULAR PURPOSE.  See the
   GNU Lesser General Public License for more details.
   
   Cite this work as:
   * C. Bannwarth, E. Caldeweyher, S. Ehlert, A. Hansen, P. Pracht,
     J. Seibert, S. Spicher, S. Grimme, WIREs Comput. Mol. Sci., 2020, 11,
     e01493. DOI: 10.1002/wcms.1493
   
   for GFN2-xTB:
   * C. Bannwarth, S. Ehlert and S. Grimme., J. Chem. Theory Comput., 2019,
     15, 1652-1671. DOI: 10.1021/acs.jctc.8b01176
   for GFN1-xTB:
   * S. Grimme, C. Bannwarth, P. Shushkov, J. Chem. Theory Comput., 2017,
     13, 1989-2009. DOI: 10.1021/acs.jctc.7b00118
   for GFN0-xTB:
   * P. Pracht, E. Caldeweyher, S. Ehlert, S. Grimme, ChemRxiv, 2019, preprint.
     DOI: 10.26434/chemrxiv.8326202.v1
   for GFN-FF:
   * S. Spicher and S. Grimme, Angew. Chem. Int. Ed., 2020, 59, 15665-15673.
     DOI: 10.1002/anie.202004239
   
   for ALPB and GBSA implicit solvation:
   * S. Ehlert, M. Stahn, S. Spicher, S. Grimme, J. Chem. Theory Comput.,
     2021, 17, 4250-4261. DOI: 10.1021/acs.jctc.1c00471
   
   for DFT-D4:
   * E. Caldeweyher, C. Bannwarth and S. Grimme, J. Chem. Phys., 2017,
     147, 034112. DOI: 10.1063/1.4993215
   * E. Caldeweyher, S. Ehlert, A. Hansen, H. Neugebauer, S. Spicher,
     C. Bannwarth and S. Grimme, J. Chem. Phys., 2019, 150, 154122.
     DOI: 10.1063/1.5090222
   * E. Caldeweyher, J.-M. Mewes, S. Ehlert and S. Grimme, Phys. Chem. Chem. Phys.
     2020, 22, 8499-8512. DOI: 10.1039/D0CP00502A
   
   for sTDA-xTB:
   * S. Grimme and C. Bannwarth, J. Chem. Phys., 2016, 145, 054103.
     DOI: 10.1063/1.4959605
   
   in the mass-spec context:
   * V. Asgeirsson, C. Bauer and S. Grimme, Chem. Sci., 2017, 8, 4879.
     DOI: 10.1039/c7sc00601b
   * J. Koopman and S. Grimme, ACS Omega 2019, 4, 12, 15120-15133.
     DOI: 10.1021/acsomega.9b02011
   
   for metadynamics refer to:
   * S. Grimme, J. Chem. Theory Comput., 2019, 155, 2847-2862
     DOI: 10.1021/acs.jctc.9b00143
   
   for SPH calculations refer to:
   * S. Spicher and S. Grimme, J. Chem. Theory Comput., 2021, 17, 1701-1714
     DOI: 10.1021/acs.jctc.0c01306
   
   with help from (in alphabetical order)
   P. Atkinson, C. Bannwarth, F. Bohle, G. Brandenburg, E. Caldeweyher
   M. Checinski, S. Dohm, S. Ehlert, S. Ehrlich, I. Gerasimov, C. Hölzer
   A. Katbashev, J. Koopman, C. Lavigne, S. Lehtola, F. März, M. Müller,
   F. Musil, H. Neugebauer, J. Pisarek, C. Plett, P. Pracht, F. Pultar,
   J. Seibert, P. Shushkov, S. Spicher, M. Stahn, M. Steiner, T. Strunk,
   J. Stückrath, T. Rose, and J. Unsleber
   
 * started run on 2023/01/23 at 14:13:27.804     

           -------------------------------------------------
          |                Calculation Setup                |
           -------------------------------------------------

          program call               : xtb init.xyz --opt -c 1 -u 0 -P 16
          hostname                   : gpg-woodward
          coordinate file            : init.xyz
          omp threads                :                    16

   ID    Z sym.   atoms
    1    7 N      1
    2    6 C      2-10
    3    1 H      11-24

           -------------------------------------------------
          |                 G F N 2 - x T B                 |
           -------------------------------------------------

        Reference                      10.1021/acs.jctc.8b01176
      * Hamiltonian:
        H0-scaling (s, p, d)           1.850000    2.230000    2.230000
        zeta-weighting                 0.500000
      * Dispersion:
        s8                             2.700000
        a1                             0.520000
        a2                             5.000000
        s9                             5.000000
      * Repulsion:
        kExp                           1.500000    1.000000
        rExp                           1.000000
      * Coulomb:
        alpha                          2.000000
        third order                    shell-resolved
        anisotropic                    true
        a3                             3.000000
        a5                             4.000000
        cn-shift                       1.200000
        cn-exp                         4.000000
        max-rad                        5.000000


          ...................................................
          :                      SETUP                      :
          :.................................................:
          :  # basis functions                  54          :
          :  # atomic orbitals                  54          :
          :  # shells                           34          :
          :  # electrons                        54          :
          :  max. iterations                   250          :
          :  Hamiltonian                  GFN2-xTB          :
          :  restarted?                      false          :
          :  GBSA solvation                  false          :
          :  PC potential                    false          :
          :  electronic temp.          300.0000000     K    :
          :  accuracy                    1.0000000          :
          :  -> integral cutoff          0.2500000E+02      :
          :  -> integral neglect         0.1000000E-07      :
          :  -> SCF convergence          0.1000000E-05 Eh   :
          :  -> wf. convergence          0.1000000E-03 e    :
          :  Broyden damping             0.4000000          :
          ...................................................

 iter      E             dE          RMSdq      gap      omega  full diag
   1    -29.2397653 -0.292398E+02  0.390E+00    4.60       0.0  T
   2    -29.3519934 -0.112228E+00  0.223E+00    4.67       1.0  T
   3    -29.3549120 -0.291855E-02  0.120E+00    4.67       1.0  T
   4    -29.3530274  0.188460E-02  0.401E-01    4.65       1.0  T
   5    -29.3560136 -0.298621E-02  0.104E-01    4.66       1.0  T
   6    -29.3560256 -0.119962E-04  0.359E-02    4.66       1.0  T
   7    -29.3560330 -0.740288E-05  0.916E-03    4.66       2.2  T
   8    -29.3560340 -0.965007E-06  0.388E-03    4.66       5.3  T
   9    -29.3560340 -0.644718E-07  0.141E-03    4.66      14.5  T
  10    -29.3560340 -0.771862E-08  0.574E-04    4.66      35.6  T
  11    -29.3560340 -0.487271E-08  0.230E-04    4.66      88.7  T

   *** convergence criteria satisfied after 11 iterations ***

         #    Occupation            Energy/Eh            Energy/eV
      -------------------------------------------------------------
         1        2.0000           -0.8991593             -24.4674
       ...           ...                  ...                  ...
        21        2.0000           -0.5700815             -15.5127
        22        2.0000           -0.5662361             -15.4081
        23        2.0000           -0.5617897             -15.2871
        24        2.0000           -0.5196984             -14.1417
        25        2.0000           -0.5162203             -14.0471
        26        2.0000           -0.4979185             -13.5491
        27        2.0000           -0.4941739             -13.4472 (HOMO)
        28                         -0.3228455              -8.7851 (LUMO)
        29                         -0.3205134              -8.7216
        30                         -0.2626022              -7.1458
        31                         -0.1964239              -5.3450
        32                         -0.1472987              -4.0082
       ...                                ...                  ...
        54                          0.5358598              14.5815
      -------------------------------------------------------------
                  HL-Gap            0.1713284 Eh            4.6621 eV
             Fermi-level           -0.4085097 Eh          -11.1161 eV

 SCC (total)                   0 d,  0 h,  0 min,  0.027 sec
 SCC setup                      ...        0 min,  0.000 sec (  0.805%)
 Dispersion                     ...        0 min,  0.001 sec (  1.901%)
 classical contributions        ...        0 min,  0.000 sec (  0.418%)
 integral evaluation            ...        0 min,  0.001 sec (  4.392%)
 iterations                     ...        0 min,  0.022 sec ( 81.923%)
 molecular gradient             ...        0 min,  0.002 sec (  8.664%)
 printout                       ...        0 min,  0.000 sec (  0.694%)

         :::::::::::::::::::::::::::::::::::::::::::::::::::::
         ::                     SUMMARY                     ::
         :::::::::::::::::::::::::::::::::::::::::::::::::::::
         :: total energy             -28.881128777570 Eh    ::
         :: gradient norm              0.029726885855 Eh/a0 ::
         :: HOMO-LUMO gap              4.662082221890 eV    ::
         ::.................................................::
         :: SCC energy               -29.356034031767 Eh    ::
         :: -> isotropic ES            0.109539036846 Eh    ::
         :: -> anisotropic ES         -0.008456122974 Eh    ::
         :: -> anisotropic XC          0.022002485505 Eh    ::
         :: -> dispersion             -0.017221628887 Eh    ::
         :: repulsion energy           0.474766233617 Eh    ::
         :: add. restraining           0.000000000000 Eh    ::
         :: total charge               1.000000000000 e     ::
         :::::::::::::::::::::::::::::::::::::::::::::::::::::

      ----------------------------------------------------------- 
     |                   =====================                   |
     |                        A N C O P T                        |
     |                   =====================                   |
     |               Approximate Normal Coordinate               |
     |                Rational Function Optimizer                |
      ----------------------------------------------------------- 

          ...................................................
          :                      SETUP                      :
          :.................................................:
          :   optimization level            normal          :
          :   max. optcycles                   200          :
          :   ANC micro-cycles                  20          :
          :   degrees of freedom                66          :
          :.................................................:
          :   RF solver                   davidson          :
          :   write xtbopt.log                true          :
          :   linear?                        false          :
          :   energy convergence         0.5000000E-05 Eh   :
          :   grad. convergence          0.1000000E-02 Eh/α :
          :   maximium RF displ.         1.0000000          :
          :   Hlow (freq-cutoff)         0.1000000E-01      :
          :   Hmax (freq-cutoff)         5.0000000          :
          :   S6 in model hess.         20.0000000          :
          ...................................................

generating ANC from model Hessian ...
Using Lindh-Hessian (1995)
 Shifting diagonal of input Hessian by    9.0349738264916078E-003
 Lowest  eigenvalues of input Hessian
    0.000000    0.000000    0.000000    0.000000    0.000000    0.000000
    0.010000    0.010287    0.011413    0.014654    0.016864    0.019781
    0.022744    0.023111    0.026070    0.028822    0.032896    0.035328
 Highest eigenvalues
    1.439334    1.526095    1.558301    1.832024    1.930501    1.945309


........................................................................
.............................. CYCLE    1 ..............................
........................................................................
   1    -29.3560340 -0.293560E+02  0.111E-04    4.66       0.0  T
   2    -29.3560340 -0.217746E-10  0.678E-05    4.66     301.3  T
   3    -29.3560340  0.950351E-11  0.401E-05    4.66     509.2  T
     SCC iter.                  ...        0 min,  0.006 sec
     gradient                   ...        0 min,  0.002 sec
 * total energy  :   -28.8811288 Eh     change       -0.2341984E-09 Eh
   gradient norm :     0.0297271 Eh/α   predicted     0.0000000E+00 (-100.00%)
   displ. norm   :     0.1889928 α      lambda       -0.3672729E-02
   maximum displ.:     0.0831320 α      in ANC's #17, #20, #39, ...

........................................................................
.............................. CYCLE    2 ..............................
........................................................................
   1    -29.3758358 -0.293758E+02  0.165E-01    4.75       0.0  T
   2    -29.3758456 -0.972462E-05  0.968E-02    4.76       1.0  T
   3    -29.3758463 -0.769370E-06  0.868E-03    4.76       2.4  T
   4    -29.3758466 -0.309146E-06  0.287E-03    4.76       7.1  T
   5    -29.3758466 -0.669862E-08  0.130E-03    4.76      15.7  T
   6    -29.3758466 -0.119031E-07  0.475E-04    4.76      43.0  T
   7    -29.3758467 -0.146894E-08  0.163E-04    4.76     125.0  T
     SCC iter.                  ...        0 min,  0.013 sec
     gradient                   ...        0 min,  0.002 sec
 * total energy  :   -28.8833875 Eh     change       -0.2258751E-02 Eh
   gradient norm :     0.0095773 Eh/α   predicted    -0.1901974E-02 ( -15.80%)
   displ. norm   :     0.1303232 α      lambda       -0.4815708E-03
   maximum displ.:     0.0640369 α      in ANC's #5, #4, #1, ...

........................................................................
.............................. CYCLE    3 ..............................
........................................................................
   1    -29.3815792 -0.293816E+02  0.615E-02    4.78       0.0  T
   2    -29.3815815 -0.239471E-05  0.356E-02    4.78       1.0  T
   3    -29.3815811  0.457621E-06  0.672E-03    4.78       3.0  T
   4    -29.3815817 -0.638445E-06  0.237E-03    4.78       8.6  T
   5    -29.3815819 -0.127208E-06  0.883E-04    4.78      23.1  T
   6    -29.3815819 -0.250023E-08  0.252E-04    4.78      81.0  T
     SCC iter.                  ...        0 min,  0.011 sec
     gradient                   ...        0 min,  0.002 sec
 * total energy  :   -28.8836824 Eh     change       -0.2948750E-03 Eh
   gradient norm :     0.0033875 Eh/α   predicted    -0.2448773E-03 ( -16.96%)
   displ. norm   :     0.1048361 α      lambda       -0.1137728E-03
   maximum displ.:     0.0583969 α      in ANC's #2, #1, #5, ...

........................................................................
.............................. CYCLE    4 ..............................
........................................................................
   1    -29.3821204 -0.293821E+02  0.365E-02    4.77       0.0  T
   2    -29.3821209 -0.551606E-06  0.213E-02    4.77       1.0  T
   3    -29.3821200  0.928934E-06  0.619E-03    4.77       3.3  T
   4    -29.3821211 -0.112556E-05  0.928E-04    4.77      22.0  T
   5    -29.3821211 -0.104200E-07  0.382E-04    4.77      53.5  T
   6    -29.3821211 -0.213060E-09  0.143E-04    4.77     142.8  T
     SCC iter.                  ...        0 min,  0.011 sec
     gradient                   ...        0 min,  0.002 sec
 * total energy  :   -28.8837643 Eh     change       -0.8191140E-04 Eh
   gradient norm :     0.0017678 Eh/α   predicted    -0.5751200E-04 ( -29.79%)
   displ. norm   :     0.1681006 α      lambda       -0.6992099E-04
   maximum displ.:     0.1091844 α      in ANC's #2, #1, #4, ...

........................................................................
.............................. CYCLE    5 ..............................
........................................................................
   1    -29.3812828 -0.293813E+02  0.598E-02    4.76       0.0  T
   2    -29.3812834 -0.587404E-06  0.352E-02    4.76       1.0  T
   3    -29.3812817  0.171138E-05  0.783E-03    4.76       2.6  T
   4    -29.3812837 -0.202392E-05  0.930E-04    4.76      22.0  T
   5    -29.3812837 -0.432168E-08  0.422E-04    4.76      48.4  T
   6    -29.3812837 -0.584052E-09  0.159E-04    4.76     128.1  T
     SCC iter.                  ...        0 min,  0.011 sec
     gradient                   ...        0 min,  0.002 sec
 * total energy  :   -28.8838291 Eh     change       -0.6477072E-04 Eh
   gradient norm :     0.0025359 Eh/α   predicted    -0.3542729E-04 ( -45.30%)
   displ. norm   :     0.0657028 α      lambda       -0.3384552E-04
   maximum displ.:     0.0480863 α      in ANC's #2, #1, #4, ...

........................................................................
.............................. CYCLE    6 ..............................
........................................................................
   1    -29.3811076 -0.293811E+02  0.278E-02    4.76       0.0  T
   2    -29.3811077 -0.913817E-07  0.163E-02    4.76       1.3  T
   3    -29.3811075  0.205710E-06  0.287E-03    4.76       7.1  T
   4    -29.3811078 -0.247679E-06  0.371E-04    4.76      55.1  T
   5    -29.3811078 -0.870418E-09  0.186E-04    4.76     109.9  T
     SCC iter.                  ...        0 min,  0.009 sec
     gradient                   ...        0 min,  0.002 sec
 * total energy  :   -28.8838607 Eh     change       -0.3163872E-04 Eh
   gradient norm :     0.0020543 Eh/α   predicted    -0.1700395E-04 ( -46.26%)
   displ. norm   :     0.1324224 α      lambda       -0.7223457E-04
   maximum displ.:     0.0939185 α      in ANC's #2, #1, #5, ...

........................................................................
.............................. CYCLE    7 ..............................
........................................................................
   1    -29.3809271 -0.293809E+02  0.606E-02    4.77       0.0  T
   2    -29.3809275 -0.478406E-06  0.354E-02    4.77       1.0  T
   3    -29.3809263  0.126104E-05  0.702E-03    4.77       2.9  T
   4    -29.3809278 -0.149964E-05  0.787E-04    4.77      25.9  T
   5    -29.3809278 -0.388647E-08  0.391E-04    4.77      52.3  T
   6    -29.3809278 -0.284377E-09  0.142E-04    4.77     143.5  T
     SCC iter.                  ...        0 min,  0.010 sec
     gradient                   ...        0 min,  0.002 sec
 * total energy  :   -28.8839236 Eh     change       -0.6285046E-04 Eh
   gradient norm :     0.0011358 Eh/α   predicted    -0.3675112E-04 ( -41.53%)
   displ. norm   :     0.3325638 α      lambda       -0.9390405E-04
   maximum displ.:     0.2357184 α      in ANC's #2, #1, #5, ...

........................................................................
.............................. CYCLE    8 ..............................
........................................................................
   1    -29.3802552 -0.293803E+02  0.149E-01    4.77       0.0  T
   2    -29.3802576 -0.238871E-05  0.871E-02    4.77       1.0  T
   3    -29.3802502  0.734741E-05  0.168E-02    4.77       1.2  T
   4    -29.3802589 -0.870821E-05  0.174E-03    4.77      11.8  T
   5    -29.3802589 -0.113778E-07  0.883E-04    4.77      23.1  T
   6    -29.3802589 -0.156681E-08  0.302E-04    4.77      67.7  T
     SCC iter.                  ...        0 min,  0.010 sec
     gradient                   ...        0 min,  0.002 sec
 * total energy  :   -28.8840297 Eh     change       -0.1061015E-03 Eh
   gradient norm :     0.0030806 Eh/α   predicted    -0.4926737E-04 ( -53.57%)
   displ. norm   :     0.2024874 α      lambda       -0.6642147E-04
   maximum displ.:     0.1448806 α      in ANC's #2, #1, #5, ...

........................................................................
.............................. CYCLE    9 ..............................
........................................................................
   1    -29.3804195 -0.293804E+02  0.864E-02    4.77       0.0  T
   2    -29.3804202 -0.719751E-06  0.506E-02    4.77       1.0  T
   3    -29.3804175  0.274741E-05  0.101E-02    4.77       2.0  T
   4    -29.3804207 -0.323286E-05  0.882E-04    4.77      23.1  T
   5    -29.3804207 -0.946379E-09  0.422E-04    4.77      48.4  T
   6    -29.3804207 -0.979806E-09  0.111E-04    4.77     184.4  T
     SCC iter.                  ...        0 min,  0.010 sec
     gradient                   ...        0 min,  0.002 sec
 * total energy  :   -28.8840886 Eh     change       -0.5895858E-04 Eh
   gradient norm :     0.0029339 Eh/α   predicted    -0.3457368E-04 ( -41.36%)
   displ. norm   :     0.2738981 α      lambda       -0.8674235E-04
   maximum displ.:     0.1970128 α      in ANC's #2, #1, #5, ...

........................................................................
.............................. CYCLE   10 ..............................
........................................................................
   1    -29.3807772 -0.293808E+02  0.115E-01    4.77       0.0  T
   2    -29.3807785 -0.128713E-05  0.672E-02    4.77       1.0  T
   3    -29.3807736  0.494118E-05  0.136E-02    4.77       1.5  T
   4    -29.3807794 -0.581493E-05  0.119E-03    4.77      17.2  T
   5    -29.3807794 -0.111283E-08  0.529E-04    4.77      38.6  T
   6    -29.3807794 -0.187462E-08  0.148E-04    4.77     137.5  T
     SCC iter.                  ...        0 min,  0.009 sec
     gradient                   ...        0 min,  0.002 sec
 * total energy  :   -28.8841596 Eh     change       -0.7094164E-04 Eh
   gradient norm :     0.0017828 Eh/α   predicted    -0.4663951E-04 ( -34.26%)
   displ. norm   :     0.3788256 α      lambda       -0.5925250E-04
   maximum displ.:     0.2797561 α      in ANC's #2, #1, #5, ...

........................................................................
.............................. CYCLE   11 ..............................
........................................................................
   1    -29.3808081 -0.293808E+02  0.158E-01    4.76       0.0  T
   2    -29.3808109 -0.282027E-05  0.927E-02    4.76       1.0  T
   3    -29.3807999  0.110219E-04  0.204E-02    4.76       1.0  T
   4    -29.3808128 -0.129528E-04  0.165E-03    4.76      12.4  T
   5    -29.3808128 -0.323223E-08  0.769E-04    4.76      26.5  T
   6    -29.3808128 -0.331151E-08  0.225E-04    4.76      90.7  T
     SCC iter.                  ...        0 min,  0.008 sec
     gradient                   ...        0 min,  0.001 sec
 * total energy  :   -28.8842150 Eh     change       -0.5539005E-04 Eh
   gradient norm :     0.0014624 Eh/α   predicted    -0.3151612E-04 ( -43.10%)
   displ. norm   :     0.0974464 α      lambda       -0.1374794E-04
   maximum displ.:     0.0799309 α      in ANC's #2, #1, #3, ...

........................................................................
.............................. CYCLE   12 ..............................
........................................................................
   1    -29.3819099 -0.293819E+02  0.407E-02    4.77       0.0  T
   2    -29.3819101 -0.246469E-06  0.239E-02    4.77       1.0  T
   3    -29.3819092  0.890813E-06  0.582E-03    4.77       3.5  T
   4    -29.3819103 -0.105134E-05  0.474E-04    4.77      43.1  T
   5    -29.3819103 -0.515055E-09  0.244E-04    4.77      83.6  T
   6    -29.3819103 -0.306244E-10  0.561E-05    4.77     363.7  T
     SCC iter.                  ...        0 min,  0.008 sec
     gradient                   ...        0 min,  0.001 sec
 * total energy  :   -28.8842302 Eh     change       -0.1520557E-04 Eh
   gradient norm :     0.0010328 Eh/α   predicted    -0.6904902E-05 ( -54.59%)
   displ. norm   :     0.1300662 α      lambda       -0.1674527E-04
   maximum displ.:     0.1120645 α      in ANC's #2, #3, #5, ...

........................................................................
.............................. CYCLE   13 ..............................
........................................................................
   1    -29.3821626 -0.293822E+02  0.552E-02    4.77       0.0  T
   2    -29.3821631 -0.506294E-06  0.323E-02    4.77       1.0  T
   3    -29.3821611  0.199676E-05  0.887E-03    4.77       2.3  T
   4    -29.3821635 -0.236051E-05  0.562E-04    4.77      36.3  T
   5    -29.3821635 -0.433069E-09  0.287E-04    4.77      71.2  T
   6    -29.3821635 -0.327962E-09  0.727E-05    4.77     280.8  T
     SCC iter.                  ...        0 min,  0.008 sec
     gradient                   ...        0 min,  0.001 sec
 * total energy  :   -28.8842519 Eh     change       -0.2169220E-04 Eh
   gradient norm :     0.0009516 Eh/α   predicted    -0.8436849E-05 ( -61.11%)
   displ. norm   :     0.1155124 α      lambda       -0.1794442E-04
   maximum displ.:     0.0945859 α      in ANC's #2, #3, #5, ...

........................................................................
.............................. CYCLE   14 ..............................
........................................................................
   1    -29.3818876 -0.293819E+02  0.451E-02    4.77       0.0  T
   2    -29.3818879 -0.308717E-06  0.265E-02    4.77       1.0  T
   3    -29.3818868  0.112464E-05  0.663E-03    4.77       3.1  T
   4    -29.3818881 -0.133241E-05  0.565E-04    4.77      36.1  T
   5    -29.3818881 -0.364693E-09  0.278E-04    4.77      73.5  T
   6    -29.3818881 -0.430155E-09  0.768E-05    4.77     265.6  T
     SCC iter.                  ...        0 min,  0.008 sec
     gradient                   ...        0 min,  0.001 sec
 * total energy  :   -28.8842759 Eh     change       -0.2405815E-04 Eh
   gradient norm :     0.0010468 Eh/α   predicted    -0.9025723E-05 ( -62.48%)
   displ. norm   :     0.1322112 α      lambda       -0.2127002E-04
   maximum displ.:     0.0983235 α      in ANC's #2, #3, #1, ...

........................................................................
.............................. CYCLE   15 ..............................
........................................................................
   1    -29.3816667 -0.293817E+02  0.472E-02    4.77       0.0  T
   2    -29.3816671 -0.408483E-06  0.278E-02    4.77       1.0  T
   3    -29.3816655  0.156146E-05  0.786E-03    4.77       2.6  T
   4    -29.3816674 -0.185021E-05  0.558E-04    4.77      36.6  T
   5    -29.3816674 -0.451802E-09  0.285E-04    4.77      71.6  T
   6    -29.3816674 -0.451298E-09  0.657E-05    4.77     310.7  T
     SCC iter.                  ...        0 min,  0.008 sec
     gradient                   ...        0 min,  0.001 sec
 * total energy  :   -28.8843042 Eh     change       -0.2827675E-04 Eh
   gradient norm :     0.0011965 Eh/α   predicted    -0.1071936E-04 ( -62.09%)
   displ. norm   :     0.1775267 α      lambda       -0.2605659E-04
   maximum displ.:     0.1262498 α      in ANC's #2, #3, #1, ...

........................................................................
.............................. CYCLE   16 ..............................
........................................................................
   1    -29.3812827 -0.293813E+02  0.602E-02    4.77       0.0  T
   2    -29.3812832 -0.511893E-06  0.355E-02    4.77       1.0  T
   3    -29.3812813  0.189787E-05  0.856E-03    4.77       2.4  T
   4    -29.3812835 -0.224374E-05  0.765E-04    4.77      26.7  T
   5    -29.3812835 -0.423313E-09  0.373E-04    4.77      54.8  T
   6    -29.3812835 -0.107026E-08  0.852E-05    4.77     239.7  T
     SCC iter.                  ...        0 min,  0.008 sec
     gradient                   ...        0 min,  0.001 sec
 * total energy  :   -28.8843370 Eh     change       -0.3283758E-04 Eh
   gradient norm :     0.0013304 Eh/α   predicted    -0.1321238E-04 ( -59.76%)
   displ. norm   :     0.2191660 α      lambda       -0.2667984E-04
   maximum displ.:     0.1562771 α      in ANC's #2, #3, #1, ...

........................................................................
.............................. CYCLE   17 ..............................
........................................................................
   1    -29.3807599 -0.293808E+02  0.744E-02    4.77       0.0  T
   2    -29.3807608 -0.879036E-06  0.438E-02    4.77       1.0  T
   3    -29.3807572  0.362083E-05  0.118E-02    4.77       1.7  T
   4    -29.3807615 -0.426521E-05  0.854E-04    4.77      23.9  T
   5    -29.3807615  0.408562E-10  0.403E-04    4.77      50.7  T
   6    -29.3807615 -0.140941E-08  0.948E-05    4.77     215.3  T
     SCC iter.                  ...        0 min,  0.008 sec
     gradient                   ...        0 min,  0.001 sec
 * total energy  :   -28.8843666 Eh     change       -0.2952106E-04 Eh
   gradient norm :     0.0015996 Eh/α   predicted    -0.1362507E-04 ( -53.85%)
   displ. norm   :     0.2143260 α      lambda       -0.2089368E-04
   maximum displ.:     0.1584905 α      in ANC's #2, #3, #1, ...

........................................................................
.............................. CYCLE   18 ..............................
........................................................................
   1    -29.3808149 -0.293808E+02  0.726E-02    4.77       0.0  T
   2    -29.3808156 -0.675726E-06  0.428E-02    4.77       1.0  T
   3    -29.3808132  0.247352E-05  0.971E-03    4.77       2.1  T
   4    -29.3808161 -0.291914E-05  0.886E-04    4.77      23.0  T
   5    -29.3808161 -0.923752E-09  0.428E-04    4.77      47.7  T
   6    -29.3808161 -0.118180E-08  0.121E-04    4.77     169.2  T
     SCC iter.                  ...        0 min,  0.008 sec
     gradient                   ...        0 min,  0.001 sec
 * total energy  :   -28.8843865 Eh     change       -0.1995408E-04 Eh
   gradient norm :     0.0014405 Eh/α   predicted    -0.1066392E-04 ( -46.56%)
   displ. norm   :     0.1634162 α      lambda       -0.1195377E-04
   maximum displ.:     0.1268285 α      in ANC's #2, #3, #1, ...

........................................................................
.............................. CYCLE   19 ..............................
........................................................................
   1    -29.3812863 -0.293813E+02  0.579E-02    4.77       0.0  T
   2    -29.3812868 -0.560409E-06  0.340E-02    4.77       1.0  T
   3    -29.3812846  0.217706E-05  0.937E-03    4.77       2.2  T
   4    -29.3812872 -0.257394E-05  0.647E-04    4.77      31.5  T
   5    -29.3812872 -0.436042E-09  0.336E-04    4.77      60.7  T
   6    -29.3812872 -0.525393E-09  0.939E-05    4.77     217.3  T
     SCC iter.                  ...        0 min,  0.008 sec
     gradient                   ...        0 min,  0.001 sec
 * total energy  :   -28.8843963 Eh     change       -0.9780622E-05 Eh
   gradient norm :     0.0011591 Eh/α   predicted    -0.6050971E-05 ( -38.13%)
   displ. norm   :     0.0892675 α      lambda       -0.6201570E-05
   maximum displ.:     0.0750798 α      in ANC's #2, #1, #3, ...

........................................................................
.............................. CYCLE   20 ..............................
........................................................................
   1    -29.3817779 -0.293818E+02  0.340E-02    4.77       0.0  T
   2    -29.3817781 -0.164565E-06  0.201E-02    4.77       1.0  T
   3    -29.3817774  0.617701E-06  0.477E-03    4.77       4.3  T
   4    -29.3817782 -0.726384E-06  0.422E-04    4.77      48.3  T
   5    -29.3817782 -0.448168E-09  0.183E-04    4.77     111.6  T
     SCC iter.                  ...        0 min,  0.007 sec
     gradient                   ...        0 min,  0.001 sec
 * total energy  :   -28.8844014 Eh     change       -0.5124897E-05 Eh
   gradient norm :     0.0009412 Eh/α   predicted    -0.3112225E-05 ( -39.27%)
   displ. norm   :     0.0778278 α      lambda       -0.4523438E-05
   maximum displ.:     0.0701912 α      in ANC's #2, #1, #3, ...
 * RMSD in coord.:     0.5385297 α      energy gain  -0.3272640E-02 Eh

generating ANC from model Hessian ...
Using Lindh-Hessian (1995)
 Shifting diagonal of input Hessian by    9.0151642161118341E-003
 Lowest  eigenvalues of input Hessian
    0.000000    0.000000    0.000000    0.000000    0.000000    0.000000
    0.010000    0.010433    0.011504    0.014474    0.017337    0.020010
    0.022619    0.024468    0.027742    0.029441    0.033684    0.036604
 Highest eigenvalues
    1.427837    1.583050    1.608559    1.895998    2.002126    2.022629


........................................................................
.............................. CYCLE   21 ..............................
........................................................................
   1    -29.3820259 -0.293820E+02  0.314E-02    4.77       0.0  T
   2    -29.3820260 -0.119682E-06  0.184E-02    4.77       1.1  T
   3    -29.3820256  0.468579E-06  0.431E-03    4.77       4.7  T
   4    -29.3820261 -0.553034E-06  0.339E-04    4.77      60.2  T
   5    -29.3820261 -0.117950E-11  0.164E-04    4.77     124.5  T
     SCC iter.                  ...        0 min,  0.007 sec
     gradient                   ...        0 min,  0.002 sec
 * total energy  :   -28.8844059 Eh     change       -0.4474120E-05 Eh
   gradient norm :     0.0008655 Eh/α   predicted     0.0000000E+00 (-100.00%)
   displ. norm   :     0.0200353 α      lambda       -0.7623981E-06
   maximum displ.:     0.0156880 α      in ANC's #3, #2, #4, ...

   *** GEOMETRY OPTIMIZATION CONVERGED AFTER 21 ITERATIONS ***

------------------------------------------------------------------------
 total energy gain   :        -0.0032771 Eh       -2.0564 kcal/mol
 total RMSD          :         0.5385297 a0        0.2850 Å
 total power (kW/mol):        -0.4097172 (step)  -30.3971 (real)
------------------------------------------------------------------------

 ANCopt (total)                0 d,  0 h,  0 min,  0.283 sec
 optimizer setup                ...        0 min,  0.000 sec (  0.037%)
 model hessian                  ...        0 min,  0.017 sec (  5.994%)
 ANC generation                 ...        0 min,  0.004 sec (  1.521%)
 coordinate transformation      ...        0 min,  0.000 sec (  0.173%)
 single point calculation       ...        0 min,  0.254 sec ( 89.852%)
 optimization log               ...        0 min,  0.002 sec (  0.743%)
 hessian update                 ...        0 min,  0.001 sec (  0.232%)
 rational function              ...        0 min,  0.002 sec (  0.628%)

================
 final structure:
================
24
 xtb: 6.5.1 (fef0646)
N            0.88131248368763        2.32216541182728        0.35539998547341
C            2.37528234682575        2.23012524623746        0.29591984148973
C            2.86045839480379        0.94002280842376        0.93903481945954
C            4.39350343972565        0.95276611364833        1.04575013918610
C            4.86831944610481        2.04631224542085        1.96738151752085
C            4.70578402734874        1.91625093027462        3.34197178369096
C            5.12311564416412        2.91959479516670        4.19793831885690
C            5.71023377383673        4.06643634807731        3.68875673563045
C            5.87942134662217        4.20346726189697        2.32195987730124
C            5.45679724491680        3.20006584120212        1.46604513495182
H            0.53988797460941        3.18443272465783       -0.08656561077881
H            0.57534030820136        2.30857736696466        1.33724905851669
H            0.46209017275109        1.51391185484257       -0.12296439481032
H            2.79969591651451        3.08465484036678        0.82605263633313
H            2.68323913419881        2.27603946549091       -0.74897847614394
H            2.54476665557468        0.07786187712011        0.34993104690316
H            2.44473093642802        0.84852231338626        1.94431668854254
H            4.82720401500311        1.08331224377173        0.05390733199150
H            4.71909433262689       -0.01397233345902        1.43073307203427
H            4.26658925377551        1.01490675324355        3.74519717466996
H            5.00006231419970        2.80184876577190        5.26368351734661
H            6.04426130229909        4.84526977288706        4.35625960088117
H            6.34777170220509        5.08864017222749        1.92018966631399
H            5.60442783357744        3.30700718055367        0.40008053463887

 Bond Distances (Angstroems)
 ---------------------------
N1-C2=1.4980         N1-H11=1.0273        N1-H12=1.0285        N1-H13=1.0285        C2-N1=1.4980         C2-C3=1.5210         
C2-H14=1.0915        C2-H15=1.0903        C3-C2=1.5210         C3-C4=1.5368         C3-H16=1.0909        C3-H17=1.0917        
C4-C3=1.5368         C4-C5=1.5069         C4-H18=1.0904        C4-H19=1.0903        C5-C4=1.5069         C5-C6=1.3903         
C5-C10=1.3888        C6-C5=1.3903         C6-C7=1.3833         C6-H20=1.0807        C7-C6=1.3833         C7-C8=1.3854         
C7-H21=1.0793        C8-C7=1.3854         C8-C9=1.3840         C8-H22=1.0788        C9-C8=1.3840         C9-C10=1.3849        
C9-H23=1.0790        C10-C5=1.3888        C10-C9=1.3849        C10-H24=1.0814       H11-N1=1.0273        H12-N1=1.0285        
H13-N1=1.0285        H14-C2=1.0915        H15-C2=1.0903        H16-C3=1.0909        H17-C3=1.0917        H18-C4=1.0904        
H19-C4=1.0903        H20-C6=1.0807        H21-C7=1.0793        H22-C8=1.0788        H23-C9=1.0790        H24-C10=1.0814       
 C  H  Rav=1.0858 sigma=0.0055  Rmin=1.0788  Rmax=1.0917    11
 C  C  Rav=1.4313 sigma=0.0643  Rmin=1.3833  Rmax=1.5368     9
 N  H  Rav=1.0281 sigma=0.0006  Rmin=1.0273  Rmax=1.0285     3
 N  C  Rav=1.4980 sigma=0.0000  Rmin=1.4980  Rmax=1.4980     1

 selected bond angles (degree)
 --------------------
H11-N1-C2=111.47               H12-N1-C2=109.50               H12-N1-H11=108.84              H13-N1-C2=109.86               
H13-N1-H11=108.91              H13-N1-H12=108.20              C3-C2-N1=110.70                H14-C2-N1=108.69               
H14-C2-C3=109.55               H15-C2-N1=108.49               H15-C2-C3=110.54               H15-C2-H14=108.82              
C4-C3-C2=109.91                H16-C3-C2=110.47               H16-C3-C4=109.43               H17-C3-C2=109.81               
H17-C3-C4=108.46               H17-C3-H16=108.71              C5-C4-C3=111.27                H18-C4-C3=109.55               
H18-C4-C5=110.13               H19-C4-C3=108.36               H19-C4-C5=109.47               H19-C4-H18=107.97              
C6-C5-C4=120.00                C10-C5-C4=121.04               C10-C5-C6=118.96               C7-C6-C5=120.58                
H20-C6-C5=119.63               H20-C6-C7=119.78               C8-C7-C6=120.06                H21-C7-C6=119.83               
H21-C7-C8=120.10               C9-C8-C7=119.78                H22-C8-C7=120.10               H22-C8-C9=120.11               
C10-C9-C8=120.09               H23-C9-C8=120.13               H23-C9-C10=119.78              C9-C10-C5=120.54               
H24-C10-C5=119.72              H24-C10-C9=119.73              

 selected dihedral angles (degree)
 ---------------------------------
C3-C2-N1-H11=180.71           C3-C2-N1-H12= 60.22           C3-C2-N1-H13=301.52           H14-C2-N1-H11= 60.35          
H14-C2-N1-H12=299.86          H14-C2-N1-H13=181.16          H15-C2-N1-H11=302.16          H15-C2-N1-H12=181.68          
H15-C2-N1-H13= 62.98          C4-C3-C2-N1=187.87            C4-C3-C2-H14=307.72           C4-C3-C2-H15= 67.63           
H16-C3-C2-N1= 67.01           H16-C3-C2-H14=186.86          H16-C3-C2-H15=306.77          H17-C3-C2-N1=307.11           
H17-C3-C2-H14= 66.96          H17-C3-C2-H15=186.87          C5-C4-C3-C2= 64.30            C5-C4-C3-H16=185.78           
C5-C4-C3-H17=304.23           H18-C4-C3-C2=302.28           H18-C4-C3-H16= 63.77          H18-C4-C3-H17=182.22          
H19-C4-C3-C2=184.71           H19-C4-C3-H16=306.19          H19-C4-C3-H17= 64.65          C6-C5-C4-C3= 73.43            
C6-C5-C4-H18=195.11           C6-C5-C4-H19=313.68           C10-C5-C4-C3=254.20           C10-C5-C4-H18= 15.87          
C10-C5-C4-H19=134.44          C7-C6-C5-C4=180.76            C7-C6-C5-C10=  0.00           H20-C6-C5-C4=  1.92           
H20-C6-C5-C10=181.17          C8-C7-C6-C5=359.93            C8-C7-C6-H20=178.76           H21-C7-C6-C5=180.61           
H21-C7-C6-H20=359.44          C9-C8-C7-C6=359.90            C9-C8-C7-H21=179.22           H22-C8-C7-C6=180.57           
H22-C8-C7-H21=359.89          C10-C9-C8-C7=  0.33           C10-C9-C8-H22=179.66          H23-C9-C8-C7=180.80           
H23-C9-C8-H22=  0.13          C9-C10-C5-C4=179.46           C9-C10-C5-C6=  0.22           H24-C10-C5-C4=358.22          
H24-C10-C5-C6=178.97          C5-C10-C9-C8=359.61           C5-C10-C9-H23=179.14          H24-C10-C9-C8=180.86          
H24-C10-C9-H23=  0.38         
           -------------------------------------------------
          |                Final Singlepoint                |
           -------------------------------------------------

          ...................................................
          :                      SETUP                      :
          :.................................................:
          :  # basis functions                  54          :
          :  # atomic orbitals                  54          :
          :  # shells                           34          :
          :  # electrons                        54          :
          :  max. iterations                   250          :
          :  Hamiltonian                  GFN2-xTB          :
          :  restarted?                      false          :
          :  GBSA solvation                  false          :
          :  PC potential                    false          :
          :  electronic temp.          300.0000000     K    :
          :  accuracy                    1.0000000          :
          :  -> integral cutoff          0.2500000E+02      :
          :  -> integral neglect         0.1000000E-07      :
          :  -> SCF convergence          0.1000000E-05 Eh   :
          :  -> wf. convergence          0.1000000E-03 e    :
          :  Broyden damping             0.4000000          :
          ...................................................

 iter      E             dE          RMSdq      gap      omega  full diag
   1    -29.3820261 -0.293820E+02  0.446E-05    4.77       0.0  T
   2    -29.3820261 -0.110170E-10  0.266E-05    4.77     766.3  T
   3    -29.3820261 -0.504841E-11  0.156E-05    4.77    1312.0  T

   *** convergence criteria satisfied after 3 iterations ***

         #    Occupation            Energy/Eh            Energy/eV
      -------------------------------------------------------------
         1        2.0000           -0.8959045             -24.3788
       ...           ...                  ...                  ...
        21        2.0000           -0.5735285             -15.6065
        22        2.0000           -0.5699354             -15.5087
        23        2.0000           -0.5675209             -15.4430
        24        2.0000           -0.5227499             -14.2247
        25        2.0000           -0.5189620             -14.1217
        26        2.0000           -0.5033707             -13.6974
        27        2.0000           -0.4998049             -13.6004 (HOMO)
        28                         -0.3243906              -8.8271 (LUMO)
        29                         -0.3218130              -8.7570
        30                         -0.2643290              -7.1928
        31                         -0.1941952              -5.2843
        32                         -0.1603534              -4.3634
       ...                                ...                  ...
        54                          0.5647834              15.3685
      -------------------------------------------------------------
                  HL-Gap            0.1754144 Eh            4.7733 eV
             Fermi-level           -0.4120977 Eh          -11.2138 eV

 SCC (total)                   0 d,  0 h,  0 min,  0.007 sec
 SCC setup                      ...        0 min,  0.000 sec (  1.076%)
 Dispersion                     ...        0 min,  0.000 sec (  2.658%)
 classical contributions        ...        0 min,  0.000 sec (  0.506%)
 integral evaluation            ...        0 min,  0.001 sec (  9.246%)
 iterations                     ...        0 min,  0.004 sec ( 60.711%)
 molecular gradient             ...        0 min,  0.002 sec ( 22.634%)
 printout                       ...        0 min,  0.000 sec (  1.239%)

         :::::::::::::::::::::::::::::::::::::::::::::::::::::
         ::                     SUMMARY                     ::
         :::::::::::::::::::::::::::::::::::::::::::::::::::::
         :: total energy             -28.884405891992 Eh    ::
         :: gradient norm              0.000865353303 Eh/a0 ::
         :: HOMO-LUMO gap              4.773268398983 eV    ::
         ::.................................................::
         :: SCC energy               -29.382026110506 Eh    ::
         :: -> isotropic ES            0.108949587926 Eh    ::
         :: -> anisotropic ES         -0.009903824075 Eh    ::
         :: -> anisotropic XC          0.021338762006 Eh    ::
         :: -> dispersion             -0.017465104707 Eh    ::
         :: repulsion energy           0.497461830488 Eh    ::
         :: add. restraining           0.000000000000 Eh    ::
         :: total charge               1.000000000000 e     ::
         :::::::::::::::::::::::::::::::::::::::::::::::::::::

           -------------------------------------------------
          |                Property Printout                |
           -------------------------------------------------

    * Orbital Energies and Occupations

         #    Occupation            Energy/Eh            Energy/eV
      -------------------------------------------------------------
         1        2.0000           -0.8959045             -24.3788
       ...           ...                  ...                  ...
        15        2.0000           -0.6334585             -17.2373
        16        2.0000           -0.6224298             -16.9372
        17        2.0000           -0.6129175             -16.6783
        18        2.0000           -0.6010237             -16.3547
        19        2.0000           -0.5920782             -16.1113
        20        2.0000           -0.5762395             -15.6803
        21        2.0000           -0.5735285             -15.6065
        22        2.0000           -0.5699354             -15.5087
        23        2.0000           -0.5675209             -15.4430
        24        2.0000           -0.5227499             -14.2247
        25        2.0000           -0.5189620             -14.1217
        26        2.0000           -0.5033707             -13.6974
        27        2.0000           -0.4998049             -13.6004 (HOMO)
        28                         -0.3243906              -8.8271 (LUMO)
        29                         -0.3218130              -8.7570
        30                         -0.2643290              -7.1928
        31                         -0.1941952              -5.2843
        32                         -0.1603534              -4.3634
        33                         -0.1009625              -2.7473
        34                         -0.1002419              -2.7277
        35                         -0.0514234              -1.3993
        36                         -0.0258204              -0.7026
        37                         -0.0110014              -0.2994
        38                         -0.0028944              -0.0788
       ...                                ...                  ...
        54                          0.5647834              15.3685
      -------------------------------------------------------------
                  HL-Gap            0.1754144 Eh            4.7733 eV
             Fermi-level           -0.4120977 Eh          -11.2138 eV

     #   Z          covCN         q      C6AA      α(0)
     1   7 N        3.483    -0.128    23.762     7.240
     2   6 C        3.732    -0.035    21.284     6.585
     3   6 C        3.803    -0.077    21.973     6.674
     4   6 C        3.809    -0.074    21.912     6.663
     5   6 C        2.970    -0.002    28.068     8.690
     6   6 C        2.924    -0.042    29.041     8.838
     7   6 C        2.919    -0.027    28.682     8.782
     8   6 C        2.920    -0.027    28.672     8.781
     9   6 C        2.919    -0.028    28.699     8.785
    10   6 C        2.924    -0.046    29.140     8.853
    11   1 H        0.859     0.269     0.812     1.412
    12   1 H        0.859     0.272     0.804     1.405
    13   1 H        0.859     0.272     0.804     1.405
    14   1 H        0.924     0.112     1.682     2.028
    15   1 H        0.924     0.106     1.731     2.058
    16   1 H        0.924     0.061     2.183     2.311
    17   1 H        0.924     0.062     2.170     2.304
    18   1 H        0.924     0.055     2.262     2.352
    19   1 H        0.924     0.072     2.060     2.244
    20   1 H        0.926     0.034     2.532     2.489
    21   1 H        0.926     0.046     2.370     2.407
    22   1 H        0.926     0.049     2.337     2.390
    23   1 H        0.926     0.046     2.377     2.411
    24   1 H        0.925     0.030     2.586     2.515

 Mol. C6AA /au·bohr⁶  :       4889.659574
 Mol. C8AA /au·bohr⁸  :     113336.243312
 Mol. α(0) /au        :        109.620080


Wiberg/Mayer (AO) data.
largest (>0.10) Wiberg bond orders for each atom

 ---------------------------------------------------------------------------
     #   Z sym  total        # sym  WBO       # sym  WBO       # sym  WBO
 ---------------------------------------------------------------------------
     1   7 N    3.675 --     2 C    0.918    11 H    0.913    13 H    0.910
                            12 H    0.910
     2   6 C    3.882 --     3 C    1.009    15 H    0.967    14 H    0.961
                             1 N    0.918
     3   6 C    3.981 --     2 C    1.009     4 C    0.983    16 H    0.974
                            17 H    0.971
     4   6 C    3.986 --     5 C    1.006     3 C    0.983    18 H    0.974
                            19 H    0.965
     5   6 C    3.987 --    10 C    1.417     6 C    1.411     4 C    1.006
                             8 C    0.110
     6   6 C    3.992 --     7 C    1.448     5 C    1.411    20 H    0.969
                             9 C    0.112
     7   6 C    3.991 --     6 C    1.448     8 C    1.435    21 H    0.970
                            10 C    0.110
     8   6 C    3.991 --     9 C    1.443     7 C    1.435    22 H    0.970
                             5 C    0.110
     9   6 C    3.991 --     8 C    1.443    10 C    1.439    23 H    0.970
                             6 C    0.112
    10   6 C    3.991 --     9 C    1.439     5 C    1.417    24 H    0.969
                             7 C    0.110
    11   1 H    0.927 --     1 N    0.913
    12   1 H    0.926 --     1 N    0.910
    13   1 H    0.926 --     1 N    0.910
    14   1 H    0.988 --     2 C    0.961
    15   1 H    0.989 --     2 C    0.967
    16   1 H    0.996 --     3 C    0.974
    17   1 H    0.996 --     3 C    0.971
    18   1 H    0.997 --     4 C    0.974
    19   1 H    0.994 --     4 C    0.965
    20   1 H    0.999 --     6 C    0.969
    21   1 H    0.998 --     7 C    0.970
    22   1 H    0.997 --     8 C    0.970
    23   1 H    0.998 --     9 C    0.970
    24   1 H    0.999 --    10 C    0.969
 ---------------------------------------------------------------------------

Topologies differ in total number of bonds
Writing topology from bond orders to xtbtopo.mol

molecular dipole:
                 x           y           z       tot (Debye)
 q only:        2.662       4.297       1.047
   full:        2.406       4.329       1.006      12.844
molecular quadrupole (traceless):
                xx          xy          yy          xz          yz          zz
 q only:        0.495      18.262      12.191       8.282       7.887     -12.686
  q+dip:       -5.147      19.337      14.191       7.175       7.726      -9.044
   full:       -2.442      17.666      13.411       7.577       7.608     -10.968

           -------------------------------------------------
          |                Geometry Summary                 |
           -------------------------------------------------

      molecular mass/u    :      136.2144968
   center of mass at/Å    :        4.1002291       2.4530298       1.8881628
  moments of inertia/u·Å² :        0.2090494E+03   0.6934734E+03   0.7167786E+03
rotational constants/cm⁻¹ :        0.8063948E-01   0.2430898E-01   0.2351861E-01

 * 23 selected distances

     #   Z          #   Z                                           value/Å
     1   7 N        2   6 C                                       1.4979839
     2   6 C        3   6 C                                       1.5209725
     3   6 C        4   6 C                                       1.5368078 (max)
     5   6 C        6   6 C                                       1.3902635
     6   6 C        7   6 C                                       1.3833090
     7   6 C        8   6 C                                       1.3853590
     8   6 C        9   6 C                                       1.3840289
     5   6 C       10   6 C                                       1.3888096
     9   6 C       10   6 C                                       1.3849245
     1   7 N       11   1 H                                       1.0273312 (min)
     1   7 N       12   1 H                                       1.0285093
     1   7 N       13   1 H                                       1.0285202
     2   6 C       14   1 H                                       1.0915075
     2   6 C       15   1 H                                       1.0903019
     3   6 C       16   1 H                                       1.0908832
     3   6 C       17   1 H                                       1.0916930
     4   6 C       18   1 H                                       1.0903627
     4   6 C       19   1 H                                       1.0903232
     6   6 C       20   1 H                                       1.0806962
     7   6 C       21   1 H                                       1.0792679
     8   6 C       22   1 H                                       1.0787568
     9   6 C       23   1 H                                       1.0790286
    10   6 C       24   1 H                                       1.0814398

 * 4 distinct bonds (by element types)

   Z      Z             #   av. dist./Å        max./Å        min./Å
   1 H    6 C          11     1.0858419     1.0916930     1.0787568
   6 C    6 C           8     1.4218093     1.5368078     1.3833090
   1 H    7 N           3     1.0281202     1.0285202     1.0273312
   6 C    7 N           1     1.4979839     1.4979839     1.4979839


optimized geometry written to: xtbopt.xyz


           -------------------------------------------------
          | TOTAL ENERGY              -28.884405891992 Eh   |
          | GRADIENT NORM               0.000865353303 Eh/α |
          | HOMO-LUMO GAP               4.773268398983 eV   |
           -------------------------------------------------

------------------------------------------------------------------------
 * finished run on 2023/01/23 at 14:13:28.147     
------------------------------------------------------------------------
 total:
 * wall-time:     0 d,  0 h,  0 min,  0.343 sec
 *  cpu-time:     0 d,  0 h,  0 min, 34.538 sec
 * ratio c/w:   100.669 speedup
 SCF:
 * wall-time:     0 d,  0 h,  0 min,  0.027 sec
 *  cpu-time:     0 d,  0 h,  0 min,  3.803 sec
 * ratio c/w:   141.913 speedup
 ANC optimizer:
 * wall-time:     0 d,  0 h,  0 min,  0.291 sec
 *  cpu-time:     0 d,  0 h,  0 min, 27.450 sec
 * ratio c/w:    94.295 speedup

