 Entering Gaussian System
 *********************************************
 Gaussian 98:
 frequency output generated by the xtb code
 *********************************************
                         Standard orientation:
 --------------------------------------------------------------------
  Center     Atomic     Atomic              Coordinates (Angstroms)
  Number     Number      Type              X           Y           Z
 --------------------------------------------------------------------
    1          7             0       -2.336050   -0.003878    0.070098
    2          6             0       -0.939053   -0.386006   -0.300336
    3          6             0        0.124674    0.474140    0.381739
    4          6             0        1.455601    0.114592    0.052965
    5          6             0        2.590858   -0.196944   -0.229689
    6          1             0       -3.019565   -0.601075   -0.403868
    7          1             0       -2.525436    0.967483   -0.191823
    8          1             0       -2.478837   -0.095765    1.079799
    9          1             0       -0.821207   -0.318508   -1.389097
   10          1             0       -0.773388   -1.440626   -0.046725
   11          1             0        0.003647    0.416143    1.470029
   12          1             0       -0.029842    1.527861    0.121077
   13          1             0        3.592216   -0.470520   -0.477522
 --------------------------------------------------------------------
     1 basis functions        1 primitive gaussians
     1 alpha electrons        1 beta electrons

 Harmonic frequencies (cm**-1), IR intensities (km*mol⁻¹),
 Raman scattering activities (A**4/amu), Raman depolarization ratios,
 reduced masses (AMU), force constants (mDyne/A) and normal coordinates:
                      1                      2                      3
                        a                      a                      a 
 Frequencies --    71.4592               144.2094               202.9490
 Red. masses --     5.4421                 4.6505                 9.6702
 Frc consts  --     0.0000                 0.0000                 0.0000
 IR Inten    --     3.9645                 4.7851                 9.0975
 Raman Activ --     0.0000                 0.0000                 0.0000
 Depolar     --     0.0000                 0.0000                 0.0000
 Atom AN      X      Y      Z        X      Y      Z        X      Y      Z
   1   7    -0.01   0.21  -0.25    -0.00   0.19  -0.19     0.04  -0.25  -0.24
   2   6     0.00  -0.14   0.17    -0.00  -0.29   0.31     0.25   0.18   0.19
   3   6     0.01  -0.27   0.32    -0.00  -0.12   0.09     0.04   0.34   0.30
   4   6    -0.00   0.07  -0.09     0.00   0.04  -0.06    -0.07   0.13   0.10
   5   6    -0.00   0.14  -0.16     0.01   0.14  -0.13    -0.30  -0.33  -0.28
   6   1     0.01  -0.15   0.18    -0.02   0.34  -0.39     0.12  -0.12  -0.15
   7   1    -0.04  -0.05  -0.44     0.25   0.18   0.23    -0.05  -0.08  -0.06
   8   1     0.03   0.45  -0.03    -0.23  -0.26  -0.11    -0.09  -0.10  -0.08
   9   1     0.08  -0.09   0.05     0.07  -0.22   0.09     0.14   0.05   0.06
  10   1    -0.07  -0.04   0.11    -0.08  -0.06   0.22     0.13   0.06   0.07
  11   1     0.07  -0.21   0.09     0.04   0.02   0.03     0.02   0.10   0.08
  12   1    -0.06  -0.05   0.22    -0.05  -0.05  -0.02     0.01   0.10   0.08
  13   1    -0.00   0.07  -0.09     0.01   0.06  -0.06    -0.12  -0.17  -0.14
                      4                      5                      6
                        a                      a                      a 
 Frequencies --   328.7004               343.7525               459.5215
 Red. masses --     9.8974                10.3160                11.5530
 Frc consts  --     0.0000                 0.0000                 0.0000
 IR Inten    --    11.4609                 0.8441                 8.7878
 Raman Activ --     0.0000                 0.0000                 0.0000
 Depolar     --     0.0000                 0.0000                 0.0000
 Atom AN      X      Y      Z        X      Y      Z        X      Y      Z
   1   7     0.43   0.13   0.10     0.01   0.05  -0.06     0.35   0.03   0.01
   2   6     0.14  -0.28  -0.25     0.00   0.00  -0.02     0.21   0.03   0.02
   3   6    -0.23  -0.07  -0.05    -0.01   0.04  -0.05    -0.10   0.12   0.11
   4   6    -0.09   0.35   0.27     0.01  -0.49   0.61    -0.47  -0.49  -0.38
   5   6    -0.32  -0.13  -0.09    -0.01   0.30  -0.37    -0.15   0.25   0.20
   6   1    -0.03   0.13   0.12     0.00  -0.02   0.03     0.06   0.03   0.02
   7   1     0.22   0.06   0.05    -0.01  -0.00  -0.06     0.12   0.01   0.01
   8   1     0.23   0.07   0.05     0.02   0.06  -0.01     0.12   0.01   0.01
   9   1     0.03  -0.08  -0.07     0.01  -0.02  -0.00     0.10   0.01   0.01
  10   1     0.03  -0.08  -0.07    -0.01   0.01   0.02     0.10   0.02   0.01
  11   1    -0.14  -0.04  -0.02    -0.15   0.19  -0.02     0.02   0.03   0.03
  12   1    -0.15  -0.03  -0.02     0.13  -0.01  -0.20     0.02   0.04   0.02
  13   1    -0.10  -0.05  -0.04    -0.00   0.10  -0.13    -0.06   0.03   0.03
                      7                      8                      9
                        a                      a                      a 
 Frequencies --   744.0963               770.9067               794.5468
 Red. masses --     2.5044                 2.7152                 1.9826
 Frc consts  --     0.0000                 0.0000                 0.0000
 IR Inten    --    41.7085                15.1584                25.9512
 Raman Activ --     0.0000                 0.0000                 0.0000
 Depolar     --     0.0000                 0.0000                 0.0000
 Atom AN      X      Y      Z        X      Y      Z        X      Y      Z
   1   7    -0.00  -0.01   0.01     0.07   0.02   0.01    -0.00   0.04  -0.05
   2   6     0.00   0.02  -0.03     0.03   0.08   0.07    -0.01   0.12  -0.15
   3   6    -0.00   0.07  -0.08    -0.01  -0.05  -0.03    -0.00   0.10  -0.12
   4   6     0.00  -0.06   0.07    -0.05   0.00  -0.00     0.00  -0.05   0.07
   5   6    -0.01   0.21  -0.27    -0.18  -0.25  -0.19     0.00  -0.07   0.09
   6   1    -0.00   0.00   0.00     0.07  -0.03  -0.03     0.00  -0.05   0.07
   7   1    -0.02   0.00   0.03    -0.02  -0.01  -0.01    -0.22   0.02   0.16
   8   1     0.03  -0.03   0.00    -0.01  -0.01  -0.00     0.23  -0.16   0.00
   9   1    -0.01  -0.14  -0.02     0.02   0.03   0.02     0.03  -0.46  -0.06
  10   1     0.02   0.04   0.13     0.01   0.02   0.01    -0.02   0.14   0.44
  11   1     0.06  -0.23  -0.03     0.04   0.00  -0.00    -0.07  -0.31  -0.06
  12   1    -0.05   0.07   0.22     0.04  -0.01  -0.02     0.08   0.12   0.29
  13   1     0.02  -0.51   0.67     0.30   0.68   0.53    -0.00   0.21  -0.25
                     10                     11                     12
                        a                      a                      a 
 Frequencies --   865.7385               876.2996              1008.0523
 Red. masses --     2.9309                 5.1659                11.0500
 Frc consts  --     0.0000                 0.0000                 0.0000
 IR Inten    --    23.0649                61.0806                 8.6670
 Raman Activ --     0.0000                 0.0000                 0.0000
 Depolar     --     0.0000                 0.0000                 0.0000
 Atom AN      X      Y      Z        X      Y      Z        X      Y      Z
   1   7     0.03   0.15  -0.15     0.30   0.15   0.15     0.45  -0.23  -0.21
   2   6    -0.01   0.05  -0.02    -0.01   0.16   0.13    -0.65   0.21   0.20
   3   6    -0.00  -0.23   0.21    -0.06  -0.27  -0.28    -0.13   0.04   0.02
   4   6    -0.01   0.09  -0.09    -0.05   0.05   0.07     0.09   0.00   0.01
   5   6    -0.01   0.04  -0.03    -0.09   0.06   0.05     0.13  -0.03  -0.03
   6   1     0.07  -0.15   0.11     0.53  -0.25  -0.25    -0.00   0.02   0.01
   7   1    -0.43   0.02   0.23    -0.23  -0.06  -0.09     0.22  -0.03  -0.03
   8   1     0.38  -0.23  -0.01    -0.32  -0.05  -0.02     0.22  -0.02  -0.03
   9   1     0.25  -0.02   0.02    -0.11   0.03   0.02    -0.11   0.05   0.06
  10   1    -0.27  -0.02   0.04    -0.06   0.03   0.02    -0.12   0.06   0.04
  11   1     0.02   0.30   0.07    -0.05  -0.12  -0.08     0.01   0.03   0.02
  12   1    -0.03  -0.15  -0.29    -0.05  -0.07  -0.02     0.00   0.03   0.04
  13   1    -0.01  -0.12   0.11    -0.08  -0.08  -0.08     0.03  -0.03  -0.02
                     13                     14                     15
                        a                      a                      a 
 Frequencies --  1063.0018              1064.7565              1117.1882
 Red. masses --     8.3516                 5.0067                 8.4236
 Frc consts  --     0.0000                 0.0000                 0.0000
 IR Inten    --    19.1700                10.0159                17.9641
 Raman Activ --     0.0000                 0.0000                 0.0000
 Depolar     --     0.0000                 0.0000                 0.0000
 Atom AN      X      Y      Z        X      Y      Z        X      Y      Z
   1   7    -0.06  -0.16  -0.09     0.02  -0.10   0.16    -0.11  -0.06  -0.06
   2   6     0.06   0.26   0.15    -0.02   0.19  -0.29     0.30   0.33   0.27
   3   6     0.33  -0.39  -0.25    -0.05  -0.19   0.34    -0.48  -0.23  -0.18
   4   6    -0.15   0.15   0.09     0.02   0.10  -0.17     0.10  -0.03  -0.03
   5   6    -0.35   0.12   0.10     0.06   0.00  -0.04     0.21  -0.05  -0.05
   6   1    -0.20   0.10   0.07     0.03   0.04  -0.07    -0.16   0.07   0.07
   7   1     0.16   0.01   0.01     0.16  -0.03  -0.10     0.07   0.02   0.05
   8   1     0.11   0.04   0.00    -0.20   0.08   0.02     0.08   0.04   0.01
   9   1     0.03   0.02   0.04    -0.10  -0.26  -0.10     0.18   0.12   0.09
  10   1     0.07   0.09   0.08     0.09   0.13   0.22     0.20   0.11   0.09
  11   1     0.23  -0.03  -0.05    -0.44   0.19   0.05    -0.25  -0.07  -0.06
  12   1     0.36  -0.07  -0.09     0.33  -0.05  -0.17    -0.26  -0.08  -0.05
  13   1    -0.15  -0.04  -0.01     0.03  -0.07   0.10     0.06  -0.04  -0.03
                     16                     17                     18
                        a                      a                      a 
 Frequencies --  1205.8687              1261.2892              1296.2523
 Red. masses --     3.6594                 1.7765                 4.0931
 Frc consts  --     0.0000                 0.0000                 0.0000
 IR Inten    --     8.7718                 9.0109                28.2633
 Raman Activ --     0.0000                 0.0000                 0.0000
 Depolar     --     0.0000                 0.0000                 0.0000
 Atom AN      X      Y      Z        X      Y      Z        X      Y      Z
   1   7    -0.00   0.16  -0.18    -0.00  -0.12   0.12    -0.11   0.12   0.12
   2   6    -0.00  -0.26   0.30     0.03  -0.01   0.05    -0.19  -0.14  -0.11
   3   6    -0.00   0.04  -0.04     0.01   0.11  -0.14    -0.39  -0.05  -0.04
   4   6    -0.00   0.07  -0.09    -0.00   0.03  -0.04     0.05   0.04   0.03
   5   6     0.00   0.01  -0.01    -0.00   0.00  -0.00     0.08  -0.02  -0.02
   6   1     0.01  -0.07   0.08    -0.01   0.03  -0.03     0.18  -0.10  -0.09
   7   1    -0.17   0.05   0.11     0.10  -0.03  -0.05     0.08   0.02  -0.07
   8   1     0.16  -0.11  -0.04    -0.07   0.06   0.03     0.07  -0.06   0.03
   9   1    -0.26   0.18   0.06     0.54   0.11   0.08     0.43   0.06   0.03
  10   1     0.27  -0.09  -0.17    -0.61  -0.12  -0.07     0.35   0.04   0.04
  11   1    -0.46  -0.11  -0.06    -0.31  -0.14  -0.08     0.38   0.11   0.05
  12   1     0.47   0.10   0.09     0.27   0.10   0.10     0.40   0.09   0.10
  13   1     0.00  -0.03   0.04    -0.00  -0.01   0.01     0.02  -0.03  -0.03
                     19                     20                     21
                        a                      a                      a 
 Frequencies --  1349.7985              1363.5308              1385.6489
 Red. masses --     3.9876                 3.4625                 1.5869
 Frc consts  --     0.0000                 0.0000                 0.0000
 IR Inten    --   130.7407               155.5862               120.2142
 Raman Activ --     0.0000                 0.0000                 0.0000
 Depolar     --     0.0000                 0.0000                 0.0000
 Atom AN      X      Y      Z        X      Y      Z        X      Y      Z
   1   7    -0.28   0.09   0.08    -0.23  -0.07  -0.03    -0.03   0.14  -0.14
   2   6    -0.17   0.00   0.00     0.28   0.06   0.05     0.05   0.05  -0.02
   3   6     0.35   0.01   0.00    -0.26   0.01   0.03    -0.04  -0.00   0.00
   4   6    -0.03  -0.02  -0.02     0.02   0.01   0.01     0.00   0.00   0.00
   5   6    -0.07   0.02   0.01     0.05  -0.01  -0.01     0.01  -0.00  -0.00
   6   1     0.29  -0.21  -0.18     0.26  -0.16  -0.24     0.03  -0.46   0.54
   7   1     0.38   0.05  -0.15     0.26   0.08   0.14     0.42   0.14   0.14
   8   1     0.38  -0.13   0.06     0.35   0.21   0.06    -0.33  -0.31  -0.09
   9   1     0.18   0.01   0.03    -0.41  -0.09  -0.05    -0.03  -0.03  -0.02
  10   1     0.18   0.04  -0.00    -0.35  -0.07  -0.06    -0.11  -0.01  -0.00
  11   1    -0.29  -0.07  -0.05     0.18   0.03   0.04     0.04   0.01   0.01
  12   1    -0.29  -0.07  -0.05     0.18   0.04   0.01     0.01   0.00   0.00
  13   1    -0.02   0.02   0.01     0.02  -0.01  -0.00     0.00  -0.00   0.00
                     22                     23                     24
                        a                      a                      a 
 Frequencies --  1395.0695              1452.2871              1483.4266
 Red. masses --     1.8809                 1.9715                 1.8488
 Frc consts  --     0.0000                 0.0000                 0.0000
 IR Inten    --    93.0586                16.3974                 8.0823
 Raman Activ --     0.0000                 0.0000                 0.0000
 Depolar     --     0.0000                 0.0000                 0.0000
 Atom AN      X      Y      Z        X      Y      Z        X      Y      Z
   1   7    -0.01   0.12   0.13     0.01   0.02   0.01     0.00   0.01   0.01
   2   6     0.15   0.06   0.05    -0.02  -0.00   0.00    -0.05   0.21   0.18
   3   6    -0.10  -0.03  -0.02    -0.10   0.21   0.18    -0.02   0.01   0.01
   4   6     0.01   0.01   0.00     0.01   0.01   0.01     0.00   0.00   0.00
   5   6     0.02  -0.00  -0.00     0.02  -0.00  -0.00     0.01  -0.00  -0.00
   6   1    -0.13   0.16   0.02    -0.01   0.01   0.00    -0.01   0.01   0.01
   7   1     0.02  -0.16  -0.64    -0.00  -0.02  -0.06    -0.04   0.00   0.02
   8   1     0.15  -0.59  -0.02     0.01  -0.06  -0.00    -0.04   0.02   0.00
   9   1    -0.19  -0.04  -0.02     0.02   0.03   0.01     0.15  -0.66  -0.01
  10   1    -0.17  -0.03  -0.04     0.02   0.01   0.03     0.12  -0.13  -0.65
  11   1     0.06   0.07   0.01     0.14  -0.66  -0.01     0.01  -0.03   0.00
  12   1     0.06   0.02   0.06     0.12  -0.13  -0.65     0.01  -0.00  -0.02
  13   1     0.01  -0.01  -0.00     0.01  -0.01  -0.01     0.00  -0.00  -0.00
                     25                     26                     27
                        a                      a                      a 
 Frequencies --  2230.2795              2920.0845              2949.6131
 Red. masses --    10.9832                 1.9344                 1.4904
 Frc consts  --     0.0000                 0.0000                 0.0000
 IR Inten    --    25.9984                15.2789                31.1743
 Raman Activ --     0.0000                 0.0000                 0.0000
 Depolar     --     0.0000                 0.0000                 0.0000
 Atom AN      X      Y      Z        X      Y      Z        X      Y      Z
   1   7     0.00   0.00   0.00     0.00  -0.00   0.00     0.00   0.00   0.00
   2   6    -0.01  -0.00  -0.00     0.00  -0.03   0.04    -0.01   0.02   0.01
   3   6    -0.13   0.04   0.04    -0.00   0.18  -0.22     0.04  -0.16  -0.13
   4   6     0.73  -0.20  -0.18     0.00   0.00  -0.01     0.02  -0.01  -0.01
   5   6    -0.50   0.14   0.12    -0.00   0.00  -0.00    -0.01   0.00   0.00
   6   1     0.00   0.00   0.00    -0.00  -0.00  -0.00    -0.00  -0.00  -0.00
   7   1    -0.00  -0.00  -0.00     0.00  -0.00  -0.00    -0.00   0.00  -0.00
   8   1    -0.00  -0.00  -0.00    -0.00   0.00   0.00    -0.00  -0.00   0.00
   9   1     0.00  -0.00   0.00     0.01   0.00  -0.12     0.01   0.01  -0.08
  10   1     0.00   0.00  -0.00    -0.02   0.12  -0.02     0.02  -0.12   0.03
  11   1    -0.02   0.01  -0.01    -0.08  -0.02   0.67    -0.07  -0.07   0.67
  12   1    -0.02  -0.00   0.01     0.09  -0.63   0.14    -0.09   0.66  -0.20
  13   1    -0.28   0.08   0.07    -0.00  -0.00   0.00    -0.01   0.00   0.00
                     28                     29                     30
                        a                      a                      a 
 Frequencies --  2959.0024              2982.4998              3200.9938
 Red. masses --     1.9935                 1.5236                 2.6280
 Frc consts  --     0.0000                 0.0000                 0.0000
 IR Inten    --     7.9126                10.0031                 6.8511
 Raman Activ --     0.0000                 0.0000                 0.0000
 Depolar     --     0.0000                 0.0000                 0.0000
 Atom AN      X      Y      Z        X      Y      Z        X      Y      Z
   1   7    -0.00  -0.00  -0.00     0.00   0.00   0.00    -0.00  -0.00  -0.00
   2   6    -0.01   0.19  -0.22     0.05  -0.15  -0.14    -0.00  -0.00  -0.00
   3   6    -0.00   0.04  -0.04     0.00  -0.03  -0.02    -0.00   0.00   0.00
   4   6    -0.00   0.00  -0.00     0.00  -0.00  -0.00     0.10  -0.03  -0.03
   5   6     0.00   0.00  -0.00     0.00   0.00   0.00    -0.35   0.09   0.09
   6   1     0.00   0.00   0.00     0.00  -0.00  -0.00     0.00   0.00   0.00
   7   1    -0.00   0.01  -0.00     0.00  -0.02   0.00     0.00  -0.00   0.00
   8   1     0.00   0.00  -0.01     0.00   0.00  -0.02    -0.00   0.00   0.00
   9   1    -0.07  -0.03   0.64    -0.07  -0.08   0.69     0.00  -0.00   0.00
  10   1     0.10  -0.65   0.15    -0.10   0.63  -0.19    -0.00   0.00  -0.00
  11   1    -0.01  -0.00   0.10    -0.01  -0.01   0.10    -0.00   0.00   0.01
  12   1     0.02  -0.14   0.03    -0.01   0.10  -0.03    -0.00   0.01  -0.00
  13   1     0.00   0.00  -0.00    -0.00   0.00   0.00     0.87  -0.24  -0.21
                     31                     32                     33
                        a                      a                      a 
 Frequencies --  3287.1934              3292.1831              3314.0926
 Red. masses --     2.0590                 2.0504                 1.2820
 Frc consts  --     0.0000                 0.0000                 0.0000
 IR Inten    --   193.4331               174.4282                68.9078
 Raman Activ --     0.0000                 0.0000                 0.0000
 Depolar     --     0.0000                 0.0000                 0.0000
 Atom AN      X      Y      Z        X      Y      Z        X      Y      Z
   1   7     0.10   0.11   0.24     0.05   0.24  -0.13    -0.13   0.06   0.02
   2   6    -0.00   0.00   0.00     0.00   0.01  -0.00    -0.01   0.00   0.00
   3   6    -0.00   0.00  -0.00    -0.00  -0.00   0.00     0.00  -0.00  -0.00
   4   6     0.00   0.00   0.00     0.00   0.00  -0.00     0.00   0.00   0.00
   5   6    -0.00  -0.00  -0.00    -0.00  -0.00   0.00     0.00  -0.00   0.00
   6   1    -0.47  -0.43  -0.33    -0.25  -0.20  -0.19     0.34   0.32   0.26
   7   1     0.02  -0.07   0.04     0.13  -0.68   0.18     0.10  -0.61   0.17
   8   1     0.09   0.07  -0.62    -0.06  -0.03   0.51     0.05   0.06  -0.52
   9   1     0.00   0.00  -0.01    -0.00  -0.00   0.01     0.00   0.00  -0.01
  10   1    -0.00  -0.01   0.00     0.00  -0.01   0.00     0.00  -0.01   0.00
  11   1    -0.00   0.00  -0.00     0.00   0.00  -0.00    -0.00  -0.00   0.00
  12   1     0.00  -0.00   0.00    -0.00  -0.00  -0.00    -0.00   0.00  -0.00
  13   1     0.00  -0.00  -0.00    -0.00  -0.00   0.00    -0.00  -0.00   0.00
