      -----------------------------------------------------------      
     |                   =====================                   |     
     |                           x T B                           |     
     |                   =====================                   |     
     |                         S. Grimme                         |     
     |          Mulliken Center for Theoretical Chemistry        |     
     |                    University of Bonn                     |     
      -----------------------------------------------------------      

   * xtb version 6.5.1 (fef0646) compiled by 'conda@b96dff2e9fd6' on 2023-01-04

   xtb is free software: you can redistribute it and/or modify it under
   the terms of the GNU Lesser General Public License as published by
   the Free Software Foundation, either version 3 of the License, or
   (at your option) any later version.
   
   xtb is distributed in the hope that it will be useful,
   but WITHOUT ANY WARRANTY; without even the implied warranty of
   MERCHANTABILITY or FITNESS FOR A PARTICULAR PURPOSE.  See the
   GNU Lesser General Public License for more details.
   
   Cite this work as:
   * C. Bannwarth, E. Caldeweyher, S. Ehlert, A. Hansen, P. Pracht,
     J. Seibert, S. Spicher, S. Grimme, WIREs Comput. Mol. Sci., 2020, 11,
     e01493. DOI: 10.1002/wcms.1493
   
   for GFN2-xTB:
   * C. Bannwarth, S. Ehlert and S. Grimme., J. Chem. Theory Comput., 2019,
     15, 1652-1671. DOI: 10.1021/acs.jctc.8b01176
   for GFN1-xTB:
   * S. Grimme, C. Bannwarth, P. Shushkov, J. Chem. Theory Comput., 2017,
     13, 1989-2009. DOI: 10.1021/acs.jctc.7b00118
   for GFN0-xTB:
   * P. Pracht, E. Caldeweyher, S. Ehlert, S. Grimme, ChemRxiv, 2019, preprint.
     DOI: 10.26434/chemrxiv.8326202.v1
   for GFN-FF:
   * S. Spicher and S. Grimme, Angew. Chem. Int. Ed., 2020, 59, 15665-15673.
     DOI: 10.1002/anie.202004239
   
   for ALPB and GBSA implicit solvation:
   * S. Ehlert, M. Stahn, S. Spicher, S. Grimme, J. Chem. Theory Comput.,
     2021, 17, 4250-4261. DOI: 10.1021/acs.jctc.1c00471
   
   for DFT-D4:
   * E. Caldeweyher, C. Bannwarth and S. Grimme, J. Chem. Phys., 2017,
     147, 034112. DOI: 10.1063/1.4993215
   * E. Caldeweyher, S. Ehlert, A. Hansen, H. Neugebauer, S. Spicher,
     C. Bannwarth and S. Grimme, J. Chem. Phys., 2019, 150, 154122.
     DOI: 10.1063/1.5090222
   * E. Caldeweyher, J.-M. Mewes, S. Ehlert and S. Grimme, Phys. Chem. Chem. Phys.
     2020, 22, 8499-8512. DOI: 10.1039/D0CP00502A
   
   for sTDA-xTB:
   * S. Grimme and C. Bannwarth, J. Chem. Phys., 2016, 145, 054103.
     DOI: 10.1063/1.4959605
   
   in the mass-spec context:
   * V. Asgeirsson, C. Bauer and S. Grimme, Chem. Sci., 2017, 8, 4879.
     DOI: 10.1039/c7sc00601b
   * J. Koopman and S. Grimme, ACS Omega 2019, 4, 12, 15120-15133.
     DOI: 10.1021/acsomega.9b02011
   
   for metadynamics refer to:
   * S. Grimme, J. Chem. Theory Comput., 2019, 155, 2847-2862
     DOI: 10.1021/acs.jctc.9b00143
   
   for SPH calculations refer to:
   * S. Spicher and S. Grimme, J. Chem. Theory Comput., 2021, 17, 1701-1714
     DOI: 10.1021/acs.jctc.0c01306
   
   with help from (in alphabetical order)
   P. Atkinson, C. Bannwarth, F. Bohle, G. Brandenburg, E. Caldeweyher
   M. Checinski, S. Dohm, S. Ehlert, S. Ehrlich, I. Gerasimov, C. Hölzer
   A. Katbashev, J. Koopman, C. Lavigne, S. Lehtola, F. März, M. Müller,
   F. Musil, H. Neugebauer, J. Pisarek, C. Plett, P. Pracht, F. Pultar,
   J. Seibert, P. Shushkov, S. Spicher, M. Stahn, M. Steiner, T. Strunk,
   J. Stückrath, T. Rose, and J. Unsleber
   
 * started run on 2023/01/23 at 13:45:10.080     

           -------------------------------------------------
          |                Calculation Setup                |
           -------------------------------------------------

          program call               : xtb init.xyz --opt -c 1 -u 0 -P 16
          hostname                   : gpg-woodward
          coordinate file            : init.xyz
          omp threads                :                    16

   ID    Z sym.   atoms
    1    7 N      1
    2    6 C      2-10
    3    1 H      11-22

           -------------------------------------------------
          |                 G F N 2 - x T B                 |
           -------------------------------------------------

        Reference                      10.1021/acs.jctc.8b01176
      * Hamiltonian:
        H0-scaling (s, p, d)           1.850000    2.230000    2.230000
        zeta-weighting                 0.500000
      * Dispersion:
        s8                             2.700000
        a1                             0.520000
        a2                             5.000000
        s9                             5.000000
      * Repulsion:
        kExp                           1.500000    1.000000
        rExp                           1.000000
      * Coulomb:
        alpha                          2.000000
        third order                    shell-resolved
        anisotropic                    true
        a3                             3.000000
        a5                             4.000000
        cn-shift                       1.200000
        cn-exp                         4.000000
        max-rad                        5.000000


          ...................................................
          :                      SETUP                      :
          :.................................................:
          :  # basis functions                  52          :
          :  # atomic orbitals                  52          :
          :  # shells                           32          :
          :  # electrons                        52          :
          :  max. iterations                   250          :
          :  Hamiltonian                  GFN2-xTB          :
          :  restarted?                      false          :
          :  GBSA solvation                  false          :
          :  PC potential                    false          :
          :  electronic temp.          300.0000000     K    :
          :  accuracy                    1.0000000          :
          :  -> integral cutoff          0.2500000E+02      :
          :  -> integral neglect         0.1000000E-07      :
          :  -> SCF convergence          0.1000000E-05 Eh   :
          :  -> wf. convergence          0.1000000E-03 e    :
          :  Broyden damping             0.4000000          :
          ...................................................

 iter      E             dE          RMSdq      gap      omega  full diag
   1    -28.1944541 -0.281945E+02  0.458E+00    3.71       0.0  T
   2    -28.3098594 -0.115405E+00  0.265E+00    3.52       1.0  T
   3    -28.3116913 -0.183188E-02  0.131E+00    3.49       1.0  T
   4    -28.3079249  0.376642E-02  0.587E-01    3.27       1.0  T
   5    -28.3150371 -0.711228E-02  0.109E-01    3.38       1.0  T
   6    -28.3150349  0.225649E-05  0.499E-02    3.38       1.0  T
   7    -28.3150573 -0.224628E-04  0.171E-02    3.38       1.2  T
   8    -28.3150600 -0.271628E-05  0.855E-03    3.38       2.5  T
   9    -28.3150610 -0.920576E-06  0.342E-03    3.38       6.2  T
  10    -28.3150611 -0.927213E-07  0.134E-03    3.38      15.9  T
  11    -28.3150611 -0.595876E-08  0.594E-04    3.38      35.9  T
  12    -28.3150611 -0.310969E-08  0.235E-04    3.38      90.5  T

   *** convergence criteria satisfied after 12 iterations ***

         #    Occupation            Energy/Eh            Energy/eV
      -------------------------------------------------------------
         1        2.0000           -0.8915005             -24.2590
       ...           ...                  ...                  ...
        20        2.0000           -0.5797630             -15.7762
        21        2.0000           -0.5599064             -15.2358
        22        2.0000           -0.5506699             -14.9845
        23        2.0000           -0.5399048             -14.6916
        24        2.0000           -0.5303610             -14.4319
        25        2.0000           -0.5271180             -14.3436
        26        2.0000           -0.4981171             -13.5545 (HOMO)
        27                         -0.3738037             -10.1717 (LUMO)
        28                         -0.3537662              -9.6265
        29                         -0.3027875              -8.2393
        30                         -0.2402002              -6.5362
        31                         -0.2093668              -5.6972
       ...                                ...                  ...
        52                          0.5260322              14.3141
      -------------------------------------------------------------
                  HL-Gap            0.1243134 Eh            3.3827 eV
             Fermi-level           -0.4359604 Eh          -11.8631 eV

 SCC (total)                   0 d,  0 h,  0 min,  0.027 sec
 SCC setup                      ...        0 min,  0.000 sec (  0.724%)
 Dispersion                     ...        0 min,  0.000 sec (  1.378%)
 classical contributions        ...        0 min,  0.000 sec (  0.415%)
 integral evaluation            ...        0 min,  0.001 sec (  3.862%)
 iterations                     ...        0 min,  0.023 sec ( 83.080%)
 molecular gradient             ...        0 min,  0.002 sec (  8.737%)
 printout                       ...        0 min,  0.000 sec (  0.801%)

         :::::::::::::::::::::::::::::::::::::::::::::::::::::
         ::                     SUMMARY                     ::
         :::::::::::::::::::::::::::::::::::::::::::::::::::::
         :: total energy             -27.832578465807 Eh    ::
         :: gradient norm              0.042241356321 Eh/a0 ::
         :: HOMO-LUMO gap              3.382740241018 eV    ::
         ::.................................................::
         :: SCC energy               -28.315061070588 Eh    ::
         :: -> isotropic ES            0.103584412298 Eh    ::
         :: -> anisotropic ES         -0.010153380284 Eh    ::
         :: -> anisotropic XC          0.022853701745 Eh    ::
         :: -> dispersion             -0.016274378602 Eh    ::
         :: repulsion energy           0.482496344017 Eh    ::
         :: add. restraining           0.000000000000 Eh    ::
         :: total charge               1.000000000000 e     ::
         :::::::::::::::::::::::::::::::::::::::::::::::::::::

      ----------------------------------------------------------- 
     |                   =====================                   |
     |                        A N C O P T                        |
     |                   =====================                   |
     |               Approximate Normal Coordinate               |
     |                Rational Function Optimizer                |
      ----------------------------------------------------------- 

          ...................................................
          :                      SETUP                      :
          :.................................................:
          :   optimization level            normal          :
          :   max. optcycles                   200          :
          :   ANC micro-cycles                  20          :
          :   degrees of freedom                60          :
          :.................................................:
          :   RF solver                   davidson          :
          :   write xtbopt.log                true          :
          :   linear?                        false          :
          :   energy convergence         0.5000000E-05 Eh   :
          :   grad. convergence          0.1000000E-02 Eh/α :
          :   maximium RF displ.         1.0000000          :
          :   Hlow (freq-cutoff)         0.1000000E-01      :
          :   Hmax (freq-cutoff)         5.0000000          :
          :   S6 in model hess.         20.0000000          :
          ...................................................

generating ANC from model Hessian ...
Using Lindh-Hessian (1995)
 Shifting diagonal of input Hessian by    8.8736352783765765E-003
 Lowest  eigenvalues of input Hessian
    0.000000    0.000000    0.000000    0.000000    0.000000    0.000000
    0.010000    0.011409    0.013341    0.014510    0.015232    0.019135
    0.021508    0.022969    0.026769    0.031701    0.034004    0.043790
 Highest eigenvalues
    1.509486    1.612411    1.819696    1.850931    1.923663    1.995037


........................................................................
.............................. CYCLE    1 ..............................
........................................................................
   1    -28.3150611 -0.283151E+02  0.622E-05    3.38       0.0  T
   2    -28.3150611 -0.121041E-10  0.408E-05    3.38     522.7  T
   3    -28.3150611 -0.715161E-11  0.282E-05    3.38     757.0  T
     SCC iter.                  ...        0 min,  0.006 sec
     gradient                   ...        0 min,  0.002 sec
 * total energy  :   -27.8325785 Eh     change       -0.9342926E-10 Eh
   gradient norm :     0.0422418 Eh/α   predicted     0.0000000E+00 (-100.00%)
   displ. norm   :     0.1743302 α      lambda       -0.3667301E-02
   maximum displ.:     0.0780330 α      in ANC's #4, #30, #12, ...

........................................................................
.............................. CYCLE    2 ..............................
........................................................................
   1    -28.3373396 -0.283373E+02  0.133E-01    3.41       0.0  T
   2    -28.3373488 -0.924202E-05  0.803E-02    3.41       1.0  T
   3    -28.3373372  0.115727E-04  0.293E-02    3.42       1.0  T
   4    -28.3373518 -0.145232E-04  0.491E-03    3.41       4.3  T
   5    -28.3373519 -0.173534E-06  0.246E-03    3.41       8.7  T
   6    -28.3373520 -0.188013E-07  0.139E-03    3.41      15.3  T
   7    -28.3373520 -0.222282E-07  0.260E-04    3.41      82.1  T
   8    -28.3373520 -0.541910E-09  0.118E-04    3.41     180.0  T
     SCC iter.                  ...        0 min,  0.014 sec
     gradient                   ...        0 min,  0.002 sec
 * total energy  :   -27.8349193 Eh     change       -0.2340874E-02 Eh
   gradient norm :     0.0155203 Eh/α   predicted    -0.1889496E-02 ( -19.28%)
   displ. norm   :     0.1373174 α      lambda       -0.6447557E-03
   maximum displ.:     0.0919428 α      in ANC's #4, #1, #5, ...

........................................................................
.............................. CYCLE    3 ..............................
........................................................................
   1    -28.3447135 -0.283447E+02  0.855E-02    3.40       0.0  T
   2    -28.3447172 -0.374030E-05  0.500E-02    3.40       1.0  T
   3    -28.3447160  0.114997E-05  0.126E-02    3.40       1.7  T
   4    -28.3447177 -0.160630E-05  0.371E-03    3.40       5.8  T
   5    -28.3447178 -0.122939E-06  0.119E-03    3.40      17.9  T
   6    -28.3447178  0.605613E-09  0.682E-04    3.40      31.3  T
   7    -28.3447178 -0.416583E-08  0.217E-04    3.40      98.2  T
     SCC iter.                  ...        0 min,  0.012 sec
     gradient                   ...        0 min,  0.002 sec
 * total energy  :   -27.8353107 Eh     change       -0.3913116E-03 Eh
   gradient norm :     0.0056850 Eh/α   predicted    -0.3285428E-03 ( -16.04%)
   displ. norm   :     0.1160785 α      lambda       -0.1832969E-03
   maximum displ.:     0.0796186 α      in ANC's #4, #1, #5, ...

........................................................................
.............................. CYCLE    4 ..............................
........................................................................
   1    -28.3450845 -0.283451E+02  0.776E-02    3.38       0.0  T
   2    -28.3450862 -0.173672E-05  0.453E-02    3.38       1.0  T
   3    -28.3450835  0.271617E-05  0.137E-02    3.38       1.6  T
   4    -28.3450865 -0.305148E-05  0.323E-03    3.38       6.6  T
   5    -28.3450867 -0.137397E-06  0.108E-03    3.38      19.7  T
   6    -28.3450867 -0.105885E-07  0.557E-04    3.38      38.3  T
   7    -28.3450867 -0.243273E-08  0.163E-04    3.38     130.6  T
     SCC iter.                  ...        0 min,  0.012 sec
     gradient                   ...        0 min,  0.002 sec
 * total energy  :   -27.8354292 Eh     change       -0.1185032E-03 Eh
   gradient norm :     0.0035998 Eh/α   predicted    -0.9288631E-04 ( -21.62%)
   displ. norm   :     0.1438849 α      lambda       -0.1303945E-03
   maximum displ.:     0.0916763 α      in ANC's #4, #1, #3, ...

........................................................................
.............................. CYCLE    5 ..............................
........................................................................
   1    -28.3436705 -0.283437E+02  0.959E-02    3.36       0.0  T
   2    -28.3436718 -0.126133E-05  0.560E-02    3.36       1.0  T
   3    -28.3436686  0.316484E-05  0.138E-02    3.36       1.5  T
   4    -28.3436722 -0.353425E-05  0.265E-03    3.36       8.0  T
   5    -28.3436723 -0.956323E-07  0.952E-04    3.36      22.4  T
   6    -28.3436723 -0.668882E-08  0.494E-04    3.36      43.1  T
     SCC iter.                  ...        0 min,  0.010 sec
     gradient                   ...        0 min,  0.002 sec
 * total energy  :   -27.8355012 Eh     change       -0.7206631E-04 Eh
   gradient norm :     0.0036741 Eh/α   predicted    -0.6654726E-04 (  -7.66%)
   displ. norm   :     0.0755971 α      lambda       -0.5020747E-04
   maximum displ.:     0.0492891 α      in ANC's #1, #3, #4, ...

........................................................................
.............................. CYCLE    6 ..............................
........................................................................
   1    -28.3429459 -0.283429E+02  0.543E-02    3.35       0.0  T
   2    -28.3429460 -0.150562E-06  0.320E-02    3.35       1.0  T
   3    -28.3429448  0.124978E-05  0.822E-03    3.35       2.6  T
   4    -28.3429462 -0.138623E-05  0.898E-04    3.35      23.8  T
   5    -28.3429462 -0.100319E-07  0.383E-04    3.35      55.6  T
   6    -28.3429462 -0.631253E-09  0.167E-04    3.35     127.9  T
     SCC iter.                  ...        0 min,  0.009 sec
     gradient                   ...        0 min,  0.001 sec
 * total energy  :   -27.8355397 Eh     change       -0.3848286E-04 Eh
   gradient norm :     0.0028807 Eh/α   predicted    -0.2524768E-04 ( -34.39%)
   displ. norm   :     0.1155406 α      lambda       -0.6137072E-04
   maximum displ.:     0.0787660 α      in ANC's #1, #3, #4, ...

........................................................................
.............................. CYCLE    7 ..............................
........................................................................
   1    -28.3426939 -0.283427E+02  0.815E-02    3.35       0.0  T
   2    -28.3426942 -0.330040E-06  0.479E-02    3.35       1.0  T
   3    -28.3426917  0.253367E-05  0.115E-02    3.35       1.8  T
   4    -28.3426945 -0.281482E-05  0.132E-03    3.35      16.1  T
   5    -28.3426945 -0.212922E-07  0.594E-04    3.35      35.9  T
   6    -28.3426945 -0.240870E-08  0.229E-04    3.35      93.2  T
     SCC iter.                  ...        0 min,  0.008 sec
     gradient                   ...        0 min,  0.001 sec
 * total energy  :   -27.8355865 Eh     change       -0.4678601E-04 Eh
   gradient norm :     0.0025167 Eh/α   predicted    -0.3109671E-04 ( -33.53%)
   displ. norm   :     0.1444294 α      lambda       -0.5506909E-04
   maximum displ.:     0.0981156 α      in ANC's #1, #3, #4, ...

........................................................................
.............................. CYCLE    8 ..............................
........................................................................
   1    -28.3427862 -0.283428E+02  0.103E-01    3.34       0.0  T
   2    -28.3427866 -0.420003E-06  0.603E-02    3.34       1.0  T
   3    -28.3427829  0.373990E-05  0.139E-02    3.34       1.5  T
   4    -28.3427870 -0.414400E-05  0.133E-03    3.34      16.0  T
   5    -28.3427870 -0.199078E-07  0.648E-04    3.34      32.9  T
   6    -28.3427870 -0.314662E-08  0.268E-04    3.34      79.6  T
     SCC iter.                  ...        0 min,  0.008 sec
     gradient                   ...        0 min,  0.001 sec
 * total energy  :   -27.8356306 Eh     change       -0.4409687E-04 Eh
   gradient norm :     0.0027334 Eh/α   predicted    -0.2811129E-04 ( -36.25%)
   displ. norm   :     0.1387871 α      lambda       -0.4850826E-04
   maximum displ.:     0.0966968 α      in ANC's #1, #3, #5, ...

........................................................................
.............................. CYCLE    9 ..............................
........................................................................
   1    -28.3432128 -0.283432E+02  0.953E-02    3.34       0.0  T
   2    -28.3432131 -0.329743E-06  0.560E-02    3.34       1.0  T
   3    -28.3432100  0.312187E-05  0.125E-02    3.34       1.7  T
   4    -28.3432135 -0.345936E-05  0.111E-03    3.34      19.2  T
   5    -28.3432135 -0.136330E-07  0.553E-04    3.34      38.6  T
   6    -28.3432135 -0.235611E-08  0.243E-04    3.34      87.6  T
     SCC iter.                  ...        0 min,  0.007 sec
     gradient                   ...        0 min,  0.001 sec
 * total energy  :   -27.8356712 Eh     change       -0.4060600E-04 Eh
   gradient norm :     0.0021836 Eh/α   predicted    -0.2472310E-04 ( -39.11%)
   displ. norm   :     0.1668485 α      lambda       -0.4959041E-04
   maximum displ.:     0.1158144 α      in ANC's #1, #3, #5, ...

........................................................................
.............................. CYCLE   10 ..............................
........................................................................
   1    -28.3434444 -0.283434E+02  0.113E-01    3.33       0.0  T
   2    -28.3434447 -0.377664E-06  0.665E-02    3.33       1.0  T
   3    -28.3434403  0.444110E-05  0.149E-02    3.33       1.4  T
   4    -28.3434452 -0.492097E-05  0.121E-03    3.33      17.7  T
   5    -28.3434452 -0.188036E-07  0.604E-04    3.33      35.3  T
   6    -28.3434452 -0.187686E-08  0.229E-04    3.33      93.2  T
     SCC iter.                  ...        0 min,  0.008 sec
     gradient                   ...        0 min,  0.001 sec
 * total energy  :   -27.8357109 Eh     change       -0.3967565E-04 Eh
   gradient norm :     0.0017925 Eh/α   predicted    -0.2548591E-04 ( -35.76%)
   displ. norm   :     0.2832285 α      lambda       -0.4069487E-04
   maximum displ.:     0.1968710 α      in ANC's #1, #3, #5, ...

........................................................................
.............................. CYCLE   11 ..............................
........................................................................
   1    -28.3430619 -0.283431E+02  0.187E-01    3.31       0.0  T
   2    -28.3430630 -0.108595E-05  0.110E-01    3.31       1.0  T
   3    -28.3430506  0.124423E-04  0.248E-02    3.31       1.0  T
   4    -28.3430644 -0.138029E-04  0.220E-03    3.31       9.7  T
   5    -28.3430645 -0.731028E-07  0.983E-04    3.31      21.7  T
   6    -28.3430645 -0.341259E-08  0.309E-04    3.31      69.0  T
     SCC iter.                  ...        0 min,  0.008 sec
     gradient                   ...        0 min,  0.001 sec
 * total energy  :   -27.8357460 Eh     change       -0.3513405E-04 Eh
   gradient norm :     0.0026986 Eh/α   predicted    -0.2107715E-04 ( -40.01%)
   displ. norm   :     0.0547667 α      lambda       -0.1414202E-04
   maximum displ.:     0.0391025 α      in ANC's #1, #3, #37, ...

........................................................................
.............................. CYCLE   12 ..............................
........................................................................
   1    -28.3436991 -0.283437E+02  0.321E-02    3.31       0.0  T
   2    -28.3436991 -0.808208E-07  0.188E-02    3.31       1.1  T
   3    -28.3436989  0.253147E-06  0.327E-03    3.31       6.5  T
   4    -28.3436992 -0.292239E-06  0.535E-04    3.31      39.9  T
   5    -28.3436992 -0.383517E-08  0.240E-04    3.31      89.0  T
     SCC iter.                  ...        0 min,  0.006 sec
     gradient                   ...        0 min,  0.001 sec
 * total energy  :   -27.8357554 Eh     change       -0.9347873E-05 Eh
   gradient norm :     0.0014846 Eh/α   predicted    -0.7092477E-05 ( -24.13%)
   displ. norm   :     0.1783052 α      lambda       -0.1207057E-04
   maximum displ.:     0.1235339 α      in ANC's #3, #1, #5, ...

........................................................................
.............................. CYCLE   13 ..............................
........................................................................
   1    -28.3431311 -0.283431E+02  0.122E-01    3.30       0.0  T
   2    -28.3431318 -0.737232E-06  0.715E-02    3.30       1.0  T
   3    -28.3431280  0.380344E-05  0.134E-02    3.30       1.6  T
   4    -28.3431323 -0.426546E-05  0.190E-03    3.30      11.2  T
   5    -28.3431323 -0.516999E-07  0.730E-04    3.30      29.2  T
   6    -28.3431323 -0.502696E-08  0.317E-04    3.30      67.3  T
     SCC iter.                  ...        0 min,  0.008 sec
     gradient                   ...        0 min,  0.001 sec
 * total energy  :   -27.8357633 Eh     change       -0.7915757E-05 Eh
   gradient norm :     0.0011615 Eh/α   predicted    -0.6121411E-05 ( -22.67%)
   displ. norm   :     0.0091615 α      lambda       -0.2841680E-05
   maximum displ.:     0.0048975 α      in ANC's #6, #1, #5, ...

........................................................................
.............................. CYCLE   14 ..............................
........................................................................
   1    -28.3436207 -0.283436E+02  0.627E-03    3.30       0.0  T
   2    -28.3436207 -0.897607E-08  0.362E-03    3.30       5.9  T
   3    -28.3436206  0.360220E-07  0.164E-03    3.30      13.0  T
   4    -28.3436207 -0.417129E-07  0.195E-04    3.30     109.1  T
   5    -28.3436207 -0.378535E-09  0.125E-04    3.30     170.7  T
     SCC iter.                  ...        0 min,  0.006 sec
     gradient                   ...        0 min,  0.001 sec
 * total energy  :   -27.8357656 Eh     change       -0.2292713E-05 Eh
   gradient norm :     0.0006325 Eh/α   predicted    -0.1424133E-05 ( -37.88%)
   displ. norm   :     0.0256858 α      lambda       -0.2097184E-05
   maximum displ.:     0.0193049 α      in ANC's #3, #2, #1, ...

   *** GEOMETRY OPTIMIZATION CONVERGED AFTER 14 ITERATIONS ***

------------------------------------------------------------------------
 total energy gain   :        -0.0031871 Eh       -1.9999 kcal/mol
 total RMSD          :         0.3138900 a0        0.1661 Å
 total power (kW/mol):        -0.5976937 (step)  -48.6754 (real)
------------------------------------------------------------------------

 ANCopt (total)                0 d,  0 h,  0 min,  0.172 sec
 optimizer setup                ...        0 min,  0.000 sec (  0.071%)
 model hessian                  ...        0 min,  0.006 sec (  3.616%)
 ANC generation                 ...        0 min,  0.001 sec (  0.868%)
 coordinate transformation      ...        0 min,  0.000 sec (  0.194%)
 single point calculation       ...        0 min,  0.159 sec ( 92.388%)
 optimization log               ...        0 min,  0.001 sec (  0.832%)
 hessian update                 ...        0 min,  0.000 sec (  0.283%)
 rational function              ...        0 min,  0.001 sec (  0.771%)

================
 final structure:
================
22
 xtb: 6.5.1 (fef0646)
N            3.81841486820649       -0.01500601810523       -0.83133151179773
C            2.54843839427495        0.01532982678772       -0.00817612040731
C            2.87854255649967        0.46204281694620        1.38382227232654
C            2.82922333977876        1.81118500944482        1.72393509606484
C            3.16349539674698        2.22476285200883        2.99659963273031
C            3.56440212265561        1.30355052974597        3.96802765739231
C            3.92458394444035        1.69172026102019        5.32492179666932
C            3.68288849333471        2.86859565776517        5.89147742323012
C            3.62210191458531       -0.04733052433600        3.61137674064421
C            3.28258456278340       -0.46430630562760        2.34132286614242
H            3.64193835293849       -0.31470140910048       -1.79821185920684
H            4.48806806768373       -0.66044037921955       -0.39229954367115
H            4.23851124083807        0.92365041425417       -0.83766946031881
H            2.12452969544032       -0.98938589850681       -0.01127066404529
H            1.85248470873773        0.70238231223290       -0.49015685232830
H            2.51128755821363        2.53952523180991        0.99152992880856
H            3.11962511271295        3.27400023879217        3.23810655548797
H            4.41250045622856        0.91704203884964        5.90232252550399
H            3.17331861746194        3.67007796624552        5.38511061066257
H            3.97796946943206        3.06633015804794        6.90687800223633
H            3.92600395728995       -0.77586975258805        4.34736001218824
H            3.31492716971636       -1.51642502646745        2.09592489168770

 Bond Distances (Angstroems)
 ---------------------------
N1-C2=1.5137         N1-H11=1.0275        N1-H12=1.0285        N1-H13=1.0284        C2-N1=1.5137         C2-C3=1.4987         
C2-H14=1.0905        C2-H15=1.0903        C3-C2=1.4987         C3-C4=1.3922         C3-C10=1.3922        C4-C3=1.3922         
C4-C5=1.3793         C4-H16=1.0807        C5-C4=1.3793         C5-C6=1.3975         C5-H17=1.0776        C6-C5=1.3975         
C6-C7=1.4566         C6-C9=1.3984         C7-C6=1.4566         C7-C8=1.3283         C7-H18=1.0824        C8-C7=1.3283         
C8-H19=1.0763        C8-H20=1.0757        C9-C6=1.3984         C9-C10=1.3792        C9-H21=1.0793        C10-C3=1.3922        
C10-C9=1.3792        C10-H22=1.0808       H11-N1=1.0275        H12-N1=1.0285        H13-N1=1.0284        H14-C2=1.0905        
H15-C2=1.0903        H16-C4=1.0807        H17-C5=1.0776        H18-C7=1.0824        H19-C8=1.0763        H20-C8=1.0757        
H21-C9=1.0793        H22-C10=1.0808       
 C  H  Rav=1.0815 sigma=0.0052  Rmin=1.0757  Rmax=1.0905     9
 C  C  Rav=1.4025 sigma=0.0460  Rmin=1.3283  Rmax=1.4987     9
 N  H  Rav=1.0281 sigma=0.0004  Rmin=1.0275  Rmax=1.0285     3
 N  C  Rav=1.5137 sigma=0.0000  Rmin=1.5137  Rmax=1.5137     1

 selected bond angles (degree)
 --------------------
H11-N1-C2=111.93               H12-N1-C2=109.07               H12-N1-H11=109.30              H13-N1-C2=109.13               
H13-N1-H11=109.30              H13-N1-H12=108.03              C3-C2-N1=109.04                H14-C2-N1=107.83               
H14-C2-C3=111.28               H15-C2-N1=107.93               H15-C2-C3=111.31               H15-C2-H14=109.34              
C4-C3-C2=120.53                C10-C3-C2=120.29               C10-C3-C4=119.15               C5-C4-C3=120.49                
H16-C4-C3=119.86               H16-C4-C5=119.64               C6-C5-C4=120.88                H17-C5-C4=119.27               
H17-C5-C6=119.85               C7-C6-C5=122.88                C9-C6-C5=118.12                C9-C6-C7=119.00                
C8-C7-C6=126.05                H18-C7-C6=114.69               H18-C7-C8=119.25               H19-C8-C7=123.04               
H20-C8-C7=121.03               H20-C8-H19=115.92              C10-C9-C6=121.12               H21-C9-C6=119.33               
H21-C9-C10=119.55              C9-C10-C3=120.24               H22-C10-C3=120.02              H22-C10-C9=119.74              

 selected dihedral angles (degree)
 ---------------------------------
C3-C2-N1-H11=180.12           C3-C2-N1-H12= 59.05           C3-C2-N1-H13=301.25           H14-C2-N1-H11= 59.18          
H14-C2-N1-H12=298.11          H14-C2-N1-H13=180.30          H15-C2-N1-H11=301.16          H15-C2-N1-H12=180.09          
H15-C2-N1-H13= 62.29          C4-C3-C2-N1= 91.15            C4-C3-C2-H14=209.96           C4-C3-C2-H15=332.19           
C10-C3-C2-N1=273.33           C10-C3-C2-H14= 32.14          C10-C3-C2-H15=154.37          C5-C4-C3-C2=181.53            
C5-C4-C3-C10=359.37           H16-C4-C3-C2=  2.54           H16-C4-C3-C10=180.38          C6-C5-C4-C3=  0.33            
C6-C5-C4-H16=179.32           H17-C5-C4-C3=179.92           H17-C5-C4-H16=358.91          C7-C6-C5-C4=180.11            
C7-C6-C5-H17=  0.52           C9-C6-C5-C4=  0.26            C9-C6-C5-H17=180.67           C8-C7-C6-C5= 13.90            
C8-C7-C6-C9=193.75            H18-C7-C6-C5=192.44           H18-C7-C6-C9= 12.29           H19-C8-C7-C6=  0.53           
H19-C8-C7-H18=182.05          H20-C8-C7-C6=179.44           H20-C8-C7-H18=  0.96          C10-C9-C6-C5=359.44           
C10-C9-C6-C7=179.59           H21-C9-C6-C5=180.21           H21-C9-C6-C7=  0.35           C9-C10-C3-C2=178.18           
C9-C10-C3-C4=  0.33           H22-C10-C3-C2=357.13          H22-C10-C3-C4=179.29          C3-C10-C9-C6=  0.26           
C3-C10-C9-H21=179.50          H22-C10-C9-C6=181.31          H22-C10-C9-H21=  0.54         
           -------------------------------------------------
          |                Final Singlepoint                |
           -------------------------------------------------

          ...................................................
          :                      SETUP                      :
          :.................................................:
          :  # basis functions                  52          :
          :  # atomic orbitals                  52          :
          :  # shells                           32          :
          :  # electrons                        52          :
          :  max. iterations                   250          :
          :  Hamiltonian                  GFN2-xTB          :
          :  restarted?                      false          :
          :  GBSA solvation                  false          :
          :  PC potential                    false          :
          :  electronic temp.          300.0000000     K    :
          :  accuracy                    1.0000000          :
          :  -> integral cutoff          0.2500000E+02      :
          :  -> integral neglect         0.1000000E-07      :
          :  -> SCF convergence          0.1000000E-05 Eh   :
          :  -> wf. convergence          0.1000000E-03 e    :
          :  Broyden damping             0.4000000          :
          ...................................................

 iter      E             dE          RMSdq      gap      omega  full diag
   1    -28.3436207 -0.283436E+02  0.479E-05    3.30       0.0  T
   2    -28.3436207 -0.471800E-11  0.291E-05    3.30     733.6  T
   3    -28.3436207 -0.174083E-11  0.191E-05    3.30    1115.4  T

   *** convergence criteria satisfied after 3 iterations ***

         #    Occupation            Energy/Eh            Energy/eV
      -------------------------------------------------------------
         1        2.0000           -0.8863598             -24.1191
       ...           ...                  ...                  ...
        20        2.0000           -0.5811731             -15.8145
        21        2.0000           -0.5613288             -15.2745
        22        2.0000           -0.5553737             -15.1125
        23        2.0000           -0.5445795             -14.8188
        24        2.0000           -0.5348418             -14.5538
        25        2.0000           -0.5294641             -14.4075
        26        2.0000           -0.5001808             -13.6106 (HOMO)
        27                         -0.3788028             -10.3078 (LUMO)
        28                         -0.3509530              -9.5499
        29                         -0.3020327              -8.2187
        30                         -0.2456543              -6.6846
        31                         -0.2025484              -5.5116
       ...                                ...                  ...
        52                          0.5638853              15.3441
      -------------------------------------------------------------
                  HL-Gap            0.1213779 Eh            3.3029 eV
             Fermi-level           -0.4394918 Eh          -11.9592 eV

 SCC (total)                   0 d,  0 h,  0 min,  0.006 sec
 SCC setup                      ...        0 min,  0.000 sec (  1.071%)
 Dispersion                     ...        0 min,  0.000 sec (  2.580%)
 classical contributions        ...        0 min,  0.000 sec (  0.429%)
 integral evaluation            ...        0 min,  0.001 sec (  9.421%)
 iterations                     ...        0 min,  0.004 sec ( 62.385%)
 molecular gradient             ...        0 min,  0.001 sec ( 20.833%)
 printout                       ...        0 min,  0.000 sec (  1.377%)

         :::::::::::::::::::::::::::::::::::::::::::::::::::::
         ::                     SUMMARY                     ::
         :::::::::::::::::::::::::::::::::::::::::::::::::::::
         :: total energy             -27.835765559148 Eh    ::
         :: gradient norm              0.000632745160 Eh/a0 ::
         :: HOMO-LUMO gap              3.302862104261 eV    ::
         ::.................................................::
         :: SCC energy               -28.343620671058 Eh    ::
         :: -> isotropic ES            0.102580727217 Eh    ::
         :: -> anisotropic ES         -0.010615968344 Eh    ::
         :: -> anisotropic XC          0.021961758616 Eh    ::
         :: -> dispersion             -0.016408041201 Eh    ::
         :: repulsion energy           0.507866775967 Eh    ::
         :: add. restraining           0.000000000000 Eh    ::
         :: total charge               1.000000000000 e     ::
         :::::::::::::::::::::::::::::::::::::::::::::::::::::

           -------------------------------------------------
          |                Property Printout                |
           -------------------------------------------------

    * Orbital Energies and Occupations

         #    Occupation            Energy/Eh            Energy/eV
      -------------------------------------------------------------
         1        2.0000           -0.8863598             -24.1191
       ...           ...                  ...                  ...
        14        2.0000           -0.6520251             -17.7425
        15        2.0000           -0.6267388             -17.0544
        16        2.0000           -0.6160501             -16.7636
        17        2.0000           -0.6111083             -16.6291
        18        2.0000           -0.6087515             -16.5650
        19        2.0000           -0.6030663             -16.4103
        20        2.0000           -0.5811731             -15.8145
        21        2.0000           -0.5613288             -15.2745
        22        2.0000           -0.5553737             -15.1125
        23        2.0000           -0.5445795             -14.8188
        24        2.0000           -0.5348418             -14.5538
        25        2.0000           -0.5294641             -14.4075
        26        2.0000           -0.5001808             -13.6106 (HOMO)
        27                         -0.3788028             -10.3078 (LUMO)
        28                         -0.3509530              -9.5499
        29                         -0.3020327              -8.2187
        30                         -0.2456543              -6.6846
        31                         -0.2025484              -5.5116
        32                         -0.1489627              -4.0535
        33                         -0.0862246              -2.3463
        34                         -0.0856203              -2.3298
        35                         -0.0438572              -1.1934
        36                         -0.0166790              -0.4539
        37                          0.0040714               0.1108
       ...                                ...                  ...
        52                          0.5638853              15.3441
      -------------------------------------------------------------
                  HL-Gap            0.1213779 Eh            3.3029 eV
             Fermi-level           -0.4394918 Eh          -11.9592 eV

     #   Z          covCN         q      C6AA      α(0)
     1   7 N        3.482    -0.131    23.836     7.251
     2   6 C        3.735    -0.033    21.255     6.580
     3   6 C        2.971    -0.022    28.548     8.764
     4   6 C        2.919    -0.040    29.000     8.831
     5   6 C        2.922    -0.028    28.696     8.785
     6   6 C        2.971     0.033    27.261     8.564
     7   6 C        2.896    -0.032    28.806     8.800
     8   6 C        2.838    -0.070    29.746     8.938
     9   6 C        2.926    -0.029    28.735     8.791
    10   6 C        2.919    -0.041    29.016     8.833
    11   1 H        0.859     0.266     0.826     1.424
    12   1 H        0.859     0.270     0.810     1.410
    13   1 H        0.859     0.270     0.811     1.411
    14   1 H        0.924     0.103     1.755     2.072
    15   1 H        0.924     0.103     1.757     2.073
    16   1 H        0.926     0.042     2.427     2.436
    17   1 H        0.926     0.063     2.165     2.301
    18   1 H        0.925     0.054     2.268     2.355
    19   1 H        0.926     0.058     2.225     2.333
    20   1 H        0.926     0.066     2.126     2.280
    21   1 H        0.926     0.060     2.200     2.319
    22   1 H        0.926     0.040     2.445     2.445

 Mol. C6AA /au·bohr⁶  :       4651.524404
 Mol. C8AA /au·bohr⁸  :     111081.782889
 Mol. α(0) /au        :        108.995786


Wiberg/Mayer (AO) data.
largest (>0.10) Wiberg bond orders for each atom

 ---------------------------------------------------------------------------
     #   Z sym  total        # sym  WBO       # sym  WBO       # sym  WBO
 ---------------------------------------------------------------------------
     1   7 N    3.671 --    11 H    0.914    13 H    0.912    12 H    0.912
                             2 C    0.897
     2   6 C    3.881 --     3 C    1.009    15 H    0.967    14 H    0.966
                             1 N    0.897
     3   6 C    3.969 --    10 C    1.391     4 C    1.390     2 C    1.009
     4   6 C    3.991 --     5 C    1.470     3 C    1.390    16 H    0.968
     5   6 C    3.990 --     4 C    1.470     6 C    1.365    17 H    0.963
     6   6 C    3.986 --     9 C    1.366     5 C    1.365     7 C    1.097
     7   6 C    3.989 --     8 C    1.894     6 C    1.097    18 H    0.962
     8   6 C    3.982 --     7 C    1.894    20 H    0.975    19 H    0.971
     9   6 C    3.989 --    10 C    1.469     6 C    1.366    21 H    0.966
    10   6 C    3.991 --     9 C    1.469     3 C    1.391    22 H    0.968
    11   1 H    0.928 --     1 N    0.914
    12   1 H    0.927 --     1 N    0.912
    13   1 H    0.927 --     1 N    0.912
    14   1 H    0.989 --     2 C    0.966
    15   1 H    0.989 --     2 C    0.967
    16   1 H    0.998 --     4 C    0.968
    17   1 H    0.996 --     5 C    0.963
    18   1 H    0.997 --     7 C    0.962
    19   1 H    0.997 --     8 C    0.971
    20   1 H    0.995 --     8 C    0.975
    21   1 H    0.996 --     9 C    0.966
    22   1 H    0.998 --    10 C    0.968
 ---------------------------------------------------------------------------

Topologies differ in total number of bonds
Writing topology from bond orders to xtbtopo.mol

molecular dipole:
                 x           y           z       tot (Debye)
 q only:        7.044       0.547       0.161
   full:        7.157       0.489      -0.079      18.235
molecular quadrupole (traceless):
                xx          xy          yy          xz          yz          zz
 q only:       38.422       4.973     -29.260       2.282       8.940      -9.162
  q+dip:       35.510       2.786     -26.381       1.986       8.366      -9.129
   full:       38.703       3.766     -28.631       0.221       8.249     -10.072

           -------------------------------------------------
          |                Geometry Summary                 |
           -------------------------------------------------

      molecular mass/u    :      134.1986153
   center of mass at/Å    :        3.3447457       0.9627862       2.5409107
  moments of inertia/u·Å² :        0.1260105E+03   0.7416691E+03   0.8193283E+03
rotational constants/cm⁻¹ :        0.1337796E+00   0.2272932E-01   0.2057494E-01

 * 20 selected distances

     #   Z          #   Z                                           value/Å
     1   7 N        2   6 C                                       1.5137192 (max)
     3   6 C        4   6 C                                       1.3922263
     4   6 C        5   6 C                                       1.3792969
     5   6 C        6   6 C                                       1.3975089
     7   6 C        8   6 C                                       1.3283215
     6   6 C        9   6 C                                       1.3983594
     3   6 C       10   6 C                                       1.3921855
     9   6 C       10   6 C                                       1.3791947
     1   7 N       11   1 H                                       1.0275306 (min)
     1   7 N       12   1 H                                       1.0284796
     1   7 N       13   1 H                                       1.0283955
     2   6 C       14   1 H                                       1.0904871
     2   6 C       15   1 H                                       1.0902744
     4   6 C       16   1 H                                       1.0807313
     5   6 C       17   1 H                                       1.0775665
     7   6 C       18   1 H                                       1.0823958
     8   6 C       19   1 H                                       1.0763099
     8   6 C       20   1 H                                       1.0757371
     9   6 C       21   1 H                                       1.0792578
    10   6 C       22   1 H                                       1.0808424

 * 4 distinct bonds (by element types)

   Z      Z             #   av. dist./Å        max./Å        min./Å
   1 H    6 C           9     1.0815114     1.0904871     1.0757371
   6 C    6 C           7     1.3810133     1.3983594     1.3283215
   1 H    7 N           3     1.0281352     1.0284796     1.0275306
   6 C    7 N           1     1.5137192     1.5137192     1.5137192


optimized geometry written to: xtbopt.xyz


           -------------------------------------------------
          | TOTAL ENERGY              -27.835765559148 Eh   |
          | GRADIENT NORM               0.000632745160 Eh/α |
          | HOMO-LUMO GAP               3.302862104261 eV   |
           -------------------------------------------------

------------------------------------------------------------------------
 * finished run on 2023/01/23 at 13:45:10.303     
------------------------------------------------------------------------
 total:
 * wall-time:     0 d,  0 h,  0 min,  0.223 sec
 *  cpu-time:     0 d,  0 h,  0 min, 24.400 sec
 * ratio c/w:   109.629 speedup
 SCF:
 * wall-time:     0 d,  0 h,  0 min,  0.027 sec
 *  cpu-time:     0 d,  0 h,  0 min,  3.861 sec
 * ratio c/w:   140.775 speedup
 ANC optimizer:
 * wall-time:     0 d,  0 h,  0 min,  0.179 sec
 *  cpu-time:     0 d,  0 h,  0 min, 18.532 sec
 * ratio c/w:   103.562 speedup

