      -----------------------------------------------------------      
     |                   =====================                   |     
     |                           x T B                           |     
     |                   =====================                   |     
     |                         S. Grimme                         |     
     |          Mulliken Center for Theoretical Chemistry        |     
     |                    University of Bonn                     |     
      -----------------------------------------------------------      

   * xtb version 6.5.1 (fef0646) compiled by 'conda@b96dff2e9fd6' on 2023-01-04

   xtb is free software: you can redistribute it and/or modify it under
   the terms of the GNU Lesser General Public License as published by
   the Free Software Foundation, either version 3 of the License, or
   (at your option) any later version.
   
   xtb is distributed in the hope that it will be useful,
   but WITHOUT ANY WARRANTY; without even the implied warranty of
   MERCHANTABILITY or FITNESS FOR A PARTICULAR PURPOSE.  See the
   GNU Lesser General Public License for more details.
   
   Cite this work as:
   * C. Bannwarth, E. Caldeweyher, S. Ehlert, A. Hansen, P. Pracht,
     J. Seibert, S. Spicher, S. Grimme, WIREs Comput. Mol. Sci., 2020, 11,
     e01493. DOI: 10.1002/wcms.1493
   
   for GFN2-xTB:
   * C. Bannwarth, S. Ehlert and S. Grimme., J. Chem. Theory Comput., 2019,
     15, 1652-1671. DOI: 10.1021/acs.jctc.8b01176
   for GFN1-xTB:
   * S. Grimme, C. Bannwarth, P. Shushkov, J. Chem. Theory Comput., 2017,
     13, 1989-2009. DOI: 10.1021/acs.jctc.7b00118
   for GFN0-xTB:
   * P. Pracht, E. Caldeweyher, S. Ehlert, S. Grimme, ChemRxiv, 2019, preprint.
     DOI: 10.26434/chemrxiv.8326202.v1
   for GFN-FF:
   * S. Spicher and S. Grimme, Angew. Chem. Int. Ed., 2020, 59, 15665-15673.
     DOI: 10.1002/anie.202004239
   
   for ALPB and GBSA implicit solvation:
   * S. Ehlert, M. Stahn, S. Spicher, S. Grimme, J. Chem. Theory Comput.,
     2021, 17, 4250-4261. DOI: 10.1021/acs.jctc.1c00471
   
   for DFT-D4:
   * E. Caldeweyher, C. Bannwarth and S. Grimme, J. Chem. Phys., 2017,
     147, 034112. DOI: 10.1063/1.4993215
   * E. Caldeweyher, S. Ehlert, A. Hansen, H. Neugebauer, S. Spicher,
     C. Bannwarth and S. Grimme, J. Chem. Phys., 2019, 150, 154122.
     DOI: 10.1063/1.5090222
   * E. Caldeweyher, J.-M. Mewes, S. Ehlert and S. Grimme, Phys. Chem. Chem. Phys.
     2020, 22, 8499-8512. DOI: 10.1039/D0CP00502A
   
   for sTDA-xTB:
   * S. Grimme and C. Bannwarth, J. Chem. Phys., 2016, 145, 054103.
     DOI: 10.1063/1.4959605
   
   in the mass-spec context:
   * V. Asgeirsson, C. Bauer and S. Grimme, Chem. Sci., 2017, 8, 4879.
     DOI: 10.1039/c7sc00601b
   * J. Koopman and S. Grimme, ACS Omega 2019, 4, 12, 15120-15133.
     DOI: 10.1021/acsomega.9b02011
   
   for metadynamics refer to:
   * S. Grimme, J. Chem. Theory Comput., 2019, 155, 2847-2862
     DOI: 10.1021/acs.jctc.9b00143
   
   for SPH calculations refer to:
   * S. Spicher and S. Grimme, J. Chem. Theory Comput., 2021, 17, 1701-1714
     DOI: 10.1021/acs.jctc.0c01306
   
   with help from (in alphabetical order)
   P. Atkinson, C. Bannwarth, F. Bohle, G. Brandenburg, E. Caldeweyher
   M. Checinski, S. Dohm, S. Ehlert, S. Ehrlich, I. Gerasimov, C. Hölzer
   A. Katbashev, J. Koopman, C. Lavigne, S. Lehtola, F. März, M. Müller,
   F. Musil, H. Neugebauer, J. Pisarek, C. Plett, P. Pracht, F. Pultar,
   J. Seibert, P. Shushkov, S. Spicher, M. Stahn, M. Steiner, T. Strunk,
   J. Stückrath, T. Rose, and J. Unsleber
   
 * started run on 2023/01/23 at 13:40:04.445     

           -------------------------------------------------
          |                Calculation Setup                |
           -------------------------------------------------

          program call               : xtb init.xyz --opt -c 0 -u 0 -P 16
          hostname                   : gpg-woodward
          coordinate file            : init.xyz
          omp threads                :                    16

   ID    Z sym.   atoms
    1    8 O      1
    2    6 C      2-4
    3    7 N      5
    4   17 Cl     6
    5    1 H      7-16

molecular fragmentation (1/2 indicates fragments):
1111121111111111
# atoms in fragment 1/2:    15     1
 fragment masses (1/2) :       76.12       35.45
CMA distance (Bohr)    :   9.136
constraining FC (au)   :  0.0500

           -------------------------------------------------
          |                 G F N 2 - x T B                 |
           -------------------------------------------------

        Reference                      10.1021/acs.jctc.8b01176
      * Hamiltonian:
        H0-scaling (s, p, d)           1.850000    2.230000    2.230000
        zeta-weighting                 0.500000
      * Dispersion:
        s8                             2.700000
        a1                             0.520000
        a2                             5.000000
        s9                             5.000000
      * Repulsion:
        kExp                           1.500000    1.000000
        rExp                           1.000000
      * Coulomb:
        alpha                          2.000000
        third order                    shell-resolved
        anisotropic                    true
        a3                             3.000000
        a5                             4.000000
        cn-shift                       1.200000
        cn-exp                         4.000000
        max-rad                        5.000000


          ...................................................
          :                      SETUP                      :
          :.................................................:
          :  # basis functions                  40          :
          :  # atomic orbitals                  39          :
          :  # shells                           23          :
          :  # electrons                        40          :
          :  max. iterations                   250          :
          :  Hamiltonian                  GFN2-xTB          :
          :  restarted?                      false          :
          :  GBSA solvation                  false          :
          :  PC potential                    false          :
          :  electronic temp.          300.0000000     K    :
          :  accuracy                    1.0000000          :
          :  -> integral cutoff          0.2500000E+02      :
          :  -> integral neglect         0.1000000E-07      :
          :  -> SCF convergence          0.1000000E-05 Eh   :
          :  -> wf. convergence          0.1000000E-03 e    :
          :  Broyden damping             0.4000000          :
          ...................................................

 iter      E             dE          RMSdq      gap      omega  full diag
   1    -23.0310797 -0.230311E+02  0.438E+00   10.60       0.0  T
   2    -23.1573456 -0.126266E+00  0.244E+00    6.18       1.0  T
   3    -23.1602561 -0.291048E-02  0.143E+00    4.50       1.0  T
   4    -23.1608512 -0.595164E-03  0.199E-01    3.12       1.0  T
   5    -23.1609509 -0.996394E-04  0.129E-01    3.16       1.0  T
   6    -23.1609950 -0.440996E-04  0.649E-02    3.23       1.0  T
   7    -23.1610124 -0.174587E-04  0.262E-02    3.23       1.0  T
   8    -23.1610156 -0.318186E-05  0.101E-02    3.23       2.5  T
   9    -23.1610158 -0.242887E-06  0.373E-03    3.23       6.7  T
  10    -23.1610159 -0.347832E-07  0.987E-04    3.23      25.3  T
  11    -23.1610159 -0.101163E-08  0.151E-04    3.23     166.0  T

   *** convergence criteria satisfied after 11 iterations ***

         #    Occupation            Energy/Eh            Energy/eV
      -------------------------------------------------------------
         1        2.0000           -0.8623168             -23.4648
       ...           ...                  ...                  ...
        14        2.0000           -0.5255523             -14.3010
        15        2.0000           -0.5058351             -13.7645
        16        2.0000           -0.4830400             -13.1442
        17        2.0000           -0.4531952             -12.3321
        18        2.0000           -0.2668580              -7.2616
        19        2.0000           -0.2653086              -7.2194
        20        2.0000           -0.2651176              -7.2142 (HOMO)
        21                         -0.1463331              -3.9819 (LUMO)
        22                         -0.0503862              -1.3711
        23                         -0.0182559              -0.4968
        24                          0.0053095               0.1445
        25                          0.0392785               1.0688
       ...                                ...                  ...
        39                          0.2704916               7.3605
      -------------------------------------------------------------
                  HL-Gap            0.1187845 Eh            3.2323 eV
             Fermi-level           -0.2057253 Eh           -5.5981 eV

 SCC (total)                   0 d,  0 h,  0 min,  0.017 sec
 SCC setup                      ...        0 min,  0.000 sec (  1.392%)
 Dispersion                     ...        0 min,  0.000 sec (  1.590%)
 classical contributions        ...        0 min,  0.000 sec (  0.588%)
 integral evaluation            ...        0 min,  0.001 sec (  5.728%)
 iterations                     ...        0 min,  0.013 sec ( 77.832%)
 molecular gradient             ...        0 min,  0.002 sec ( 10.134%)
 printout                       ...        0 min,  0.000 sec (  1.025%)

         :::::::::::::::::::::::::::::::::::::::::::::::::::::
         ::                     SUMMARY                     ::
         :::::::::::::::::::::::::::::::::::::::::::::::::::::
         :: total energy             -22.957635609520 Eh    ::
         :: gradient norm              0.043507814154 Eh/a0 ::
         :: HOMO-LUMO gap              3.232291479625 eV    ::
         ::.................................................::
         :: SCC energy               -23.161015874637 Eh    ::
         :: -> isotropic ES            0.184133967755 Eh    ::
         :: -> anisotropic ES         -0.015040786637 Eh    ::
         :: -> anisotropic XC          0.007490852399 Eh    ::
         :: -> dispersion             -0.007732132485 Eh    ::
         :: repulsion energy           0.203372119958 Eh    ::
         :: add. restraining           0.000000000000 Eh    ::
         :: total charge              -0.000000000000 e     ::
         :::::::::::::::::::::::::::::::::::::::::::::::::::::

      ----------------------------------------------------------- 
     |                   =====================                   |
     |                        A N C O P T                        |
     |                   =====================                   |
     |               Approximate Normal Coordinate               |
     |                Rational Function Optimizer                |
      ----------------------------------------------------------- 

          ...................................................
          :                      SETUP                      :
          :.................................................:
          :   optimization level            normal          :
          :   max. optcycles                   200          :
          :   ANC micro-cycles                  20          :
          :   degrees of freedom                42          :
          :.................................................:
          :   RF solver                   davidson          :
          :   write xtbopt.log                true          :
          :   linear?                        false          :
          :   energy convergence         0.5000000E-05 Eh   :
          :   grad. convergence          0.1000000E-02 Eh/α :
          :   maximium RF displ.         1.0000000          :
          :   Hlow (freq-cutoff)         0.1000000E-01      :
          :   Hmax (freq-cutoff)         5.0000000          :
          :   S6 in model hess.         20.0000000          :
          ...................................................

generating ANC from model Hessian ...
Using Lindh-Hessian (1995)
 Shifting diagonal of input Hessian by    1.0082699272303508E-002
 Lowest  eigenvalues of input Hessian
    0.010000    0.010033    0.000000    0.000000    0.000000    0.000000
    0.000000    0.000000    0.011809    0.015761    0.019780    0.028536
    0.028996    0.034257    0.045958    0.057336    0.064017    0.067419
 Highest eigenvalues
    1.222104    1.284834    1.341675    1.388786    1.434924    1.487996


........................................................................
.............................. CYCLE    1 ..............................
........................................................................
   1    -23.1610159 -0.231610E+02  0.660E-05    3.23       0.0  T
   2    -23.1610159 -0.403233E-11  0.411E-05    3.23     608.0  T
   3    -23.1610159 -0.253664E-11  0.151E-05    3.23    1653.9  T
     SCC iter.                  ...        0 min,  0.004 sec
     gradient                   ...        0 min,  0.002 sec
 * total energy  :   -22.9576356 Eh     change       -0.3593925E-10 Eh
   gradient norm :     0.0435073 Eh/α   predicted     0.0000000E+00 (-100.00%)
   displ. norm   :     0.5123673 α      lambda       -0.9660073E-02
   maximum displ.:     0.4578806 α      in ANC's #3, #5, #16, ...

........................................................................
.............................. CYCLE    2 ..............................
........................................................................
   1    -23.1694286 -0.231694E+02  0.213E-01    3.36       0.0  T
   2    -23.1694641 -0.354677E-04  0.125E-01    3.42       1.0  T
   3    -23.1694721 -0.803698E-05  0.286E-02    3.47       1.0  T
   4    -23.1694737 -0.151892E-05  0.167E-02    3.47       1.5  T
   5    -23.1694744 -0.721292E-06  0.104E-02    3.47       2.4  T
   6    -23.1694749 -0.469477E-06  0.431E-03    3.47       5.8  T
   7    -23.1694749 -0.822635E-07  0.192E-03    3.47      13.0  T
   8    -23.1694749 -0.124965E-07  0.664E-04    3.47      37.7  T
   9    -23.1694750 -0.865874E-09  0.229E-04    3.47     109.0  T
     SCC iter.                  ...        0 min,  0.009 sec
     gradient                   ...        0 min,  0.001 sec
 * total energy  :   -22.9658308 Eh     change       -0.8195207E-02 Eh
   gradient norm :     0.0190026 Eh/α   predicted    -0.6098021E-02 ( -25.59%)
   displ. norm   :     0.7311215 α      lambda       -0.9117098E-02
   maximum displ.:     0.6799802 α      in ANC's #3, #5, #16, ...

........................................................................
.............................. CYCLE    3 ..............................
........................................................................
   1    -23.1745037 -0.231745E+02  0.248E-01    3.76       0.0  T
   2    -23.1746370 -0.133239E-03  0.140E-01    3.89       1.0  T
   3    -23.1746504 -0.134287E-04  0.474E-02    3.97       1.0  T
   4    -23.1746531 -0.267894E-05  0.198E-02    4.00       1.3  T
   5    -23.1746539 -0.817656E-06  0.113E-02    4.00       2.2  T
   6    -23.1746543 -0.380962E-06  0.666E-03    4.00       3.8  T
   7    -23.1746545 -0.197813E-06  0.318E-03    4.00       7.9  T
   8    -23.1746545 -0.513059E-07  0.860E-04    4.00      29.1  T
   9    -23.1746545 -0.244086E-08  0.288E-04    4.00      86.8  T
     SCC iter.                  ...        0 min,  0.009 sec
     gradient                   ...        0 min,  0.002 sec
 * total energy  :   -22.9717051 Eh     change       -0.5874320E-02 Eh
   gradient norm :     0.0114822 Eh/α   predicted    -0.6995308E-02 (  19.08%)
   displ. norm   :     0.2622181 α      lambda       -0.1323225E-02
   maximum displ.:     0.1692117 α      in ANC's #1, #5, #7, ...

........................................................................
.............................. CYCLE    4 ..............................
........................................................................
   1    -23.1744030 -0.231744E+02  0.100E-01    4.08       0.0  T
   2    -23.1744298 -0.267711E-04  0.570E-02    4.11       1.0  T
   3    -23.1744313 -0.156460E-05  0.252E-02    4.12       1.0  T
   4    -23.1744319 -0.579974E-06  0.673E-03    4.13       3.7  T
   5    -23.1744320 -0.116464E-06  0.364E-03    4.13       6.9  T
   6    -23.1744321 -0.368246E-07  0.200E-03    4.12      12.5  T
   7    -23.1744321 -0.166524E-07  0.101E-03    4.12      24.7  T
   8    -23.1744321 -0.477438E-08  0.402E-04    4.12      62.2  T
   9    -23.1744321 -0.554120E-09  0.121E-04    4.12     206.2  T
     SCC iter.                  ...        0 min,  0.009 sec
     gradient                   ...        0 min,  0.001 sec
 * total energy  :   -22.9728117 Eh     change       -0.1106522E-02 Eh
   gradient norm :     0.0079893 Eh/α   predicted    -0.7071038E-03 ( -36.10%)
   displ. norm   :     0.4845237 α      lambda       -0.1867785E-02
   maximum displ.:     0.3619599 α      in ANC's #1, #5, #7, ...

........................................................................
.............................. CYCLE    5 ..............................
........................................................................
   1    -23.1743334 -0.231743E+02  0.165E-01    4.22       0.0  T
   2    -23.1744168 -0.833867E-04  0.946E-02    4.26       1.0  T
   3    -23.1744224 -0.562728E-05  0.410E-02    4.27       1.0  T
   4    -23.1744233 -0.915130E-06  0.108E-02    4.27       2.3  T
   5    -23.1744237 -0.336556E-06  0.659E-03    4.27       3.8  T
   6    -23.1744238 -0.121064E-06  0.392E-03    4.27       6.4  T
   7    -23.1744239 -0.719676E-07  0.160E-03    4.27      15.6  T
   8    -23.1744239 -0.104699E-07  0.507E-04    4.27      49.3  T
   9    -23.1744239 -0.769393E-09  0.180E-04    4.27     138.9  T
     SCC iter.                  ...        0 min,  0.009 sec
     gradient                   ...        0 min,  0.001 sec
 * total energy  :   -22.9740424 Eh     change       -0.1230788E-02 Eh
   gradient norm :     0.0152151 Eh/α   predicted    -0.1153134E-02 (  -6.31%)
   displ. norm   :     0.3862414 α      lambda       -0.9989727E-03
   maximum displ.:     0.3133722 α      in ANC's #1, #3, #5, ...

........................................................................
.............................. CYCLE    6 ..............................
........................................................................
   1    -23.1757722 -0.231758E+02  0.993E-02    4.37       0.0  T
   2    -23.1757961 -0.239152E-04  0.570E-02    4.41       1.0  T
   3    -23.1757977 -0.159396E-05  0.204E-02    4.43       1.2  T
   4    -23.1757979 -0.225975E-06  0.537E-03    4.44       4.7  T
   5    -23.1757980 -0.673389E-07  0.313E-03    4.44       8.0  T
   6    -23.1757980 -0.252829E-07  0.164E-03    4.44      15.2  T
   7    -23.1757980 -0.115363E-07  0.686E-04    4.44      36.4  T
   8    -23.1757980 -0.204914E-08  0.255E-04    4.44      98.0  T
     SCC iter.                  ...        0 min,  0.008 sec
     gradient                   ...        0 min,  0.002 sec
 * total energy  :   -22.9748287 Eh     change       -0.7862623E-03 Eh
   gradient norm :     0.0117125 Eh/α   predicted    -0.5740019E-03 ( -27.00%)
   displ. norm   :     0.4770292 α      lambda       -0.1290696E-02
   maximum displ.:     0.4461260 α      in ANC's #1, #5, #3, ...

........................................................................
.............................. CYCLE    7 ..............................
........................................................................
   1    -23.1789717 -0.231790E+02  0.113E-01    4.50       0.0  T
   2    -23.1789857 -0.139551E-04  0.644E-02    4.51       1.0  T
   3    -23.1789872 -0.151178E-05  0.164E-02    4.51       1.5  T
   4    -23.1789876 -0.444351E-06  0.695E-03    4.51       3.6  T
   5    -23.1789877 -0.967316E-07  0.401E-03    4.51       6.2  T
   6    -23.1789878 -0.505073E-07  0.236E-03    4.51      10.6  T
   7    -23.1789878 -0.242881E-07  0.102E-03    4.51      24.6  T
   8    -23.1789878 -0.461890E-08  0.304E-04    4.51      82.3  T
   9    -23.1789878 -0.176843E-09  0.127E-04    4.51     197.2  T
     SCC iter.                  ...        0 min,  0.009 sec
     gradient                   ...        0 min,  0.001 sec
 * total energy  :   -22.9760066 Eh     change       -0.1177854E-02 Eh
   gradient norm :     0.0100427 Eh/α   predicted    -0.7921912E-03 ( -32.74%)
   displ. norm   :     0.4377087 α      lambda       -0.1453483E-02
   maximum displ.:     0.4114573 α      in ANC's #1, #3, #6, ...

........................................................................
.............................. CYCLE    8 ..............................
........................................................................
   1    -23.1807981 -0.231808E+02  0.120E-01    4.54       0.0  T
   2    -23.1808162 -0.181282E-04  0.666E-02    4.54       1.0  T
   3    -23.1808184 -0.223572E-05  0.200E-02    4.55       1.3  T
   4    -23.1808192 -0.821232E-06  0.839E-03    4.55       3.0  T
   5    -23.1808194 -0.158340E-06  0.455E-03    4.55       5.5  T
   6    -23.1808195 -0.685485E-07  0.280E-03    4.55       8.9  T
   7    -23.1808195 -0.383696E-07  0.995E-04    4.55      25.1  T
   8    -23.1808195 -0.451352E-08  0.259E-04    4.55      96.6  T
     SCC iter.                  ...        0 min,  0.007 sec
     gradient                   ...        0 min,  0.001 sec
 * total energy  :   -22.9771884 Eh     change       -0.1181868E-02 Eh
   gradient norm :     0.0117383 Eh/α   predicted    -0.8659831E-03 ( -26.73%)
   displ. norm   :     0.3537526 α      lambda       -0.1024445E-02
   maximum displ.:     0.3373474 α      in ANC's #1, #2, #7, ...

........................................................................
.............................. CYCLE    9 ..............................
........................................................................
   1    -23.1827977 -0.231828E+02  0.103E-01    4.54       0.0  T
   2    -23.1828196 -0.219378E-04  0.549E-02    4.53       1.0  T
   3    -23.1828219 -0.230919E-05  0.212E-02    4.53       1.2  T
   4    -23.1828227 -0.780771E-06  0.804E-03    4.53       3.1  T
   5    -23.1828228 -0.135584E-06  0.436E-03    4.53       5.7  T
   6    -23.1828229 -0.653360E-07  0.242E-03    4.53      10.3  T
   7    -23.1828229 -0.300624E-07  0.769E-04    4.53      32.5  T
   8    -23.1828229 -0.248396E-08  0.246E-04    4.53     101.6  T
     SCC iter.                  ...        0 min,  0.006 sec
     gradient                   ...        0 min,  0.001 sec
 * total energy  :   -22.9779704 Eh     change       -0.7819630E-03 Eh
   gradient norm :     0.0113167 Eh/α   predicted    -0.5763177E-03 ( -26.30%)
   displ. norm   :     0.2937719 α      lambda       -0.6683093E-03
   maximum displ.:     0.2538931 α      in ANC's #1, #2, #6, ...

........................................................................
.............................. CYCLE   10 ..............................
........................................................................
   1    -23.1815664 -0.231816E+02  0.795E-02    4.49       0.0  T
   2    -23.1815781 -0.116777E-04  0.423E-02    4.49       1.0  T
   3    -23.1815795 -0.136171E-05  0.159E-02    4.50       1.6  T
   4    -23.1815800 -0.502257E-06  0.604E-03    4.50       4.1  T
   5    -23.1815800 -0.680898E-07  0.271E-03    4.50       9.2  T
   6    -23.1815801 -0.239930E-07  0.172E-03    4.50      14.5  T
   7    -23.1815801 -0.157290E-07  0.535E-04    4.50      46.7  T
   8    -23.1815801 -0.131017E-08  0.172E-04    4.50     145.3  T
     SCC iter.                  ...        0 min,  0.006 sec
     gradient                   ...        0 min,  0.001 sec
 * total energy  :   -22.9784857 Eh     change       -0.5152846E-03 Eh
   gradient norm :     0.0080951 Eh/α   predicted    -0.3629937E-03 ( -29.55%)
   displ. norm   :     0.4118357 α      lambda       -0.7554304E-03
   maximum displ.:     0.2878447 α      in ANC's #1, #2, #4, ...

........................................................................
.............................. CYCLE   11 ..............................
........................................................................
   1    -23.1835193 -0.231835E+02  0.117E-01    4.46       0.0  T
   2    -23.1835443 -0.250076E-04  0.632E-02    4.46       1.0  T
   3    -23.1835468 -0.251845E-05  0.232E-02    4.47       1.1  T
   4    -23.1835478 -0.997161E-06  0.864E-03    4.47       2.9  T
   5    -23.1835479 -0.162125E-06  0.438E-03    4.47       5.7  T
   6    -23.1835480 -0.672122E-07  0.254E-03    4.47       9.9  T
   7    -23.1835480 -0.306569E-07  0.106E-03    4.47      23.6  T
   8    -23.1835481 -0.513252E-08  0.298E-04    4.47      83.9  T
   9    -23.1835481 -0.210118E-09  0.131E-04    4.47     191.5  T
     SCC iter.                  ...        0 min,  0.007 sec
     gradient                   ...        0 min,  0.001 sec
 * total energy  :   -22.9790911 Eh     change       -0.6054616E-03 Eh
   gradient norm :     0.0068657 Eh/α   predicted    -0.4417933E-03 ( -27.03%)
   displ. norm   :     0.4726603 α      lambda       -0.7380727E-03
   maximum displ.:     0.3396767 α      in ANC's #2, #1, #4, ...

........................................................................
.............................. CYCLE   12 ..............................
........................................................................
   1    -23.1831081 -0.231831E+02  0.132E-01    4.42       0.0  T
   2    -23.1831268 -0.187601E-04  0.734E-02    4.44       1.0  T
   3    -23.1831289 -0.208593E-05  0.206E-02    4.46       1.2  T
   4    -23.1831300 -0.103605E-05  0.842E-03    4.46       3.0  T
   5    -23.1831301 -0.174127E-06  0.435E-03    4.46       5.7  T
   6    -23.1831302 -0.662277E-07  0.273E-03    4.46       9.1  T
   7    -23.1831302 -0.386521E-07  0.798E-04    4.46      31.3  T
   8    -23.1831302 -0.270526E-08  0.205E-04    4.46     122.2  T
     SCC iter.                  ...        0 min,  0.006 sec
     gradient                   ...        0 min,  0.001 sec
 * total energy  :   -22.9797573 Eh     change       -0.6661579E-03 Eh
   gradient norm :     0.0085281 Eh/α   predicted    -0.4514725E-03 ( -32.23%)
   displ. norm   :     0.5423727 α      lambda       -0.8807528E-03
   maximum displ.:     0.4053908 α      in ANC's #2, #1, #4, ...

........................................................................
.............................. CYCLE   13 ..............................
........................................................................
   1    -23.1828341 -0.231828E+02  0.165E-01    4.41       0.0  T
   2    -23.1828485 -0.143894E-04  0.945E-02    4.42       1.0  T
   3    -23.1828506 -0.213002E-05  0.191E-02    4.44       1.3  T
   4    -23.1828517 -0.107809E-05  0.975E-03    4.44       2.6  T
   5    -23.1828519 -0.276516E-06  0.557E-03    4.44       4.5  T
   6    -23.1828521 -0.130816E-06  0.287E-03    4.44       8.7  T
   7    -23.1828521 -0.404044E-07  0.669E-04    4.44      37.4  T
   8    -23.1828521 -0.169234E-08  0.242E-04    4.44     103.5  T
     SCC iter.                  ...        0 min,  0.006 sec
     gradient                   ...        0 min,  0.001 sec
 * total energy  :   -22.9805647 Eh     change       -0.8073634E-03 Eh
   gradient norm :     0.0101645 Eh/α   predicted    -0.5699190E-03 ( -29.41%)
   displ. norm   :     0.5706395 α      lambda       -0.9802231E-03
   maximum displ.:     0.4217530 α      in ANC's #2, #1, #4, ...

........................................................................
.............................. CYCLE   14 ..............................
........................................................................
   1    -23.1827432 -0.231827E+02  0.185E-01    4.45       0.0  T
   2    -23.1827563 -0.131181E-04  0.107E-01    4.46       1.0  T
   3    -23.1827587 -0.235742E-05  0.188E-02    4.48       1.3  T
   4    -23.1827597 -0.100749E-05  0.108E-02    4.48       2.3  T
   5    -23.1827600 -0.349996E-06  0.666E-03    4.48       3.8  T
   6    -23.1827602 -0.195532E-06  0.320E-03    4.48       7.8  T
   7    -23.1827603 -0.472344E-07  0.546E-04    4.48      45.8  T
   8    -23.1827603 -0.761929E-09  0.259E-04    4.48      96.3  T
     SCC iter.                  ...        0 min,  0.006 sec
     gradient                   ...        0 min,  0.001 sec
 * total energy  :   -22.9814461 Eh     change       -0.8814795E-03 Eh
   gradient norm :     0.0108792 Eh/α   predicted    -0.6496930E-03 ( -26.30%)
   displ. norm   :     0.5970395 α      lambda       -0.1026529E-02
   maximum displ.:     0.4461926 α      in ANC's #2, #1, #4, ...

........................................................................
.............................. CYCLE   15 ..............................
........................................................................
   1    -23.1830107 -0.231830E+02  0.199E-01    4.55       0.0  T
   2    -23.1830208 -0.101006E-04  0.117E-01    4.55       1.0  T
   3    -23.1830235 -0.266654E-05  0.183E-02    4.55       1.4  T
   4    -23.1830244 -0.978470E-06  0.122E-02    4.55       2.0  T
   5    -23.1830250 -0.528347E-06  0.699E-03    4.55       3.6  T
   6    -23.1830252 -0.223643E-06  0.293E-03    4.55       8.5  T
   7    -23.1830252 -0.365961E-07  0.559E-04    4.55      44.7  T
   8    -23.1830252 -0.432518E-09  0.244E-04    4.55     102.3  T
     SCC iter.                  ...        0 min,  0.006 sec
     gradient                   ...        0 min,  0.001 sec
 * total energy  :   -22.9823476 Eh     change       -0.9015010E-03 Eh
   gradient norm :     0.0112853 Eh/α   predicted    -0.6962334E-03 ( -22.77%)
   displ. norm   :     0.6069694 α      lambda       -0.1118939E-02
   maximum displ.:     0.4504058 α      in ANC's #2, #1, #3, ...

........................................................................
.............................. CYCLE   16 ..............................
........................................................................
   1    -23.1843599 -0.231844E+02  0.199E-01    4.74       0.0  T
   2    -23.1843677 -0.781861E-05  0.117E-01    4.74       1.0  T
   3    -23.1843706 -0.283373E-05  0.174E-02    4.74       1.4  T
   4    -23.1843714 -0.816081E-06  0.125E-02    4.74       2.0  T
   5    -23.1843719 -0.568162E-06  0.700E-03    4.74       3.6  T
   6    -23.1843722 -0.235433E-06  0.243E-03    4.74      10.3  T
   7    -23.1843722 -0.229169E-07  0.500E-04    4.74      50.0  T
   8    -23.1843722 -0.357485E-09  0.245E-04    4.74     102.0  T
     SCC iter.                  ...        0 min,  0.006 sec
     gradient                   ...        0 min,  0.001 sec
 * total energy  :   -22.9832926 Eh     change       -0.9449228E-03 Eh
   gradient norm :     0.0106277 Eh/α   predicted    -0.7655845E-03 ( -18.98%)
   displ. norm   :     0.6527353 α      lambda       -0.1112683E-02
   maximum displ.:     0.5051396 α      in ANC's #2, #1, #3, ...

........................................................................
.............................. CYCLE   17 ..............................
........................................................................
   1    -23.1851831 -0.231852E+02  0.205E-01    4.91       0.0  T
   2    -23.1851934 -0.102721E-04  0.121E-01    4.89       1.0  T
   3    -23.1851971 -0.371008E-05  0.193E-02    4.86       1.3  T
   4    -23.1851981 -0.100375E-05  0.141E-02    4.87       1.8  T
   5    -23.1851988 -0.698624E-06  0.835E-03    4.87       3.0  T
   6    -23.1851992 -0.338519E-06  0.321E-03    4.87       7.8  T
   7    -23.1851992 -0.377168E-07  0.758E-04    4.87      33.0  T
   8    -23.1851992 -0.143092E-08  0.264E-04    4.87      94.7  T
     SCC iter.                  ...        0 min,  0.006 sec
     gradient                   ...        0 min,  0.001 sec
 * total energy  :   -22.9842536 Eh     change       -0.9610264E-03 Eh
   gradient norm :     0.0110155 Eh/α   predicted    -0.7933841E-03 ( -17.44%)
   displ. norm   :     0.6820945 α      lambda       -0.1570256E-02
   maximum displ.:     0.5122527 α      in ANC's #2, #3, #1, ...

........................................................................
.............................. CYCLE   18 ..............................
........................................................................
   1    -23.1905358 -0.231905E+02  0.199E-01    5.22       0.0  T
   2    -23.1905497 -0.139627E-04  0.116E-01    5.20       1.0  T
   3    -23.1905526 -0.281238E-05  0.172E-02    5.18       1.5  T
   4    -23.1905531 -0.545157E-06  0.106E-02    5.18       2.4  T
   5    -23.1905534 -0.344158E-06  0.653E-03    5.18       3.8  T
   6    -23.1905536 -0.194833E-06  0.287E-03    5.18       8.7  T
   7    -23.1905537 -0.359030E-07  0.989E-04    5.18      25.3  T
   8    -23.1905537 -0.244716E-08  0.266E-04    5.18      93.9  T
     SCC iter.                  ...        0 min,  0.006 sec
     gradient                   ...        0 min,  0.001 sec
 * total energy  :   -22.9854499 Eh     change       -0.1196357E-02 Eh
   gradient norm :     0.0132532 Eh/α   predicted    -0.1150410E-02 (  -3.84%)
   displ. norm   :     0.8447019 α      lambda       -0.1618701E-02
   maximum displ.:     0.6640478 α      in ANC's #2, #3, #1, ...

........................................................................
.............................. CYCLE   19 ..............................
........................................................................
   1    -23.1901147 -0.231901E+02  0.252E-01    5.31       0.0  T
   2    -23.1901614 -0.467330E-04  0.146E-01    5.26       1.0  T
   3    -23.1901668 -0.536246E-05  0.297E-02    5.22       1.0  T
   4    -23.1901690 -0.222885E-05  0.150E-02    5.22       1.7  T
   5    -23.1901696 -0.577757E-06  0.104E-02    5.22       2.4  T
   6    -23.1901700 -0.436968E-06  0.565E-03    5.22       4.4  T
   7    -23.1901702 -0.145489E-06  0.195E-03    5.22      12.8  T
   8    -23.1901702 -0.133023E-07  0.386E-04    5.22      64.7  T
   9    -23.1901702 -0.282771E-09  0.125E-04    5.22     199.5  T
     SCC iter.                  ...        0 min,  0.007 sec
     gradient                   ...        0 min,  0.001 sec
 * total energy  :   -22.9868378 Eh     change       -0.1387874E-02 Eh
   gradient norm :     0.0188074 Eh/α   predicted    -0.1386837E-02 (  -0.07%)
   displ. norm   :     0.6333177 α      lambda       -0.2068562E-02
   maximum displ.:     0.4825622 α      in ANC's #2, #3, #1, ...

........................................................................
.............................. CYCLE   20 ..............................
........................................................................
   1    -23.1903565 -0.231904E+02  0.172E-01    5.31       0.0  T
   2    -23.1903938 -0.373284E-04  0.949E-02    5.27       1.0  T
   3    -23.1903974 -0.356570E-05  0.223E-02    5.26       1.1  T
   4    -23.1903979 -0.555711E-06  0.847E-03    5.25       3.0  T
   5    -23.1903981 -0.143212E-06  0.517E-03    5.25       4.8  T
   6    -23.1903981 -0.820395E-07  0.296E-03    5.25       8.5  T
   7    -23.1903982 -0.339444E-07  0.161E-03    5.25      15.5  T
   8    -23.1903982 -0.119131E-07  0.461E-04    5.25      54.2  T
   9    -23.1903982 -0.449020E-09  0.110E-04    5.25     226.3  T
     SCC iter.                  ...        0 min,  0.007 sec
     gradient                   ...        0 min,  0.001 sec
 * total energy  :   -22.9883954 Eh     change       -0.1557590E-02 Eh
   gradient norm :     0.0173982 Eh/α   predicted    -0.1449127E-02 (  -6.96%)
   displ. norm   :     0.4740276 α      lambda       -0.1579017E-02
   maximum displ.:     0.3403505 α      in ANC's #2, #3, #1, ...
 * RMSD in coord.:     1.9648605 α      energy gain  -0.3075980E-01 Eh

generating ANC from model Hessian ...
Using Lindh-Hessian (1995)
 Shifting diagonal of input Hessian by    9.6233519440367191E-003
 Lowest  eigenvalues of input Hessian
    0.000000    0.000000    0.000000    0.000000    0.000000    0.000000
    0.010000    0.010907    0.010934    0.014329    0.018916    0.026854
    0.029617    0.033910    0.044610    0.058914    0.063726    0.067160
 Highest eigenvalues
    1.238111    1.270425    1.311801    1.415651    1.469506    1.483175


........................................................................
.............................. CYCLE   21 ..............................
........................................................................
   1    -23.1945724 -0.231946E+02  0.134E-01    5.39       0.0  T
   2    -23.1945869 -0.144285E-04  0.735E-02    5.38       1.0  T
   3    -23.1945897 -0.287332E-05  0.159E-02    5.38       1.6  T
   4    -23.1945903 -0.524415E-06  0.881E-03    5.38       2.8  T
   5    -23.1945904 -0.186863E-06  0.471E-03    5.38       5.3  T
   6    -23.1945905 -0.774881E-07  0.287E-03    5.38       8.7  T
   7    -23.1945906 -0.407536E-07  0.960E-04    5.38      26.0  T
   8    -23.1945906 -0.400410E-08  0.347E-04    5.38      72.0  T
     SCC iter.                  ...        0 min,  0.006 sec
     gradient                   ...        0 min,  0.001 sec
 * total energy  :   -22.9894033 Eh     change       -0.1007856E-02 Eh
   gradient norm :     0.0160171 Eh/α   predicted     0.0000000E+00 (-100.00%)
   displ. norm   :     0.1966929 α      lambda       -0.9112561E-03
   maximum displ.:     0.1393202 α      in ANC's #3, #1, #5, ...

........................................................................
.............................. CYCLE   22 ..............................
........................................................................
   1    -23.1955946 -0.231956E+02  0.705E-02    5.41       0.0  T
   2    -23.1955979 -0.330011E-05  0.409E-02    5.41       1.0  T
   3    -23.1955984 -0.508881E-06  0.904E-03    5.40       2.8  T
   4    -23.1955986 -0.270371E-06  0.446E-03    5.40       5.6  T
   5    -23.1955987 -0.546594E-07  0.241E-03    5.40      10.4  T
   6    -23.1955987 -0.215414E-07  0.143E-03    5.40      17.5  T
   7    -23.1955987 -0.103937E-07  0.387E-04    5.40      64.5  T
   8    -23.1955987 -0.488406E-09  0.144E-04    5.40     173.1  T
     SCC iter.                  ...        0 min,  0.006 sec
     gradient                   ...        0 min,  0.001 sec
 * total energy  :   -22.9901342 Eh     change       -0.7308952E-03 Eh
   gradient norm :     0.0078253 Eh/α   predicted    -0.4732551E-03 ( -35.25%)
   displ. norm   :     0.5270899 α      lambda       -0.1795901E-02
   maximum displ.:     0.4355461 α      in ANC's #3, #5, #2, ...

........................................................................
.............................. CYCLE   23 ..............................
........................................................................
   1    -23.1955748 -0.231956E+02  0.176E-01    5.58       0.0  T
   2    -23.1956128 -0.380680E-04  0.980E-02    5.62       1.0  T
   3    -23.1956177 -0.490370E-05  0.266E-02    5.64       1.0  T
   4    -23.1956192 -0.148134E-05  0.120E-02    5.64       2.1  T
   5    -23.1956195 -0.295305E-06  0.576E-03    5.64       4.3  T
   6    -23.1956196 -0.101325E-06  0.372E-03    5.64       6.7  T
   7    -23.1956197 -0.662870E-07  0.143E-03    5.64      17.5  T
   8    -23.1956197 -0.104142E-07  0.542E-04    5.64      46.2  T
   9    -23.1956197 -0.548166E-09  0.108E-04    5.64     232.1  T
     SCC iter.                  ...        0 min,  0.007 sec
     gradient                   ...        0 min,  0.001 sec
 * total energy  :   -22.9911087 Eh     change       -0.9745720E-03 Eh
   gradient norm :     0.0168077 Eh/α   predicted    -0.1147412E-02 (  17.73%)
   displ. norm   :     0.5413885 α      lambda       -0.1763103E-02
   maximum displ.:     0.3784452 α      in ANC's #3, #1, #5, ...

........................................................................
.............................. CYCLE   24 ..............................
........................................................................
   1    -23.1944103 -0.231944E+02  0.174E-01    5.53       0.0  T
   2    -23.1944279 -0.175744E-04  0.102E-01    5.53       1.0  T
   3    -23.1944332 -0.526937E-05  0.247E-02    5.52       1.0  T
   4    -23.1944349 -0.174083E-05  0.167E-02    5.52       1.5  T
   5    -23.1944360 -0.109934E-05  0.881E-03    5.53       2.8  T
   6    -23.1944364 -0.358405E-06  0.372E-03    5.53       6.7  T
   7    -23.1944365 -0.644859E-07  0.894E-04    5.53      28.0  T
   8    -23.1944365 -0.220233E-08  0.327E-04    5.53      76.5  T
     SCC iter.                  ...        0 min,  0.006 sec
     gradient                   ...        0 min,  0.001 sec
 * total energy  :   -22.9924706 Eh     change       -0.1361897E-02 Eh
   gradient norm :     0.0252949 Eh/α   predicted    -0.1139940E-02 ( -16.30%)
   displ. norm   :     0.6615780 α      lambda       -0.2216352E-02
   maximum displ.:     0.5247441 α      in ANC's #3, #1, #5, ...

........................................................................
.............................. CYCLE   25 ..............................
........................................................................
   1    -23.1938161 -0.231938E+02  0.199E-01    5.41       0.0  T
   2    -23.1938385 -0.224864E-04  0.117E-01    5.42       1.0  T
   3    -23.1938462 -0.769606E-05  0.278E-02    5.43       1.0  T
   4    -23.1938481 -0.190040E-05  0.198E-02    5.44       1.3  T
   5    -23.1938497 -0.161307E-05  0.102E-02    5.44       2.4  T
   6    -23.1938502 -0.463438E-06  0.465E-03    5.44       5.4  T
   7    -23.1938503 -0.951656E-07  0.764E-04    5.44      32.7  T
   8    -23.1938503 -0.923183E-09  0.295E-04    5.44      84.6  T
     SCC iter.                  ...        0 min,  0.006 sec
     gradient                   ...        0 min,  0.001 sec
 * total energy  :   -22.9943911 Eh     change       -0.1920474E-02 Eh
   gradient norm :     0.0259860 Eh/α   predicted    -0.1593216E-02 ( -17.04%)
   displ. norm   :     0.5615919 α      lambda       -0.3349110E-02
   maximum displ.:     0.4872050 α      in ANC's #3, #4, #1, ...

........................................................................
.............................. CYCLE   26 ..............................
........................................................................
   1    -23.1991696 -0.231992E+02  0.181E-01    5.40       0.0  T
   2    -23.1991990 -0.293908E-04  0.105E-01    5.41       1.0  T
   3    -23.1992049 -0.596660E-05  0.277E-02    5.42       1.0  T
   4    -23.1992067 -0.172042E-05  0.172E-02    5.43       1.5  T
   5    -23.1992077 -0.107294E-05  0.968E-03    5.43       2.6  T
   6    -23.1992081 -0.409236E-06  0.511E-03    5.43       4.9  T
   7    -23.1992083 -0.113863E-06  0.890E-04    5.43      28.1  T
   8    -23.1992083 -0.149695E-08  0.391E-04    5.43      64.0  T
     SCC iter.                  ...        0 min,  0.006 sec
     gradient                   ...        0 min,  0.001 sec
 * total energy  :   -22.9965777 Eh     change       -0.2186549E-02 Eh
   gradient norm :     0.0204795 Eh/α   predicted    -0.2202674E-02 (   0.74%)
   displ. norm   :     0.5383652 α      lambda       -0.2401700E-02
   maximum displ.:     0.4904241 α      in ANC's #3, #5, #4, ...

........................................................................
.............................. CYCLE   27 ..............................
........................................................................
   1    -23.1977501 -0.231978E+02  0.138E-01    5.46       0.0  T
   2    -23.1977663 -0.162017E-04  0.809E-02    5.47       1.0  T
   3    -23.1977713 -0.505627E-05  0.229E-02    5.49       1.1  T
   4    -23.1977724 -0.108507E-05  0.152E-02    5.49       1.6  T
   5    -23.1977733 -0.864631E-06  0.840E-03    5.49       3.0  T
   6    -23.1977736 -0.293121E-06  0.452E-03    5.49       5.5  T
   7    -23.1977737 -0.953096E-07  0.733E-04    5.49      34.1  T
   8    -23.1977737 -0.118701E-08  0.278E-04    5.49      89.8  T
     SCC iter.                  ...        0 min,  0.006 sec
     gradient                   ...        0 min,  0.001 sec
 * total energy  :   -22.9987011 Eh     change       -0.2123436E-02 Eh
   gradient norm :     0.0189990 Eh/α   predicted    -0.1548898E-02 ( -27.06%)
   displ. norm   :     0.5507317 α      lambda       -0.5834348E-02
   maximum displ.:     0.3852443 α      in ANC's #1, #3, #2, ...

........................................................................
.............................. CYCLE   28 ..............................
........................................................................
   1    -23.2057637 -0.232058E+02  0.287E-01    6.13       0.0  T
   2    -23.2059355 -0.171857E-03  0.162E-01    6.21       1.0  T
   3    -23.2059470 -0.114878E-04  0.576E-02    6.25       1.0  T
   4    -23.2059502 -0.317757E-05  0.155E-02    6.27       1.6  T
   5    -23.2059507 -0.489924E-06  0.696E-03    6.27       3.6  T
   6    -23.2059508 -0.124465E-06  0.476E-03    6.27       5.3  T
   7    -23.2059509 -0.105616E-06  0.208E-03    6.27      12.0  T
   8    -23.2059509 -0.245253E-07  0.701E-04    6.27      35.7  T
   9    -23.2059509 -0.176281E-08  0.247E-04    6.27     101.3  T
     SCC iter.                  ...        0 min,  0.007 sec
     gradient                   ...        0 min,  0.001 sec
 * total energy  :   -23.0000896 Eh     change       -0.1388545E-02 Eh
   gradient norm :     0.0265553 Eh/α   predicted    -0.3801964E-02 ( 173.81%)
   displ. norm   :     0.4013251 α      lambda       -0.4188440E-02
   maximum displ.:     0.3340142 α      in ANC's #3, #1, #4, ...

........................................................................
.............................. CYCLE   29 ..............................
........................................................................
   1    -23.2029474 -0.232029E+02  0.198E-01    6.11       0.0  T
   2    -23.2030115 -0.641117E-04  0.116E-01    6.07       1.0  T
   3    -23.2030194 -0.793392E-05  0.466E-02    6.05       1.0  T
   4    -23.2030243 -0.489113E-05  0.228E-02    6.04       1.1  T
   5    -23.2030262 -0.186752E-05  0.138E-02    6.04       1.8  T
   6    -23.2030271 -0.889739E-06  0.625E-03    6.05       4.0  T
   7    -23.2030273 -0.171527E-06  0.130E-03    6.05      19.3  T
   8    -23.2030273 -0.483866E-08  0.514E-04    6.05      48.6  T
   9    -23.2030273 -0.602039E-09  0.273E-04    6.05      91.4  T
     SCC iter.                  ...        0 min,  0.007 sec
     gradient                   ...        0 min,  0.001 sec
 * total energy  :   -23.0028224 Eh     change       -0.2732777E-02 Eh
   gradient norm :     0.0103970 Eh/α   predicted    -0.2431521E-02 ( -11.02%)
   displ. norm   :     0.4621373 α      lambda       -0.1967674E-02
   maximum displ.:     0.4233458 α      in ANC's #3, #2, #4, ...

........................................................................
.............................. CYCLE   30 ..............................
........................................................................
   1    -23.2019733 -0.232020E+02  0.135E-01    6.01       0.0  T
   2    -23.2019889 -0.156641E-04  0.823E-02    5.99       1.0  T
   3    -23.2019961 -0.718386E-05  0.300E-02    5.99       1.0  T
   4    -23.2019986 -0.249580E-05  0.211E-02    5.99       1.2  T
   5    -23.2020005 -0.191625E-05  0.109E-02    5.99       2.3  T
   6    -23.2020011 -0.574394E-06  0.257E-03    5.99       9.7  T
   7    -23.2020011 -0.195044E-07  0.969E-04    5.99      25.8  T
   8    -23.2020011 -0.214517E-08  0.300E-04    5.99      83.2  T
     SCC iter.                  ...        0 min,  0.006 sec
     gradient                   ...        0 min,  0.001 sec
 * total energy  :   -23.0045678 Eh     change       -0.1745360E-02 Eh
   gradient norm :     0.0119552 Eh/α   predicted    -0.1193957E-02 ( -31.59%)
   displ. norm   :     0.5366984 α      lambda       -0.2208161E-02
   maximum displ.:     0.4802336 α      in ANC's #3, #2, #1, ...

........................................................................
.............................. CYCLE   31 ..............................
........................................................................
   1    -23.2034577 -0.232035E+02  0.139E-01    6.07       0.0  T
   2    -23.2034751 -0.174154E-04  0.851E-02    6.04       1.0  T
   3    -23.2034837 -0.854524E-05  0.313E-02    6.03       1.0  T
   4    -23.2034864 -0.268237E-05  0.221E-02    6.03       1.1  T
   5    -23.2034884 -0.199635E-05  0.122E-02    6.03       2.0  T
   6    -23.2034891 -0.725789E-06  0.284E-03    6.03       8.8  T
   7    -23.2034891 -0.207518E-07  0.831E-04    6.03      30.1  T
   8    -23.2034891 -0.175578E-08  0.299E-04    6.03      83.6  T
     SCC iter.                  ...        0 min,  0.006 sec
     gradient                   ...        0 min,  0.001 sec
 * total energy  :   -23.0065556 Eh     change       -0.1987831E-02 Eh
   gradient norm :     0.0129514 Eh/α   predicted    -0.1422093E-02 ( -28.46%)
   displ. norm   :     0.7789407 α      lambda       -0.3221504E-02
   maximum displ.:     0.6956999 α      in ANC's #3, #1, #2, ...

........................................................................
.............................. CYCLE   32 ..............................
........................................................................
   1    -23.2062615 -0.232063E+02  0.182E-01    6.21       0.0  T
   2    -23.2062994 -0.378159E-04  0.110E-01    6.17       1.0  T
   3    -23.2063137 -0.143761E-04  0.418E-02    6.14       1.0  T
   4    -23.2063185 -0.471425E-05  0.284E-02    6.14       1.0  T
   5    -23.2063215 -0.309122E-05  0.170E-02    6.14       1.5  T
   6    -23.2063230 -0.142889E-05  0.474E-03    6.15       5.3  T
   7    -23.2063230 -0.638210E-07  0.127E-03    6.15      19.7  T
   8    -23.2063230 -0.475683E-08  0.454E-04    6.15      55.0  T
   9    -23.2063230 -0.419814E-09  0.253E-04    6.15      98.7  T
     SCC iter.                  ...        0 min,  0.007 sec
     gradient                   ...        0 min,  0.001 sec
 * total energy  :   -23.0094004 Eh     change       -0.2844821E-02 Eh
   gradient norm :     0.0161916 Eh/α   predicted    -0.2588100E-02 (  -9.02%)
   displ. norm   :     0.7369794 α      lambda       -0.3711934E-02
   maximum displ.:     0.6103243 α      in ANC's #3, #1, #2, ...

........................................................................
.............................. CYCLE   33 ..............................
........................................................................
   1    -23.2132861 -0.232133E+02  0.152E-01    6.49       0.0  T
   2    -23.2133145 -0.284442E-04  0.899E-02    6.45       1.0  T
   3    -23.2133240 -0.950189E-05  0.332E-02    6.43       1.0  T
   4    -23.2133269 -0.283442E-05  0.221E-02    6.42       1.1  T
   5    -23.2133287 -0.181437E-05  0.137E-02    6.43       1.8  T
   6    -23.2133296 -0.943753E-06  0.440E-03    6.43       5.7  T
   7    -23.2133297 -0.602675E-07  0.925E-04    6.43      27.0  T
   8    -23.2133297 -0.157804E-08  0.281E-04    6.43      88.9  T
     SCC iter.                  ...        0 min,  0.006 sec
     gradient                   ...        0 min,  0.001 sec
 * total energy  :   -23.0129247 Eh     change       -0.3524251E-02 Eh
   gradient norm :     0.0157424 Eh/α   predicted    -0.2864006E-02 ( -18.73%)
   displ. norm   :     0.7888186 α      lambda       -0.5907855E-02
   maximum displ.:     0.5835947 α      in ANC's #1, #3, #10, ...

........................................................................
.............................. CYCLE   34 ..............................
........................................................................
   1    -23.2273087 -0.232273E+02  0.159E-01    7.10       0.0  T
   2    -23.2273414 -0.326853E-04  0.920E-02    7.09       1.0  T
   3    -23.2273499 -0.854179E-05  0.321E-02    7.08       1.0  T
   4    -23.2273524 -0.243871E-05  0.208E-02    7.08       1.2  T
   5    -23.2273540 -0.160555E-05  0.122E-02    7.08       2.0  T
   6    -23.2273547 -0.691171E-06  0.576E-03    7.08       4.3  T
   7    -23.2273548 -0.146682E-06  0.155E-03    7.08      16.1  T
   8    -23.2273548 -0.581081E-08  0.381E-04    7.08      65.6  T
   9    -23.2273548 -0.228471E-09  0.190E-04    7.08     131.6  T
     SCC iter.                  ...        0 min,  0.007 sec
     gradient                   ...        0 min,  0.001 sec
 * total energy  :   -23.0184685 Eh     change       -0.5543835E-02 Eh
   gradient norm :     0.0193569 Eh/α   predicted    -0.4791967E-02 ( -13.56%)
   displ. norm   :     0.9064033 α      lambda       -0.7199124E-02
   maximum displ.:     0.7060148 α      in ANC's #1, #3, #5, ...

........................................................................
.............................. CYCLE   35 ..............................
........................................................................
   1    -23.2357917 -0.232358E+02  0.214E-01    7.67       0.0  T
   2    -23.2358461 -0.543480E-04  0.121E-01    7.68       1.0  T
   3    -23.2358605 -0.144857E-04  0.379E-02    7.69       1.0  T
   4    -23.2358636 -0.304613E-05  0.237E-02    7.70       1.1  T
   5    -23.2358655 -0.187619E-05  0.151E-02    7.70       1.7  T
   6    -23.2358666 -0.112605E-05  0.677E-03    7.70       3.7  T
   7    -23.2358668 -0.202418E-06  0.129E-03    7.70      19.3  T
   8    -23.2358668 -0.380797E-08  0.386E-04    7.70      64.7  T
   9    -23.2358668 -0.145217E-09  0.177E-04    7.70     141.5  T
     SCC iter.                  ...        0 min,  0.007 sec
     gradient                   ...        0 min,  0.001 sec
 * total energy  :   -23.0251201 Eh     change       -0.6651584E-02 Eh
   gradient norm :     0.0274638 Eh/α   predicted    -0.6556880E-02 (  -1.42%)
   displ. norm   :     0.7319690 α      lambda       -0.6693069E-02
   maximum displ.:     0.6309292 α      in ANC's #1, #5, #3, ...

........................................................................
.............................. CYCLE   36 ..............................
........................................................................
   1    -23.2326187 -0.232326E+02  0.439E-01    8.16       0.0  T
   2    -23.2329440 -0.325379E-03  0.251E-01    8.29       1.0  T
   3    -23.2329733 -0.292916E-04  0.726E-02    8.38       1.0  T
   4    -23.2329771 -0.382238E-05  0.243E-02    8.39       1.0  T
   5    -23.2329786 -0.143837E-05  0.162E-02    8.38       1.5  T
   6    -23.2329795 -0.905951E-06  0.101E-02    8.38       2.5  T
   7    -23.2329801 -0.567088E-06  0.268E-03    8.38       9.3  T
   8    -23.2329801 -0.321533E-07  0.969E-04    8.38      25.8  T
   9    -23.2329801 -0.189404E-08  0.233E-04    8.38     107.3  T
     SCC iter.                  ...        0 min,  0.007 sec
     gradient                   ...        0 min,  0.001 sec
 * total energy  :   -23.0269882 Eh     change       -0.1868152E-02 Eh
   gradient norm :     0.0415214 Eh/α   predicted    -0.5139519E-02 ( 175.11%)
   displ. norm   :     0.5007486 α      lambda       -0.8100195E-02
   maximum displ.:     0.4785272 α      in ANC's #3, #2, #4, ...

........................................................................
.............................. CYCLE   37 ..............................
........................................................................
   1    -23.2336927 -0.232337E+02  0.225E-01    8.18       0.0  T
   2    -23.2337369 -0.442451E-04  0.137E-01    8.14       1.0  T
   3    -23.2337554 -0.185043E-04  0.414E-02    8.11       1.0  T
   4    -23.2337601 -0.469381E-05  0.272E-02    8.11       1.0  T
   5    -23.2337629 -0.279956E-05  0.170E-02    8.12       1.5  T
   6    -23.2337644 -0.146915E-05  0.679E-03    8.12       3.7  T
   7    -23.2337646 -0.213581E-06  0.148E-03    8.12      16.9  T
   8    -23.2337646 -0.379965E-08  0.700E-04    8.12      35.7  T
   9    -23.2337646 -0.117202E-08  0.299E-04    8.12      83.6  T
     SCC iter.                  ...        0 min,  0.007 sec
     gradient                   ...        0 min,  0.001 sec
 * total energy  :   -23.0315937 Eh     change       -0.4605486E-02 Eh
   gradient norm :     0.0250954 Eh/α   predicted    -0.5065652E-02 (   9.99%)
   displ. norm   :     0.3554631 α      lambda       -0.5177693E-02
   maximum displ.:     0.1437056 α      in ANC's #5, #4, #27, ...

........................................................................
.............................. CYCLE   38 ..............................
........................................................................
   1    -23.2309110 -0.232309E+02  0.215E-01    7.65       0.0  T
   2    -23.2309578 -0.468070E-04  0.126E-01    7.70       1.0  T
   3    -23.2309653 -0.743181E-05  0.315E-02    7.75       1.0  T
   4    -23.2309673 -0.201847E-05  0.164E-02    7.75       1.5  T
   5    -23.2309680 -0.713601E-06  0.116E-02    7.75       2.2  T
   6    -23.2309686 -0.578601E-06  0.611E-03    7.75       4.1  T
   7    -23.2309688 -0.192541E-06  0.231E-03    7.75      10.8  T
   8    -23.2309688 -0.151412E-07  0.757E-04    7.75      33.0  T
   9    -23.2309688 -0.133581E-08  0.249E-04    7.75     100.4  T
     SCC iter.                  ...        0 min,  0.009 sec
     gradient                   ...        0 min,  0.001 sec
 * total energy  :   -23.0339907 Eh     change       -0.2396936E-02 Eh
   gradient norm :     0.0284314 Eh/α   predicted    -0.2915954E-02 (  21.65%)
   displ. norm   :     0.6873668 α      lambda       -0.6048542E-02
   maximum displ.:     0.3727610 α      in ANC's #3, #1, #5, ...

........................................................................
.............................. CYCLE   39 ..............................
........................................................................
   1    -23.2251373 -0.232251E+02  0.456E-01    7.66       0.0  T
   2    -23.2258456 -0.708248E-03  0.259E-01    7.91       1.0  T
   3    -23.2258882 -0.425651E-04  0.105E-01    8.04       1.0  T
   4    -23.2258990 -0.107971E-04  0.359E-02    8.09       1.0  T
   5    -23.2259026 -0.360000E-05  0.232E-02    8.08       1.1  T
   6    -23.2259053 -0.270368E-05  0.127E-02    8.08       2.0  T
   7    -23.2259063 -0.106737E-05  0.347E-03    8.08       7.2  T
   8    -23.2259064 -0.568638E-07  0.159E-03    8.08      15.8  T
   9    -23.2259064 -0.737848E-08  0.786E-04    8.07      31.8  T
  10    -23.2259064 -0.185311E-08  0.421E-04    8.07      59.4  T
     SCC iter.                  ...        0 min,  0.008 sec
     gradient                   ...        0 min,  0.001 sec
 * total energy  :   -23.0380604 Eh     change       -0.4069751E-02 Eh
   gradient norm :     0.0300538 Eh/α   predicted    -0.4453167E-02 (   9.42%)
   displ. norm   :     0.6160876 α      lambda       -0.4250660E-02
   maximum displ.:     0.3699492 α      in ANC's #3, #1, #2, ...

........................................................................
.............................. CYCLE   40 ..............................
........................................................................
   1    -23.2308856 -0.232309E+02  0.338E-01    8.31       0.0  T
   2    -23.2311519 -0.266320E-03  0.199E-01    8.46       1.0  T
   3    -23.2311899 -0.379601E-04  0.836E-02    8.55       1.0  T
   4    -23.2312054 -0.155745E-04  0.478E-02    8.57       1.0  T
   5    -23.2312132 -0.775456E-05  0.319E-02    8.56       1.0  T
   6    -23.2312195 -0.633776E-05  0.105E-02    8.55       2.4  T
   7    -23.2312201 -0.572398E-06  0.313E-03    8.55       8.0  T
   8    -23.2312201 -0.365172E-07  0.180E-03    8.55      13.9  T
   9    -23.2312202 -0.128378E-07  0.128E-03    8.55      19.6  T
  10    -23.2312202 -0.997299E-08  0.568E-04    8.55      44.0  T
  11    -23.2312202 -0.197588E-08  0.207E-04    8.55     120.7  T
     SCC iter.                  ...        0 min,  0.008 sec
     gradient                   ...        0 min,  0.001 sec
 * total energy  :   -23.0400883 Eh     change       -0.2027896E-02 Eh
   gradient norm :     0.0236709 Eh/α   predicted    -0.2932013E-02 (  44.58%)
   displ. norm   :     0.5400857 α      lambda       -0.3006841E-02
   maximum displ.:     0.3393352 α      in ANC's #3, #2, #4, ...

........................................................................
.............................. CYCLE   41 ..............................
........................................................................
   1    -23.2314986 -0.232315E+02  0.355E-01    8.83       0.0  T
   2    -23.2317300 -0.231381E-03  0.213E-01    8.97       1.0  T
   3    -23.2317861 -0.561428E-04  0.851E-02    9.06       1.0  T
   4    -23.2318057 -0.195955E-04  0.561E-02    9.07       1.0  T
   5    -23.2318233 -0.175224E-04  0.247E-02    9.05       1.0  T
   6    -23.2318271 -0.382976E-05  0.110E-02    9.05       2.3  T
   7    -23.2318278 -0.733669E-06  0.375E-03    9.05       6.7  T
   8    -23.2318279 -0.567888E-07  0.229E-03    9.05      10.9  T
   9    -23.2318279 -0.241298E-07  0.133E-03    9.05      18.7  T
  10    -23.2318279 -0.986843E-08  0.651E-04    9.05      38.4  T
  11    -23.2318279 -0.204215E-08  0.233E-04    9.05     107.1  T
     SCC iter.                  ...        0 min,  0.008 sec
     gradient                   ...        0 min,  0.001 sec
 * total energy  :   -23.0405451 Eh     change       -0.4567745E-03 Eh
   gradient norm :     0.0372187 Eh/α   predicted    -0.1941952E-02 ( 325.14%)
   displ. norm   :     0.3199823 α      lambda       -0.3247834E-02
   maximum displ.:     0.1875360 α      in ANC's #3, #2, #6, ...

........................................................................
.............................. CYCLE   42 ..............................
........................................................................
   1    -23.2334785 -0.232335E+02  0.201E-01    8.65       0.0  T
   2    -23.2335086 -0.300175E-04  0.114E-01    8.68       1.0  T
   3    -23.2335148 -0.629281E-05  0.274E-02    8.70       1.0  T
   4    -23.2335162 -0.136115E-05  0.152E-02    8.71       1.6  T
   5    -23.2335169 -0.692466E-06  0.998E-03    8.71       2.5  T
   6    -23.2335173 -0.430220E-06  0.587E-03    8.71       4.3  T
   7    -23.2335175 -0.184705E-06  0.209E-03    8.71      12.0  T
   8    -23.2335175 -0.156739E-07  0.552E-04    8.71      45.3  T
   9    -23.2335175 -0.973127E-09  0.388E-04    8.71      64.5  T
     SCC iter.                  ...        0 min,  0.007 sec
     gradient                   ...        0 min,  0.001 sec
 * total energy  :   -23.0416625 Eh     change       -0.1117412E-02 Eh
   gradient norm :     0.0317539 Eh/α   predicted    -0.1790189E-02 (  60.21%)
   displ. norm   :     0.2385790 α      lambda       -0.2150976E-02
   maximum displ.:     0.1343888 α      in ANC's #5, #4, #8, ...
 * RMSD in coord.:     2.1504178 α      energy gain  -0.5326709E-01 Eh

generating ANC from model Hessian ...
Using Lindh-Hessian (1995)
 Shifting diagonal of input Hessian by    9.3786694958515777E-003
 Lowest  eigenvalues of input Hessian
    0.000000    0.000000    0.000000    0.000000    0.000000    0.000000
    0.010000    0.011944    0.014239    0.020743    0.023575    0.028089
    0.030966    0.038202    0.044863    0.060309    0.064018    0.065996
 Highest eigenvalues
    1.208384    1.255866    1.278251    1.391891    1.489505    1.493385


........................................................................
.............................. CYCLE   43 ..............................
........................................................................
   1    -23.2428344 -0.232428E+02  0.221E-01    8.86       0.0  T
   2    -23.2429679 -0.133477E-03  0.137E-01    8.77       1.0  T
   3    -23.2429895 -0.216227E-04  0.602E-02    8.72       1.0  T
   4    -23.2429979 -0.842578E-05  0.355E-02    8.71       1.0  T
   5    -23.2430028 -0.483376E-05  0.238E-02    8.72       1.0  T
   6    -23.2430070 -0.419076E-05  0.970E-03    8.73       2.6  T
   7    -23.2430077 -0.702241E-06  0.191E-03    8.73      13.1  T
   8    -23.2430077 -0.118913E-07  0.107E-03    8.73      23.3  T
   9    -23.2430077 -0.311120E-08  0.522E-04    8.73      47.9  T
  10    -23.2430077 -0.908237E-09  0.313E-04    8.73      80.0  T
     SCC iter.                  ...        0 min,  0.008 sec
     gradient                   ...        0 min,  0.001 sec
 * total energy  :   -23.0419252 Eh     change       -0.2627245E-03 Eh
   gradient norm :     0.0196173 Eh/α   predicted     0.0000000E+00 (-100.00%)
   displ. norm   :     0.1193589 α      lambda       -0.1211354E-02
   maximum displ.:     0.0603674 α      in ANC's #6, #18, #1, ...

........................................................................
.............................. CYCLE   44 ..............................
........................................................................
   1    -23.2393766 -0.232394E+02  0.905E-02    8.76       0.0  T
   2    -23.2393802 -0.359649E-05  0.547E-02    8.76       1.0  T
   3    -23.2393822 -0.206825E-05  0.139E-02    8.77       1.8  T
   4    -23.2393827 -0.454227E-06  0.106E-02    8.77       2.4  T
   5    -23.2393832 -0.560193E-06  0.534E-03    8.77       4.7  T
   6    -23.2393834 -0.172985E-06  0.283E-03    8.77       8.8  T
   7    -23.2393835 -0.544735E-07  0.755E-04    8.76      33.1  T
   8    -23.2393835 -0.207477E-08  0.376E-04    8.76      66.6  T
     SCC iter.                  ...        0 min,  0.006 sec
     gradient                   ...        0 min,  0.001 sec
 * total energy  :   -23.0427710 Eh     change       -0.8457921E-03 Eh
   gradient norm :     0.0072328 Eh/α   predicted    -0.6143070E-03 ( -27.37%)
   displ. norm   :     0.1619017 α      lambda       -0.6094815E-03
   maximum displ.:     0.0675362 α      in ANC's #6, #4, #1, ...

........................................................................
.............................. CYCLE   45 ..............................
........................................................................
   1    -23.2368129 -0.232368E+02  0.833E-02    8.74       0.0  T
   2    -23.2368155 -0.253740E-05  0.497E-02    8.75       1.0  T
   3    -23.2368166 -0.107828E-05  0.950E-03    8.76       2.6  T
   4    -23.2368167 -0.187630E-06  0.662E-03    8.76       3.8  T
   5    -23.2368169 -0.162408E-06  0.385E-03    8.76       6.5  T
   6    -23.2368170 -0.875560E-07  0.226E-03    8.76      11.1  T
   7    -23.2368170 -0.395174E-07  0.775E-04    8.76      32.2  T
   8    -23.2368170 -0.345045E-08  0.237E-04    8.76     105.3  T
     SCC iter.                  ...        0 min,  0.006 sec
     gradient                   ...        0 min,  0.001 sec
 * total energy  :   -23.0431671 Eh     change       -0.3960783E-03 Eh
   gradient norm :     0.0092445 Eh/α   predicted    -0.3127293E-03 ( -21.04%)
   displ. norm   :     0.1460663 α      lambda       -0.2827399E-03
   maximum displ.:     0.0663328 α      in ANC's #7, #1, #3, ...

........................................................................
.............................. CYCLE   46 ..............................
........................................................................
   1    -23.2365791 -0.232366E+02  0.630E-02    8.73       0.0  T
   2    -23.2365807 -0.164628E-05  0.376E-02    8.74       1.0  T
   3    -23.2365814 -0.636683E-06  0.722E-03    8.75       3.5  T
   4    -23.2365815 -0.115289E-06  0.479E-03    8.75       5.2  T
   5    -23.2365816 -0.770149E-07  0.291E-03    8.75       8.6  T
   6    -23.2365816 -0.423238E-07  0.144E-03    8.75      17.3  T
   7    -23.2365816 -0.109272E-07  0.447E-04    8.75      55.9  T
   8    -23.2365816 -0.789456E-09  0.177E-04    8.75     141.1  T
     SCC iter.                  ...        0 min,  0.006 sec
     gradient                   ...        0 min,  0.001 sec
 * total energy  :   -23.0433819 Eh     change       -0.2147872E-03 Eh
   gradient norm :     0.0103375 Eh/α   predicted    -0.1443888E-03 ( -32.78%)
   displ. norm   :     0.2070587 α      lambda       -0.3668730E-03
   maximum displ.:     0.1187561 α      in ANC's #3, #7, #2, ...

........................................................................
.............................. CYCLE   47 ..............................
........................................................................
   1    -23.2379264 -0.232379E+02  0.901E-02    8.75       0.0  T
   2    -23.2379318 -0.541759E-05  0.524E-02    8.77       1.0  T
   3    -23.2379329 -0.101842E-05  0.934E-03    8.79       2.7  T
   4    -23.2379330 -0.145760E-06  0.523E-03    8.79       4.8  T
   5    -23.2379331 -0.753000E-07  0.314E-03    8.79       8.0  T
   6    -23.2379331 -0.416047E-07  0.191E-03    8.79      13.1  T
   7    -23.2379331 -0.223300E-07  0.669E-04    8.79      37.4  T
   8    -23.2379332 -0.232081E-08  0.233E-04    8.79     107.5  T
     SCC iter.                  ...        0 min,  0.006 sec
     gradient                   ...        0 min,  0.001 sec
 * total energy  :   -23.0436299 Eh     change       -0.2479657E-03 Eh
   gradient norm :     0.0067434 Eh/α   predicted    -0.1913027E-03 ( -22.85%)
   displ. norm   :     0.1359638 α      lambda       -0.1901495E-03
   maximum displ.:     0.0822241 α      in ANC's #7, #3, #1, ...

........................................................................
.............................. CYCLE   48 ..............................
........................................................................
   1    -23.2397553 -0.232398E+02  0.648E-02    8.81       0.0  T
   2    -23.2397603 -0.503267E-05  0.372E-02    8.83       1.0  T
   3    -23.2397611 -0.763196E-06  0.956E-03    8.84       2.6  T
   4    -23.2397613 -0.159850E-06  0.537E-03    8.84       4.7  T
   5    -23.2397614 -0.118536E-06  0.285E-03    8.84       8.8  T
   6    -23.2397614 -0.495287E-07  0.137E-03    8.84      18.3  T
   7    -23.2397614 -0.125093E-07  0.485E-04    8.84      51.5  T
   8    -23.2397614 -0.125126E-08  0.249E-04    8.84     100.4  T
     SCC iter.                  ...        0 min,  0.006 sec
     gradient                   ...        0 min,  0.001 sec
 * total energy  :   -23.0437593 Eh     change       -0.1294263E-03 Eh
   gradient norm :     0.0034543 Eh/α   predicted    -0.9683337E-04 ( -25.18%)
   displ. norm   :     0.1464441 α      lambda       -0.1446953E-03
   maximum displ.:     0.0979004 α      in ANC's #3, #7, #6, ...

........................................................................
.............................. CYCLE   49 ..............................
........................................................................
   1    -23.2407306 -0.232407E+02  0.772E-02    8.87       0.0  T
   2    -23.2407414 -0.108192E-04  0.438E-02    8.90       1.0  T
   3    -23.2407429 -0.149701E-05  0.137E-02    8.92       1.8  T
   4    -23.2407433 -0.357099E-06  0.766E-03    8.92       3.3  T
   5    -23.2407435 -0.219468E-06  0.503E-03    8.92       5.0  T
   6    -23.2407437 -0.176967E-06  0.251E-03    8.92      10.0  T
   7    -23.2407437 -0.549297E-07  0.721E-04    8.92      34.7  T
   8    -23.2407437 -0.319443E-08  0.251E-04    8.92      99.7  T
     SCC iter.                  ...        0 min,  0.006 sec
     gradient                   ...        0 min,  0.001 sec
 * total energy  :   -23.0438723 Eh     change       -0.1130670E-03 Eh
   gradient norm :     0.0042660 Eh/α   predicted    -0.7389879E-04 ( -34.64%)
   displ. norm   :     0.2967140 α      lambda       -0.2684472E-03
   maximum displ.:     0.1880745 α      in ANC's #7, #3, #2, ...

........................................................................
.............................. CYCLE   50 ..............................
........................................................................
   1    -23.2406280 -0.232406E+02  0.151E-01    8.94       0.0  T
   2    -23.2406734 -0.453909E-04  0.861E-02    9.00       1.0  T
   3    -23.2406799 -0.645507E-05  0.281E-02    9.03       1.0  T
   4    -23.2406814 -0.157759E-05  0.158E-02    9.03       1.6  T
   5    -23.2406824 -0.969129E-06  0.107E-02    9.03       2.3  T
   6    -23.2406833 -0.848761E-06  0.533E-03    9.03       4.7  T
   7    -23.2406835 -0.262171E-06  0.142E-03    9.02      17.6  T
   8    -23.2406835 -0.128588E-07  0.400E-04    9.02      62.5  T
   9    -23.2406835 -0.453959E-09  0.150E-04    9.02     166.3  T
     SCC iter.                  ...        0 min,  0.007 sec
     gradient                   ...        0 min,  0.001 sec
 * total energy  :   -23.0440828 Eh     change       -0.2104752E-03 Eh
   gradient norm :     0.0044540 Eh/α   predicted    -0.1460403E-03 ( -30.61%)
   displ. norm   :     0.3974522 α      lambda       -0.3497715E-03
   maximum displ.:     0.2156006 α      in ANC's #7, #2, #3, ...

........................................................................
.............................. CYCLE   51 ..............................
........................................................................
   1    -23.2396272 -0.232396E+02  0.196E-01    9.08       0.0  T
   2    -23.2397091 -0.819156E-04  0.112E-01    9.14       1.0  T
   3    -23.2397213 -0.121641E-04  0.392E-02    9.18       1.0  T
   4    -23.2397246 -0.334248E-05  0.226E-02    9.18       1.1  T
   5    -23.2397266 -0.199341E-05  0.157E-02    9.18       1.6  T
   6    -23.2397286 -0.196836E-05  0.744E-03    9.17       3.4  T
   7    -23.2397291 -0.504251E-06  0.191E-03    9.17      13.1  T
   8    -23.2397291 -0.206653E-07  0.943E-04    9.17      26.5  T
   9    -23.2397291 -0.271319E-08  0.591E-04    9.17      42.3  T
     SCC iter.                  ...        0 min,  0.007 sec
     gradient                   ...        0 min,  0.001 sec
 * total energy  :   -23.0443054 Eh     change       -0.2226267E-03 Eh
   gradient norm :     0.0072763 Eh/α   predicted    -0.2025080E-03 (  -9.04%)
   displ. norm   :     0.1886484 α      lambda       -0.2175992E-03
   maximum displ.:     0.1460541 α      in ANC's #2, #1, #7, ...

........................................................................
.............................. CYCLE   52 ..............................
........................................................................
   1    -23.2409120 -0.232409E+02  0.736E-02    9.15       0.0  T
   2    -23.2409207 -0.871276E-05  0.424E-02    9.17       1.0  T
   3    -23.2409219 -0.118249E-05  0.128E-02    9.18       2.0  T
   4    -23.2409222 -0.301205E-06  0.701E-03    9.18       3.6  T
   5    -23.2409223 -0.134929E-06  0.517E-03    9.18       4.8  T
   6    -23.2409225 -0.160297E-06  0.232E-03    9.18      10.8  T
   7    -23.2409225 -0.356921E-07  0.676E-04    9.18      37.0  T
   8    -23.2409225 -0.233861E-08  0.465E-04    9.18      53.8  T
     SCC iter.                  ...        0 min,  0.006 sec
     gradient                   ...        0 min,  0.001 sec
 * total energy  :   -23.0444713 Eh     change       -0.1658901E-03 Eh
   gradient norm :     0.0063469 Eh/α   predicted    -0.1126718E-03 ( -32.08%)
   displ. norm   :     0.2225316 α      lambda       -0.2456123E-03
   maximum displ.:     0.1833541 α      in ANC's #2, #1, #5, ...

........................................................................
.............................. CYCLE   53 ..............................
........................................................................
   1    -23.2406757 -0.232407E+02  0.748E-02    9.08       0.0  T
   2    -23.2406812 -0.556282E-05  0.439E-02    9.09       1.0  T
   3    -23.2406823 -0.102663E-05  0.109E-02    9.10       2.3  T
   4    -23.2406825 -0.224515E-06  0.640E-03    9.10       3.9  T
   5    -23.2406826 -0.105988E-06  0.454E-03    9.10       5.5  T
   6    -23.2406827 -0.937965E-07  0.237E-03    9.10      10.5  T
   7    -23.2406827 -0.266922E-07  0.396E-04    9.10      63.2  T
   8    -23.2406827 -0.448100E-09  0.136E-04    9.10     183.4  T
     SCC iter.                  ...        0 min,  0.006 sec
     gradient                   ...        0 min,  0.001 sec
 * total energy  :   -23.0446150 Eh     change       -0.1436337E-03 Eh
   gradient norm :     0.0043782 Eh/α   predicted    -0.1288871E-03 ( -10.27%)
   displ. norm   :     0.1251701 α      lambda       -0.8903880E-04
   maximum displ.:     0.1041459 α      in ANC's #2, #1, #5, ...

........................................................................
.............................. CYCLE   54 ..............................
........................................................................
   1    -23.2416977 -0.232417E+02  0.432E-02    9.09       0.0  T
   2    -23.2416983 -0.609243E-06  0.260E-02    9.09       1.0  T
   3    -23.2416987 -0.404747E-06  0.638E-03    9.09       3.9  T
   4    -23.2416988 -0.102295E-06  0.493E-03    9.09       5.1  T
   5    -23.2416989 -0.107029E-06  0.257E-03    9.09       9.7  T
   6    -23.2416990 -0.375443E-07  0.679E-04    9.09      36.8  T
   7    -23.2416990 -0.993861E-09  0.219E-04    9.09     114.4  T
     SCC iter.                  ...        0 min,  0.005 sec
     gradient                   ...        0 min,  0.001 sec
 * total energy  :   -23.0446661 Eh     change       -0.5113680E-04 Eh
   gradient norm :     0.0031382 Eh/α   predicted    -0.4521727E-04 ( -11.58%)
   displ. norm   :     0.1026880 α      lambda       -0.6216152E-04
   maximum displ.:     0.0742605 α      in ANC's #2, #7, #3, ...

........................................................................
.............................. CYCLE   55 ..............................
........................................................................
   1    -23.2408724 -0.232409E+02  0.401E-02    9.11       0.0  T
   2    -23.2408742 -0.175683E-05  0.235E-02    9.12       1.1  T
   3    -23.2408745 -0.323297E-06  0.641E-03    9.12       3.9  T
   4    -23.2408746 -0.830755E-07  0.381E-03    9.12       6.6  T
   5    -23.2408746 -0.520808E-07  0.263E-03    9.12       9.5  T
   6    -23.2408747 -0.495322E-07  0.131E-03    9.12      19.1  T
   7    -23.2408747 -0.145295E-07  0.509E-04    9.12      49.1  T
   8    -23.2408747 -0.183393E-08  0.243E-04    9.12     102.8  T
     SCC iter.                  ...        0 min,  0.006 sec
     gradient                   ...        0 min,  0.001 sec
 * total energy  :   -23.0447120 Eh     change       -0.4588610E-04 Eh
   gradient norm :     0.0025035 Eh/α   predicted    -0.3140733E-04 ( -31.55%)
   displ. norm   :     0.0888455 α      lambda       -0.7195588E-04
   maximum displ.:     0.0792961 α      in ANC's #2, #17, #5, ...

........................................................................
.............................. CYCLE   56 ..............................
........................................................................
   1    -23.2412154 -0.232412E+02  0.317E-02    9.14       0.0  T
   2    -23.2412160 -0.560204E-06  0.188E-02    9.14       1.3  T
   3    -23.2412161 -0.808786E-07  0.313E-03    9.14       8.0  T
   4    -23.2412161 -0.150963E-07  0.130E-03    9.14      19.2  T
   5    -23.2412161 -0.352994E-08  0.678E-04    9.14      36.9  T
   6    -23.2412161 -0.131165E-08  0.411E-04    9.14      60.8  T
     SCC iter.                  ...        0 min,  0.005 sec
     gradient                   ...        0 min,  0.001 sec
 * total energy  :   -23.0447669 Eh     change       -0.5495039E-04 Eh
   gradient norm :     0.0031998 Eh/α   predicted    -0.3626124E-04 ( -34.01%)
   displ. norm   :     0.1296214 α      lambda       -0.7427120E-04
   maximum displ.:     0.1153335 α      in ANC's #2, #1, #3, ...

........................................................................
[...]
   7    -23.2433605 -0.248070E-08  0.319E-04    9.03      78.3  T
     SCC iter.                  ...        0 min,  0.005 sec
     gradient                   ...        0 min,  0.001 sec
 * total energy  :   -23.0474720 Eh     change       -0.5411546E-05 Eh
   gradient norm :     0.0007980 Eh/α   predicted    -0.3797804E-05 ( -29.82%)
   displ. norm   :     0.0186461 α      lambda       -0.2301586E-05
   maximum displ.:     0.0128475 α      in ANC's #2, #3, #6, ...

........................................................................
.............................. CYCLE   80 ..............................
........................................................................
   1    -23.2433452 -0.232433E+02  0.614E-03    9.03       0.0  T
   2    -23.2433453 -0.427033E-07  0.364E-03    9.03       6.9  T
   3    -23.2433453 -0.806523E-08  0.988E-04    9.03      25.3  T
   4    -23.2433453 -0.187357E-08  0.556E-04    9.03      45.0  T
     SCC iter.                  ...        0 min,  0.003 sec
     gradient                   ...        0 min,  0.001 sec
 * total energy  :   -23.0474744 Eh     change       -0.2356590E-05 Eh
   gradient norm :     0.0004557 Eh/α   predicted    -0.1151978E-05 ( -51.12%)
   displ. norm   :     0.0341721 α      lambda       -0.2325412E-05
   maximum displ.:     0.0240717 α      in ANC's #3, #2, #1, ...

   *** GEOMETRY OPTIMIZATION CONVERGED AFTER 80 ITERATIONS ***

------------------------------------------------------------------------
 total energy gain   :        -0.0898388 Eh      -56.3747 kcal/mol
 total RMSD          :         3.1227066 a0        1.6525 Å
 total power (kW/mol):        -2.9483961 (step) -325.5126 (real)
------------------------------------------------------------------------

 ANCopt (total)                0 d,  0 h,  0 min,  0.725 sec
 optimizer setup                ...        0 min,  0.000 sec (  0.015%)
 model hessian                  ...        0 min,  0.024 sec (  3.253%)
 ANC generation                 ...        0 min,  0.003 sec (  0.380%)
 coordinate transformation      ...        0 min,  0.001 sec (  0.188%)
 single point calculation       ...        0 min,  0.675 sec ( 93.202%)
 optimization log               ...        0 min,  0.005 sec (  0.733%)
 hessian update                 ...        0 min,  0.002 sec (  0.235%)
 rational function              ...        0 min,  0.008 sec (  1.151%)

================
 final structure:
================
16
 xtb: 6.5.1 (fef0646)
O            3.18060857136374       -1.71520159709067       -0.30247678491666
C            2.31691443814891       -0.60614415337471       -0.38840323580749
C            2.60585033133327        0.25351537637030       -1.62850820058225
C            3.85672289424901        1.11805651002284       -1.50382497244204
N            5.04238553138678        0.29833670690536       -1.22690904350017
Cl           5.23218677376661       -0.18424925446364        1.59494609947705
H            3.83261701537350       -1.54761527269580        0.39396989093866
H            2.37746547718026        0.01260275921827        0.51074061114366
H            1.29609383667781       -0.99693363552275       -0.47319739144558
H            1.75189430762312        0.90671056519108       -1.80962830347817
H            2.70897847532488       -0.41624656234034       -2.48518594275364
H            3.74125979588408        1.82494014901162       -0.67833068665566
H            3.98084453644399        1.69028359107865       -2.43113789034575
H            4.96354407756053       -0.60924007137304       -1.67697787995878
H            5.14656601557319        0.06808909630444        0.14982429219942
H            5.89948792211293        0.75844579274309       -1.51234056189759

 Bond Distances (Angstroems)
 ---------------------------
O1-C2=1.4083         O1-H7=0.9686         C2-O1=1.4083         C2-C3=1.5363         C2-H8=1.0931         C2-H9=1.0963         
C3-C2=1.5363         C3-C4=1.5257         C3-H10=1.0903        C3-H11=1.0923        C4-C3=1.5257         C4-N5=1.4678         
C4-H12=1.0929        C4-H13=1.0967        N5-C4=1.4678         N5-H14=1.0161        N5-H16=1.0138        Cl6-H15=1.4695       
H7-O1=0.9686         H8-C2=1.0931         H9-C2=1.0963         H10-C3=1.0903        H11-C3=1.0923        H12-C4=1.0929        
H13-C4=1.0967        H14-N5=1.0161        H15-Cl6=1.4695       H16-N5=1.0138        
 C  H  Rav=1.0936 sigma=0.0023  Rmin=1.0903  Rmax=1.0967     6
 C  C  Rav=1.5310 sigma=0.0053  Rmin=1.5257  Rmax=1.5363     2
 N  H  Rav=1.0150 sigma=0.0012  Rmin=1.0138  Rmax=1.0161     2
 N  C  Rav=1.4678 sigma=0.0000  Rmin=1.4678  Rmax=1.4678     1
 O  H  Rav=0.9686 sigma=0.0000  Rmin=0.9686  Rmax=0.9686     1
 O  C  Rav=1.4083 sigma=0.0000  Rmin=1.4083  Rmax=1.4083     1
 Cl H  Rav=1.4695 sigma=0.0000  Rmin=1.4695  Rmax=1.4695     1

 selected bond angles (degree)
 --------------------
H7-O1-C2=108.69                C3-C2-O1=112.00                H8-C2-O1=111.20                H8-C2-C3=109.68                
H9-C2-O1=107.16                H9-C2-C3=108.19                H9-C2-H8=108.48                C4-C3-C2=113.91                
H10-C3-C2=108.79               H10-C3-C4=108.44               H11-C3-C2=107.92               H11-C3-C4=109.52               
H11-C3-H10=108.12              N5-C4-C3=111.18                H12-C4-C3=109.98               H12-C4-N5=107.70               
H13-C4-C3=108.62               H13-C4-N5=111.07               H13-C4-H12=108.25              H14-N5-C4=110.65               
H16-N5-C4=112.11               H16-N5-H14=110.26              

 selected dihedral angles (degree)
 ---------------------------------
C3-C2-O1-H7=105.65            H8-C2-O1-H7=342.54            H9-C2-O1-H7=224.14            C4-C3-C2-O1=284.58            
C4-C3-C2-H8= 48.54            C4-C3-C2-H9=166.70            H10-C3-C2-O1=163.50           H10-C3-C2-H8=287.46           
H10-C3-C2-H9= 45.62           H11-C3-C2-O1= 46.42           H11-C3-C2-H8=170.38           H11-C3-C2-H9=288.54           
N5-C4-C3-C2= 57.40            N5-C4-C3-H10=178.67           N5-C4-C3-H11=296.45           H12-C4-C3-C2=298.21           
H12-C4-C3-H10= 59.48          H12-C4-C3-H11=177.25          H13-C4-C3-C2=179.91           H13-C4-C3-H10=301.18          
H13-C4-C3-H11= 58.95          H14-N5-C4-C3= 32.82           H14-N5-C4-H12=153.36          H14-N5-C4-H13=271.74          
H16-N5-C4-C3=156.35           H16-N5-C4-H12=276.90          H16-N5-C4-H13= 35.27          

 CMA Distance (Angstroems)
 ---------------------------
R(CMA):  3.1270
           -------------------------------------------------
          |                Final Singlepoint                |
           -------------------------------------------------

          ...................................................
          :                      SETUP                      :
          :.................................................:
          :  # basis functions                  40          :
          :  # atomic orbitals                  39          :
          :  # shells                           23          :
          :  # electrons                        40          :
          :  max. iterations                   250          :
          :  Hamiltonian                  GFN2-xTB          :
          :  restarted?                      false          :
          :  GBSA solvation                  false          :
          :  PC potential                    false          :
          :  electronic temp.          300.0000000     K    :
          :  accuracy                    1.0000000          :
          :  -> integral cutoff          0.2500000E+02      :
          :  -> integral neglect         0.1000000E-07      :
          :  -> SCF convergence          0.1000000E-05 Eh   :
          :  -> wf. convergence          0.1000000E-03 e    :
          :  Broyden damping             0.4000000          :
          ...................................................

 iter      E             dE          RMSdq      gap      omega  full diag
   1    -23.2433453 -0.232433E+02  0.393E-04    9.03       0.0  T
   2    -23.2433453 -0.288523E-09  0.324E-04    9.03      77.2  T
   3    -23.2433453 -0.522327E-09  0.133E-04    9.03     187.8  T

   *** convergence criteria satisfied after 3 iterations ***

         #    Occupation            Energy/Eh            Energy/eV
      -------------------------------------------------------------
         1        2.0000           -1.0152172             -27.6255
       ...           ...                  ...                  ...
        14        2.0000           -0.4764173             -12.9640
        15        2.0000           -0.4670194             -12.7082
        16        2.0000           -0.4400530             -11.9745
        17        2.0000           -0.4061345             -11.0515
        18        2.0000           -0.4006700             -10.9028
        19        2.0000           -0.3939595             -10.7202
        20        2.0000           -0.3925495             -10.6818 (HOMO)
        21                         -0.0607386              -1.6528 (LUMO)
        22                          0.0099958               0.2720
        23                          0.0555410               1.5113
        24                          0.0655822               1.7846
        25                          0.0747224               2.0333
       ...                                ...                  ...
        39                          0.3079313               8.3792
      -------------------------------------------------------------
                  HL-Gap            0.3318109 Eh            9.0290 eV
             Fermi-level           -0.2266440 Eh           -6.1673 eV

 SCC (total)                   0 d,  0 h,  0 min,  0.004 sec
 SCC setup                      ...        0 min,  0.000 sec (  1.798%)
 Dispersion                     ...        0 min,  0.000 sec (  2.371%)
 classical contributions        ...        0 min,  0.000 sec (  0.521%)
 integral evaluation            ...        0 min,  0.001 sec ( 12.695%)
 iterations                     ...        0 min,  0.002 sec ( 54.476%)
 molecular gradient             ...        0 min,  0.001 sec ( 24.226%)
 printout                       ...        0 min,  0.000 sec (  1.806%)

         :::::::::::::::::::::::::::::::::::::::::::::::::::::
         ::                     SUMMARY                     ::
         :::::::::::::::::::::::::::::::::::::::::::::::::::::
         :: total energy             -23.047474392800 Eh    ::
         :: gradient norm              0.000456591401 Eh/a0 ::
         :: HOMO-LUMO gap              9.029034093284 eV    ::
         ::.................................................::
         :: SCC energy               -23.243345290948 Eh    ::
         :: -> isotropic ES            0.058115667823 Eh    ::
         :: -> anisotropic ES         -0.010484489620 Eh    ::
         :: -> anisotropic XC         -0.000428608481 Eh    ::
         :: -> dispersion             -0.009701769466 Eh    ::
         :: repulsion energy           0.195841642222 Eh    ::
         :: add. restraining           0.000000000000 Eh    ::
         :: total charge              -0.000000000000 e     ::
         :::::::::::::::::::::::::::::::::::::::::::::::::::::

           -------------------------------------------------
          |                Property Printout                |
           -------------------------------------------------

    * Orbital Energies and Occupations

         #    Occupation            Energy/Eh            Energy/eV
      -------------------------------------------------------------
         1        2.0000           -1.0152172             -27.6255
       ...           ...                  ...                  ...
         8        2.0000           -0.5669685             -15.4280
         9        2.0000           -0.5500620             -14.9679
        10        2.0000           -0.5360789             -14.5874
        11        2.0000           -0.5217966             -14.1988
        12        2.0000           -0.5082044             -13.8289
        13        2.0000           -0.4934510             -13.4275
        14        2.0000           -0.4764173             -12.9640
        15        2.0000           -0.4670194             -12.7082
        16        2.0000           -0.4400530             -11.9745
        17        2.0000           -0.4061345             -11.0515
        18        2.0000           -0.4006700             -10.9028
        19        2.0000           -0.3939595             -10.7202
        20        2.0000           -0.3925495             -10.6818 (HOMO)
        21                         -0.0607386              -1.6528 (LUMO)
        22                          0.0099958               0.2720
        23                          0.0555410               1.5113
        24                          0.0655822               1.7846
        25                          0.0747224               2.0333
        26                          0.0753468               2.0503
        27                          0.0786267               2.1395
        28                          0.0787442               2.1427
        29                          0.0888680               2.4182
        30                          0.0989859               2.6935
        31                          0.1299577               3.5363
       ...                                ...                  ...
        39                          0.3079313               8.3792
      -------------------------------------------------------------
                  HL-Gap            0.3318109 Eh            9.0290 eV
             Fermi-level           -0.2266440 Eh           -6.1673 eV

     #   Z          covCN         q      C6AA      α(0)
     1   8 O        1.655    -0.460    22.048     6.339
     2   6 C        3.673     0.074    19.576     6.341
     3   6 C        3.800    -0.080    22.033     6.683
     4   6 C        3.731    -0.000    20.681     6.492
     5   7 N        2.992    -0.266    26.875     7.700
     6  17 Cl       0.810    -0.568   118.124    16.626
     7   1 H        0.805     0.316     0.674     1.290
     8   1 H        0.924     0.036     2.504     2.475
     9   1 H        0.924     0.040     2.443     2.444
    10   1 H        0.924     0.047     2.357     2.401
    11   1 H        0.924     0.056     2.251     2.346
    12   1 H        0.924     0.064     2.149     2.292
    13   1 H        0.924     0.038     2.480     2.463
    14   1 H        0.860     0.202     1.095     1.639
    15   1 H        1.169     0.323     0.641     1.250
    16   1 H        0.860     0.178     1.223     1.733

 Mol. C6AA /au·bohr⁶  :       2239.158896
 Mol. C8AA /au·bohr⁸  :      54723.904682
 Mol. α(0) /au        :         70.512536


Wiberg/Mayer (AO) data.
largest (>0.10) Wiberg bond orders for each atom

 ---------------------------------------------------------------------------
     #   Z sym  total        # sym  WBO       # sym  WBO       # sym  WBO
 ---------------------------------------------------------------------------
     1   8 O    1.950 --     2 C    1.009     7 H    0.865
     2   6 C    3.964 --     1 O    1.009     3 C    0.993     8 H    0.974
                             9 H    0.971
     3   6 C    3.994 --     4 C    1.010     2 C    0.993    10 H    0.974
                            11 H    0.973
     4   6 C    3.968 --     3 C    1.010     5 N    0.995    13 H    0.974
                            12 H    0.972
     5   7 N    3.381 --     4 C    0.995    16 H    0.955    14 H    0.941
                            15 H    0.349     6 Cl   0.111
     6  17 Cl   0.695 --    15 H    0.539     5 N    0.111
     7   1 H    0.900 --     1 O    0.865
     8   1 H    0.999 --     2 C    0.974
     9   1 H    0.998 --     2 C    0.971
    10   1 H    0.998 --     3 C    0.974
    11   1 H    0.997 --     3 C    0.973
    12   1 H    0.996 --     4 C    0.972
    13   1 H    0.999 --     4 C    0.974
    14   1 H    0.959 --     5 N    0.941
    15   1 H    0.896 --     6 Cl   0.539     5 N    0.349
    16   1 H    0.968 --     5 N    0.955
 ---------------------------------------------------------------------------

Topologies differ in total number of bonds
Writing topology from bond orders to xtbtopo.mol

molecular dipole:
                 x           y           z       tot (Debye)
 q only:       -0.233       0.858      -2.140
   full:        0.065       1.024      -1.718       5.085
molecular quadrupole (traceless):
                xx          xy          yy          xz          yz          zz
 q only:       -0.884       8.443       1.138     -31.886      -1.852      -0.253
  q+dip:        2.349      10.613      -4.948     -26.062      -2.352       2.598
   full:        2.651      10.120      -4.857     -25.847      -2.736       2.206

           -------------------------------------------------
          |                Geometry Summary                 |
           -------------------------------------------------

      molecular mass/u    :      111.5706609
   center of mass at/Å    :        4.0193524      -0.1693802      -0.1600536
  moments of inertia/u·Å² :        0.1549489E+03   0.3075547E+03   0.3989824E+03
rotational constants/cm⁻¹ :        0.1087948E+00   0.5481181E-01   0.4225157E-01

 * 13 selected distances

     #   Z          #   Z                                           value/Å
     1   8 O        2   6 C                                       1.4083180
     2   6 C        3   6 C                                       1.5363461 (max)
     3   6 C        4   6 C                                       1.5256670
     4   6 C        5   7 N                                       1.4677940
     1   8 O        7   1 H                                       0.9686270 (min)
     2   6 C        8   1 H                                       1.0931487
     2   6 C        9   1 H                                       1.0963491
     3   6 C       10   1 H                                       1.0902796
     3   6 C       11   1 H                                       1.0922973
     4   6 C       12   1 H                                       1.0929123
     4   6 C       13   1 H                                       1.0967039
     5   7 N       14   1 H                                       1.0161071
     5   7 N       16   1 H                                       1.0138029

 * 6 distinct bonds (by element types)

   Z      Z             #   av. dist./Å        max./Å        min./Å
   1 H    6 C           6     1.0936152     1.0967039     1.0902796
   6 C    6 C           2     1.5310065     1.5363461     1.5256670
   1 H    7 N           2     1.0149550     1.0161071     1.0138029
   6 C    7 N           1     1.4677940     1.4677940     1.4677940
   1 H    8 O           1     0.9686270     0.9686270     0.9686270
   6 C    8 O           1     1.4083180     1.4083180     1.4083180


optimized geometry written to: xtbopt.xyz


           -------------------------------------------------
          | TOTAL ENERGY              -23.047474392800 Eh   |
          | GRADIENT NORM               0.000456591401 Eh/α |
          | HOMO-LUMO GAP               9.029034093284 eV   |
           -------------------------------------------------

------------------------------------------------------------------------
 * finished run on 2023/01/23 at 13:40:05.213     
------------------------------------------------------------------------
 total:
 * wall-time:     0 d,  0 h,  0 min,  0.768 sec
 *  cpu-time:     0 d,  0 h,  0 min, 52.420 sec
 * ratio c/w:    68.216 speedup
 SCF:
 * wall-time:     0 d,  0 h,  0 min,  0.017 sec
 *  cpu-time:     0 d,  0 h,  0 min,  2.334 sec
 * ratio c/w:   138.698 speedup
 ANC optimizer:
 * wall-time:     0 d,  0 h,  0 min,  0.730 sec
 *  cpu-time:     0 d,  0 h,  0 min, 47.308 sec
 * ratio c/w:    64.830 speedup

