      -----------------------------------------------------------      
     |                   =====================                   |     
     |                           x T B                           |     
     |                   =====================                   |     
     |                         S. Grimme                         |     
     |          Mulliken Center for Theoretical Chemistry        |     
     |                    University of Bonn                     |     
      -----------------------------------------------------------      

   * xtb version 6.5.1 (fef0646) compiled by 'conda@b96dff2e9fd6' on 2023-01-04

   xtb is free software: you can redistribute it and/or modify it under
   the terms of the GNU Lesser General Public License as published by
   the Free Software Foundation, either version 3 of the License, or
   (at your option) any later version.
   
   xtb is distributed in the hope that it will be useful,
   but WITHOUT ANY WARRANTY; without even the implied warranty of
   MERCHANTABILITY or FITNESS FOR A PARTICULAR PURPOSE.  See the
   GNU Lesser General Public License for more details.
   
   Cite this work as:
   * C. Bannwarth, E. Caldeweyher, S. Ehlert, A. Hansen, P. Pracht,
     J. Seibert, S. Spicher, S. Grimme, WIREs Comput. Mol. Sci., 2020, 11,
     e01493. DOI: 10.1002/wcms.1493
   
   for GFN2-xTB:
   * C. Bannwarth, S. Ehlert and S. Grimme., J. Chem. Theory Comput., 2019,
     15, 1652-1671. DOI: 10.1021/acs.jctc.8b01176
   for GFN1-xTB:
   * S. Grimme, C. Bannwarth, P. Shushkov, J. Chem. Theory Comput., 2017,
     13, 1989-2009. DOI: 10.1021/acs.jctc.7b00118
   for GFN0-xTB:
   * P. Pracht, E. Caldeweyher, S. Ehlert, S. Grimme, ChemRxiv, 2019, preprint.
     DOI: 10.26434/chemrxiv.8326202.v1
   for GFN-FF:
   * S. Spicher and S. Grimme, Angew. Chem. Int. Ed., 2020, 59, 15665-15673.
     DOI: 10.1002/anie.202004239
   
   for ALPB and GBSA implicit solvation:
   * S. Ehlert, M. Stahn, S. Spicher, S. Grimme, J. Chem. Theory Comput.,
     2021, 17, 4250-4261. DOI: 10.1021/acs.jctc.1c00471
   
   for DFT-D4:
   * E. Caldeweyher, C. Bannwarth and S. Grimme, J. Chem. Phys., 2017,
     147, 034112. DOI: 10.1063/1.4993215
   * E. Caldeweyher, S. Ehlert, A. Hansen, H. Neugebauer, S. Spicher,
     C. Bannwarth and S. Grimme, J. Chem. Phys., 2019, 150, 154122.
     DOI: 10.1063/1.5090222
   * E. Caldeweyher, J.-M. Mewes, S. Ehlert and S. Grimme, Phys. Chem. Chem. Phys.
     2020, 22, 8499-8512. DOI: 10.1039/D0CP00502A
   
   for sTDA-xTB:
   * S. Grimme and C. Bannwarth, J. Chem. Phys., 2016, 145, 054103.
     DOI: 10.1063/1.4959605
   
   in the mass-spec context:
   * V. Asgeirsson, C. Bauer and S. Grimme, Chem. Sci., 2017, 8, 4879.
     DOI: 10.1039/c7sc00601b
   * J. Koopman and S. Grimme, ACS Omega 2019, 4, 12, 15120-15133.
     DOI: 10.1021/acsomega.9b02011
   
   for metadynamics refer to:
   * S. Grimme, J. Chem. Theory Comput., 2019, 155, 2847-2862
     DOI: 10.1021/acs.jctc.9b00143
   
   for SPH calculations refer to:
   * S. Spicher and S. Grimme, J. Chem. Theory Comput., 2021, 17, 1701-1714
     DOI: 10.1021/acs.jctc.0c01306
   
   with help from (in alphabetical order)
   P. Atkinson, C. Bannwarth, F. Bohle, G. Brandenburg, E. Caldeweyher
   M. Checinski, S. Dohm, S. Ehlert, S. Ehrlich, I. Gerasimov, C. Hölzer
   A. Katbashev, J. Koopman, C. Lavigne, S. Lehtola, F. März, M. Müller,
   F. Musil, H. Neugebauer, J. Pisarek, C. Plett, P. Pracht, F. Pultar,
   J. Seibert, P. Shushkov, S. Spicher, M. Stahn, M. Steiner, T. Strunk,
   J. Stückrath, T. Rose, and J. Unsleber
   
 * started run on 2023/01/24 at 16:09:41.614     

           -------------------------------------------------
          |                Calculation Setup                |
           -------------------------------------------------

          program call               : xtb init.xyz --opt -c 0 -u 0 -P 16 --alpb water
          hostname                   : gpg-woodward
          coordinate file            : init.xyz
          omp threads                :                    16

   ID    Z sym.   atoms
    1    7 N      1
    2    6 C      2-9
    3   17 Cl     10
    4    1 H      11-30

molecular fragmentation (1/2 indicates fragments):
111111111211111111111111111111
# atoms in fragment 1/2:    29     1
 fragment masses (1/2) :      130.25       35.45
CMA distance (Bohr)    :  11.014
constraining FC (au)   :  0.0500

           -------------------------------------------------
          |                 G F N 2 - x T B                 |
           -------------------------------------------------

        Reference                      10.1021/acs.jctc.8b01176
      * Hamiltonian:
        H0-scaling (s, p, d)           1.850000    2.230000    2.230000
        zeta-weighting                 0.500000
      * Dispersion:
        s8                             2.700000
        a1                             0.520000
        a2                             5.000000
        s9                             5.000000
      * Repulsion:
        kExp                           1.500000    1.000000
        rExp                           1.000000
      * Coulomb:
        alpha                          2.000000
        third order                    shell-resolved
        anisotropic                    true
        a3                             3.000000
        a5                             4.000000
        cn-shift                       1.200000
        cn-exp                         4.000000
        max-rad                        5.000000

      * Solvation model:               ALPB
        Solvent                        water
        Parameter file                 internal GFN2-xTB/ALPB
        Dielectric constant                8.0200E+01
        Reference state                gsolv [1 M gas/solution]
        Free energy shift                  1.0808E-03 Eh       6.7819E-01 kcal/mol
        Temperature                        2.9815E+02 K
        Density                            1.0000E+00 kg/L
        Solvent mass                       1.8000E+01 g/mol
        Interaction kernel             P16
        Born radius scaling (c1)           1.4744E+00
        Born radii integrator          GBOBC
        Born offset                        0.0000E+00 a0       0.0000E+00 AA
        H-bond correction              true
        Ion screening                  false
        Surface tension                    1.0000E-05 Eh       1.5569E+01 dyn/cm
        Grid points                               230 per atom

          ...................................................
          :                      SETUP                      :
          :.................................................:
          :  # basis functions                  66          :
          :  # atomic orbitals                  65          :
          :  # shells                           41          :
          :  # electrons                        64          :
          :  max. iterations                   250          :
          :  Hamiltonian                  GFN2-xTB          :
          :  restarted?                      false          :
          :  GBSA solvation                   true          :
          :  PC potential                    false          :
          :  electronic temp.          300.0000000     K    :
          :  accuracy                    1.0000000          :
          :  -> integral cutoff          0.2500000E+02      :
          :  -> integral neglect         0.1000000E-07      :
          :  -> SCF convergence          0.1000000E-05 Eh   :
          :  -> wf. convergence          0.1000000E-03 e    :
          :  Broyden damping             0.4000000          :
          ...................................................

 iter      E             dE          RMSdq      gap      omega  full diag
   1    -35.1523437 -0.351523E+02  0.315E+00   11.30       0.0  T
   2    -35.2602402 -0.107896E+00  0.173E+00   10.30       1.0  T
   3    -35.2650390 -0.479882E-02  0.994E-01    9.98       1.0  T
   4    -35.2667419 -0.170290E-02  0.280E-01   10.16       1.0  T
   5    -35.2671786 -0.436754E-03  0.175E-01   10.26       1.0  T
   6    -35.2674657 -0.287073E-03  0.805E-02   10.33       1.0  T
   7    -35.2675189 -0.531396E-04  0.263E-02   10.35       1.0  T
   8    -35.2675212 -0.233131E-05  0.624E-03   10.34       2.9  T
   9    -35.2675213 -0.140102E-06  0.312E-03   10.34       5.9  T
  10    -35.2675213 -0.205851E-07  0.982E-04   10.34      18.6  T
  11    -35.2675213 -0.508288E-08  0.333E-04   10.34      54.9  T

   *** convergence criteria satisfied after 11 iterations ***

         #    Occupation            Energy/Eh            Energy/eV
      -------------------------------------------------------------
         1        2.0000           -1.0062847             -27.3824
       ...           ...                  ...                  ...
        26        2.0000           -0.4188675             -11.3980
        27        2.0000           -0.4185885             -11.3904
        28        2.0000           -0.4129744             -11.2376
        29        2.0000           -0.4090903             -11.1319
        30        2.0000           -0.4042717             -11.0008
        31        2.0000           -0.4030611             -10.9678
        32        2.0000           -0.4026337             -10.9562 (HOMO)
        33                         -0.0225594              -0.6139 (LUMO)
        34                          0.0620724               1.6891
        35                          0.0764059               2.0791
        36                          0.0830589               2.2601
        37                          0.0917422               2.4964
       ...                                ...                  ...
        65                          0.3186505               8.6709
      -------------------------------------------------------------
                  HL-Gap            0.3800743 Eh           10.3423 eV
             Fermi-level           -0.2125965 Eh           -5.7850 eV

 SCC (total)                   0 d,  0 h,  0 min,  0.043 sec
 SCC setup                      ...        0 min,  0.001 sec (  1.655%)
 Dispersion                     ...        0 min,  0.001 sec (  1.398%)
 classical contributions        ...        0 min,  0.000 sec (  0.313%)
 integral evaluation            ...        0 min,  0.002 sec (  3.495%)
 iterations                     ...        0 min,  0.036 sec ( 83.137%)
 molecular gradient             ...        0 min,  0.003 sec (  7.880%)
 printout                       ...        0 min,  0.001 sec (  1.263%)

         :::::::::::::::::::::::::::::::::::::::::::::::::::::
         ::                     SUMMARY                     ::
         :::::::::::::::::::::::::::::::::::::::::::::::::::::
         :: total energy             -34.840934051486 Eh    ::
         :: total w/o Gsasa/hb       -34.834595739111 Eh    ::
         :: gradient norm              0.043315971370 Eh/a0 ::
         :: HOMO-LUMO gap             10.342349173511 eV    ::
         ::.................................................::
         :: SCC energy               -35.267521349802 Eh    ::
         :: -> isotropic ES            0.116435609995 Eh    ::
         :: -> anisotropic ES         -0.024502387555 Eh    ::
         :: -> anisotropic XC          0.010578558013 Eh    ::
         :: -> dispersion             -0.019082067055 Eh    ::
         :: -> Gsolv                  -0.065583839763 Eh    ::
         ::    -> Gelec               -0.059245527388 Eh    ::
         ::    -> Gsasa               -0.001162957555 Eh    ::
         ::    -> Ghb                 -0.006256114519 Eh    ::
         ::    -> Gshift               0.001080759698 Eh    ::
         :: repulsion energy           0.426563232386 Eh    ::
         :: add. restraining           0.000000000000 Eh    ::
         :: total charge              -0.000000000000 e     ::
         :::::::::::::::::::::::::::::::::::::::::::::::::::::

      ----------------------------------------------------------- 
     |                   =====================                   |
     |                        A N C O P T                        |
     |                   =====================                   |
     |               Approximate Normal Coordinate               |
     |                Rational Function Optimizer                |
      ----------------------------------------------------------- 

          ...................................................
          :                      SETUP                      :
          :.................................................:
          :   optimization level            normal          :
          :   max. optcycles                   200          :
          :   ANC micro-cycles                  20          :
          :   degrees of freedom                84          :
          :.................................................:
          :   RF solver                   davidson          :
          :   write xtbopt.log                true          :
          :   linear?                        false          :
          :   energy convergence         0.5000000E-05 Eh   :
          :   grad. convergence          0.1000000E-02 Eh/α :
          :   maximium RF displ.         1.0000000          :
          :   Hlow (freq-cutoff)         0.1000000E-01      :
          :   Hmax (freq-cutoff)         5.0000000          :
          :   S6 in model hess.         20.0000000          :
          ...................................................

generating ANC from model Hessian ...
Using Lindh-Hessian (1995)
 Shifting diagonal of input Hessian by    9.5935192846096726E-003
 Lowest  eigenvalues of input Hessian
    0.000000    0.000000    0.000000    0.000000    0.000000    0.000000
    0.010000    0.010267    0.010707    0.010986    0.011113    0.012155
    0.013102    0.014375    0.015340    0.016093    0.017937    0.019968
 Highest eigenvalues
    1.238952    1.249338    1.276843    1.296372    1.400305    1.636172


........................................................................
.............................. CYCLE    1 ..............................
........................................................................
   1    -35.2675214 -0.352675E+02  0.170E-04   10.34       0.0  T
   2    -35.2675214 -0.871339E-10  0.134E-04   10.34     136.5  T
   3    -35.2675214 -0.135429E-09  0.585E-05   10.34     312.1  T
     SCC iter.                  ...        0 min,  0.010 sec
     gradient                   ...        0 min,  0.003 sec
 * total energy  :   -34.8409341 Eh     change       -0.4977636E-09 Eh
   gradient norm :     0.0433132 Eh/α   predicted     0.0000000E+00 (-100.00%)
   displ. norm   :     0.4723899 α      lambda       -0.7593630E-02
   maximum displ.:     0.2352491 α      in ANC's #10, #11, #7, ...

........................................................................
.............................. CYCLE    2 ..............................
........................................................................
   1    -35.2804579 -0.352805E+02  0.171E-01   10.15       0.0  T
   2    -35.2805212 -0.633808E-04  0.962E-02   10.13       1.0  T
   3    -35.2805293 -0.810248E-05  0.297E-02   10.12       1.0  T
   4    -35.2805319 -0.258537E-05  0.139E-02   10.12       1.3  T
   5    -35.2805330 -0.106935E-05  0.859E-03   10.12       2.1  T
   6    -35.2805337 -0.711253E-06  0.302E-03   10.12       6.0  T
   7    -35.2805338 -0.662615E-07  0.120E-03   10.12      15.2  T
   8    -35.2805338 -0.734536E-08  0.229E-04   10.12      79.7  T
   9    -35.2805338 -0.100769E-09  0.112E-04   10.12     163.5  T
     SCC iter.                  ...        0 min,  0.028 sec
     gradient                   ...        0 min,  0.003 sec
 * total energy  :   -34.8447140 Eh     change       -0.3779932E-02 Eh
   gradient norm :     0.0297823 Eh/α   predicted    -0.4644349E-02 (  22.87%)
   displ. norm   :     0.1322135 α      lambda       -0.1716013E-02
   maximum displ.:     0.0615841 α      in ANC's #3, #56, #11, ...

........................................................................
.............................. CYCLE    3 ..............................
........................................................................
   1    -35.2861898 -0.352862E+02  0.877E-02   10.10       0.0  T
   2    -35.2862006 -0.107394E-04  0.489E-02   10.11       1.0  T
   3    -35.2862029 -0.230534E-05  0.108E-02   10.11       1.7  T
   4    -35.2862032 -0.323531E-06  0.630E-03   10.11       2.9  T
   5    -35.2862034 -0.168099E-06  0.345E-03   10.10       5.3  T
   6    -35.2862034 -0.852414E-07  0.198E-03   10.10       9.2  T
   7    -35.2862035 -0.324443E-07  0.745E-04   10.10      24.5  T
   8    -35.2862035 -0.450273E-08  0.157E-04   10.10     116.4  T
     SCC iter.                  ...        0 min,  0.024 sec
     gradient                   ...        0 min,  0.003 sec
 * total energy  :   -34.8457912 Eh     change       -0.1077262E-02 Eh
   gradient norm :     0.0113241 Eh/α   predicted    -0.8730052E-03 ( -18.96%)
   displ. norm   :     0.1394187 α      lambda       -0.4539053E-03
   maximum displ.:     0.0958921 α      in ANC's #3, #4, #2, ...

........................................................................
.............................. CYCLE    4 ..............................
........................................................................
   1    -35.2864466 -0.352864E+02  0.482E-02   10.11       0.0  T
   2    -35.2864486 -0.190858E-05  0.276E-02   10.11       1.0  T
   3    -35.2864493 -0.747505E-06  0.552E-03   10.11       3.3  T
   4    -35.2864494 -0.122731E-06  0.411E-03   10.11       4.4  T
   5    -35.2864495 -0.124328E-06  0.186E-03   10.11       9.8  T
   6    -35.2864496 -0.275560E-07  0.101E-03   10.11      18.1  T
   7    -35.2864496 -0.655267E-08  0.117E-04   10.11     156.2  T
   8    -35.2864496 -0.628333E-10  0.574E-05   10.11     317.9  T
     SCC iter.                  ...        0 min,  0.024 sec
     gradient                   ...        0 min,  0.003 sec
 * total energy  :   -34.8460942 Eh     change       -0.3029635E-03 Eh
   gradient norm :     0.0041315 Eh/α   predicted    -0.2313917E-03 ( -23.62%)
   displ. norm   :     0.1827456 α      lambda       -0.2282355E-03
   maximum displ.:     0.1374630 α      in ANC's #3, #4, #6, ...

........................................................................
.............................. CYCLE    5 ..............................
........................................................................
   1    -35.2860562 -0.352861E+02  0.297E-02   10.11       0.0  T
   2    -35.2860572 -0.945964E-06  0.178E-02   10.11       1.0  T
   3    -35.2860578 -0.566043E-06  0.563E-03   10.11       3.2  T
   4    -35.2860579 -0.142151E-06  0.407E-03   10.11       4.5  T
   5    -35.2860580 -0.132304E-06  0.177E-03   10.11      10.3  T
   6    -35.2860581 -0.279342E-07  0.598E-04   10.11      30.5  T
   7    -35.2860581 -0.116865E-08  0.151E-04   10.11     120.7  T
     SCC iter.                  ...        0 min,  0.021 sec
     gradient                   ...        0 min,  0.003 sec
 * total energy  :   -34.8462697 Eh     change       -0.1754588E-03 Eh
   gradient norm :     0.0051297 Eh/α   predicted    -0.1179293E-03 ( -32.79%)
   displ. norm   :     0.2474460 α      lambda       -0.2504367E-03
   maximum displ.:     0.1659889 α      in ANC's #3, #4, #2, ...

........................................................................
.............................. CYCLE    6 ..............................
........................................................................
   1    -35.2854972 -0.352855E+02  0.306E-02   10.10       0.0  T
   2    -35.2854988 -0.158425E-05  0.193E-02   10.10       1.0  T
   3    -35.2854997 -0.916524E-06  0.762E-03   10.10       2.4  T
   4    -35.2855000 -0.317722E-06  0.486E-03   10.10       3.8  T
   5    -35.2855002 -0.185152E-06  0.214E-03   10.10       8.5  T
   6    -35.2855002 -0.425806E-07  0.545E-04   10.10      33.5  T
   7    -35.2855002 -0.860325E-09  0.204E-04   10.10      89.3  T
     SCC iter.                  ...        0 min,  0.021 sec
     gradient                   ...        0 min,  0.003 sec
 * total energy  :   -34.8465039 Eh     change       -0.2341896E-03 Eh
   gradient norm :     0.0069489 Eh/α   predicted    -0.1328870E-03 ( -43.26%)
   displ. norm   :     0.6264514 α      lambda       -0.6729801E-03
   maximum displ.:     0.3890836 α      in ANC's #3, #4, #2, ...

........................................................................
.............................. CYCLE    7 ..............................
........................................................................
   1    -35.2838000 -0.352838E+02  0.773E-02   10.04       0.0  T
   2    -35.2838110 -0.110761E-04  0.497E-02   10.05       1.0  T
   3    -35.2838177 -0.669603E-05  0.205E-02   10.05       1.0  T
   4    -35.2838201 -0.238165E-05  0.131E-02   10.05       1.4  T
   5    -35.2838215 -0.138644E-05  0.513E-03   10.05       3.6  T
   6    -35.2838217 -0.241103E-06  0.125E-03   10.05      14.6  T
   7    -35.2838217 -0.458532E-08  0.512E-04   10.05      35.7  T
   8    -35.2838217 -0.408711E-09  0.860E-05   10.05     212.3  T
     SCC iter.                  ...        0 min,  0.024 sec
     gradient                   ...        0 min,  0.003 sec
 * total energy  :   -34.8471991 Eh     change       -0.6952567E-03 Eh
   gradient norm :     0.0118672 Eh/α   predicted    -0.4685423E-03 ( -32.61%)
   displ. norm   :     0.9423934 α      lambda       -0.1093232E-02
   maximum displ.:     0.5807900 α      in ANC's #3, #4, #11, ...

........................................................................
.............................. CYCLE    8 ..............................
........................................................................
   1    -35.2794894 -0.352795E+02  0.123E-01    9.85       0.0  T
   2    -35.2795153 -0.259129E-04  0.805E-02    9.86       1.0  T
   3    -35.2795360 -0.206300E-04  0.337E-02    9.87       1.0  T
   4    -35.2795424 -0.645921E-05  0.226E-02    9.87       1.0  T
   5    -35.2795466 -0.421204E-05  0.854E-03    9.87       2.1  T
   6    -35.2795473 -0.665095E-06  0.212E-03    9.87       8.6  T
   7    -35.2795473 -0.104519E-07  0.802E-04    9.87      22.8  T
   8    -35.2795473 -0.110708E-08  0.149E-04    9.87     122.4  T
     SCC iter.                  ...        0 min,  0.021 sec
     gradient                   ...        0 min,  0.003 sec
 * total energy  :   -34.8478067 Eh     change       -0.6076141E-03 Eh
   gradient norm :     0.0210788 Eh/α   predicted    -0.1032070E-02 (  69.86%)
   displ. norm   :     0.1769013 α      lambda       -0.6047495E-03
   maximum displ.:     0.0806812 α      in ANC's #3, #6, #2, ...

........................................................................
.............................. CYCLE    9 ..............................
........................................................................
   1    -35.2834079 -0.352834E+02  0.569E-02    9.96       0.0  T
   2    -35.2834141 -0.615270E-05  0.339E-02    9.97       1.0  T
   3    -35.2834159 -0.177385E-05  0.110E-02    9.97       1.7  T
   4    -35.2834164 -0.524327E-06  0.708E-03    9.97       2.6  T
   5    -35.2834167 -0.309948E-06  0.440E-03    9.97       4.1  T
   6    -35.2834169 -0.203819E-06  0.129E-03    9.97      14.1  T
   7    -35.2834169 -0.924259E-08  0.469E-04    9.97      39.0  T
   8    -35.2834169 -0.100575E-08  0.108E-04    9.97     168.5  T
     SCC iter.                  ...        0 min,  0.022 sec
     gradient                   ...        0 min,  0.003 sec
 * total energy  :   -34.8480982 Eh     change       -0.2914928E-03 Eh
   gradient norm :     0.0216529 Eh/α   predicted    -0.3118580E-03 (   6.99%)
   displ. norm   :     0.1427625 α      lambda       -0.4345953E-03
   maximum displ.:     0.0899609 α      in ANC's #11, #4, #2, ...

........................................................................
.............................. CYCLE   10 ..............................
........................................................................
   1    -35.2843619 -0.352844E+02  0.267E-02    9.99       0.0  T
   2    -35.2843631 -0.116001E-05  0.169E-02   10.00       1.1  T
   3    -35.2843637 -0.576538E-06  0.597E-03   10.00       3.1  T
   4    -35.2843638 -0.179299E-06  0.389E-03   10.00       4.7  T
   5    -35.2843639 -0.105266E-06  0.211E-03   10.00       8.6  T
   6    -35.2843640 -0.421931E-07  0.557E-04   10.00      32.8  T
   7    -35.2843640 -0.136931E-08  0.242E-04   10.00      75.5  T
     SCC iter.                  ...        0 min,  0.018 sec
     gradient                   ...        0 min,  0.002 sec
 * total energy  :   -34.8484871 Eh     change       -0.3889148E-03 Eh
   gradient norm :     0.0179461 Eh/α   predicted    -0.2217269E-03 ( -42.99%)
   displ. norm   :     0.3895084 α      lambda       -0.1634532E-02
   maximum displ.:     0.2126385 α      in ANC's #11, #2, #5, ...

........................................................................
.............................. CYCLE   11 ..............................
........................................................................
   1    -35.2884276 -0.352884E+02  0.976E-02   10.16       0.0  T
   2    -35.2884417 -0.140810E-04  0.589E-02   10.17       1.0  T
   3    -35.2884467 -0.494471E-05  0.178E-02   10.17       1.0  T
   4    -35.2884480 -0.130041E-05  0.119E-02   10.17       1.5  T
   5    -35.2884490 -0.101971E-05  0.593E-03   10.17       3.1  T
   6    -35.2884493 -0.316359E-06  0.228E-03   10.17       8.0  T
   7    -35.2884493 -0.255131E-07  0.701E-04   10.17      26.0  T
   8    -35.2884493 -0.167605E-08  0.171E-04   10.17     106.7  T
     SCC iter.                  ...        0 min,  0.020 sec
     gradient                   ...        0 min,  0.002 sec
 * total energy  :   -34.8493345 Eh     change       -0.8473515E-03 Eh
   gradient norm :     0.0109456 Eh/α   predicted    -0.9412646E-03 (  11.08%)
   displ. norm   :     0.5667085 α      lambda       -0.9708569E-03
   maximum displ.:     0.2931957 α      in ANC's #11, #2, #4, ...

........................................................................
.............................. CYCLE   12 ..............................
........................................................................
   1    -35.2877501 -0.352878E+02  0.927E-02   10.04       0.0  T
   2    -35.2877643 -0.141754E-04  0.640E-02   10.04       1.0  T
   3    -35.2877819 -0.176715E-04  0.278E-02   10.05       1.0  T
   4    -35.2877865 -0.452555E-05  0.185E-02   10.05       1.0  T
   5    -35.2877896 -0.316716E-05  0.342E-03   10.05       5.3  T
   6    -35.2877897 -0.570070E-07  0.146E-03   10.05      12.5  T
   7    -35.2877897 -0.328423E-08  0.293E-04   10.05      62.3  T
   8    -35.2877897 -0.311744E-09  0.137E-04   10.05     133.6  T
     SCC iter.                  ...        0 min,  0.020 sec
     gradient                   ...        0 min,  0.002 sec
 * total energy  :   -34.8498577 Eh     change       -0.5231854E-03 Eh
   gradient norm :     0.0110336 Eh/α   predicted    -0.6413287E-03 (  22.58%)
   displ. norm   :     0.1686932 α      lambda       -0.4198027E-03
   maximum displ.:     0.1016085 α      in ANC's #3, #5, #2, ...

........................................................................
.............................. CYCLE   13 ..............................
........................................................................
   1    -35.2898643 -0.352899E+02  0.342E-02   10.14       0.0  T
   2    -35.2898658 -0.147385E-05  0.213E-02   10.14       1.0  T
   3    -35.2898668 -0.100054E-05  0.715E-03   10.13       2.6  T
   4    -35.2898671 -0.235108E-06  0.520E-03   10.13       3.5  T
   5    -35.2898673 -0.226576E-06  0.209E-03   10.13       8.8  T
   6    -35.2898673 -0.363500E-07  0.856E-04   10.13      21.3  T
   7    -35.2898673 -0.281833E-08  0.226E-04   10.13      80.6  T
     SCC iter.                  ...        0 min,  0.018 sec
     gradient                   ...        0 min,  0.002 sec
 * total energy  :   -34.8501478 Eh     change       -0.2900831E-03 Eh
   gradient norm :     0.0054090 Eh/α   predicted    -0.2158788E-03 ( -25.58%)
   displ. norm   :     0.2915866 α      lambda       -0.3527162E-03
   maximum displ.:     0.1753057 α      in ANC's #3, #5, #2, ...

........................................................................
.............................. CYCLE   14 ..............................
........................................................................
   1    -35.2888956 -0.352889E+02  0.522E-02   10.15       0.0  T
   2    -35.2888999 -0.433961E-05  0.339E-02   10.15       1.0  T
   3    -35.2889035 -0.353177E-05  0.137E-02   10.15       1.3  T
   4    -35.2889045 -0.101546E-05  0.952E-03   10.15       1.9  T
   5    -35.2889052 -0.782905E-06  0.320E-03   10.15       5.7  T
   6    -35.2889053 -0.939953E-07  0.909E-04   10.15      20.1  T
   7    -35.2889053 -0.156192E-08  0.334E-04   10.15      54.7  T
     SCC iter.                  ...        0 min,  0.018 sec
     gradient                   ...        0 min,  0.002 sec
 * total energy  :   -34.8503658 Eh     change       -0.2180272E-03 Eh
   gradient norm :     0.0040882 Eh/α   predicted    -0.1913533E-03 ( -12.23%)
   displ. norm   :     0.1193502 α      lambda       -0.9248214E-04
   maximum displ.:     0.0680027 α      in ANC's #3, #5, #10, ...

........................................................................
.............................. CYCLE   15 ..............................
........................................................................
   1    -35.2883344 -0.352883E+02  0.244E-02   10.14       0.0  T
   2    -35.2883354 -0.942537E-06  0.152E-02   10.14       1.2  T
   3    -35.2883359 -0.529808E-06  0.576E-03   10.14       3.2  T
   4    -35.2883361 -0.176373E-06  0.382E-03   10.14       4.8  T
   5    -35.2883362 -0.124817E-06  0.135E-03   10.14      13.5  T
   6    -35.2883362 -0.170269E-07  0.350E-04   10.14      52.1  T
   7    -35.2883362 -0.368459E-09  0.150E-04   10.14     121.6  T
     SCC iter.                  ...        0 min,  0.018 sec
     gradient                   ...        0 min,  0.003 sec
 * total energy  :   -34.8504387 Eh     change       -0.7293919E-04 Eh
   gradient norm :     0.0023173 Eh/α   predicted    -0.4690120E-04 ( -35.70%)
   displ. norm   :     0.1989355 α      lambda       -0.1144579E-03
   maximum displ.:     0.0879424 α      in ANC's #5, #3, #10, ...

........................................................................
.............................. CYCLE   16 ..............................
........................................................................
   1    -35.2877947 -0.352878E+02  0.384E-02   10.12       0.0  T
   2    -35.2877965 -0.179813E-05  0.248E-02   10.12       1.0  T
   3    -35.2877982 -0.173090E-05  0.926E-03   10.12       2.0  T
   4    -35.2877987 -0.489073E-06  0.619E-03   10.12       3.0  T
   5    -35.2877991 -0.349184E-06  0.146E-03   10.12      12.5  T
   6    -35.2877991 -0.162846E-07  0.517E-04   10.12      35.3  T
   7    -35.2877991 -0.469143E-09  0.169E-04   10.12     108.3  T
     SCC iter.                  ...        0 min,  0.019 sec
     gradient                   ...        0 min,  0.002 sec
 * total energy  :   -34.8505206 Eh     change       -0.8189038E-04 Eh
   gradient norm :     0.0033689 Eh/α   predicted    -0.5949516E-04 ( -27.35%)
   displ. norm   :     0.1892776 α      lambda       -0.8145446E-04
   maximum displ.:     0.0829244 α      in ANC's #10, #3, #5, ...

........................................................................
.............................. CYCLE   17 ..............................
........................................................................
   1    -35.2878878 -0.352879E+02  0.344E-02   10.12       0.0  T
   2    -35.2878890 -0.129635E-05  0.224E-02   10.12       1.0  T
   3    -35.2878905 -0.143255E-05  0.816E-03   10.12       2.2  T
   4    -35.2878909 -0.406986E-06  0.517E-03   10.12       3.5  T
   5    -35.2878911 -0.242868E-06  0.132E-03   10.12      13.8  T
   6    -35.2878911 -0.140282E-07  0.439E-04   10.12      41.6  T
   7    -35.2878911 -0.258304E-09  0.117E-04   10.12     155.5  T
     SCC iter.                  ...        0 min,  0.018 sec
     gradient                   ...        0 min,  0.002 sec
 * total energy  :   -34.8505838 Eh     change       -0.6318628E-04 Eh
   gradient norm :     0.0049889 Eh/α   predicted    -0.4219053E-04 ( -33.23%)
   displ. norm   :     0.2864211 α      lambda       -0.1097182E-03
   maximum displ.:     0.1319977 α      in ANC's #10, #2, #9, ...

........................................................................
.............................. CYCLE   18 ..............................
........................................................................
   1    -35.2878788 -0.352879E+02  0.491E-02   10.12       0.0  T
   2    -35.2878811 -0.232635E-05  0.322E-02   10.12       1.0  T
   3    -35.2878842 -0.307464E-05  0.115E-02   10.12       1.6  T
   4    -35.2878851 -0.916973E-06  0.627E-03   10.12       2.9  T
   5    -35.2878855 -0.382837E-06  0.130E-03   10.12      14.0  T
   6    -35.2878855 -0.355624E-08  0.388E-04   10.12      47.0  T
   7    -35.2878855 -0.424507E-09  0.811E-05   10.12     225.0  T
     SCC iter.                  ...        0 min,  0.019 sec
     gradient                   ...        0 min,  0.002 sec
 * total energy  :   -34.8506598 Eh     change       -0.7599576E-04 Eh
   gradient norm :     0.0052374 Eh/α   predicted    -0.5936042E-04 ( -21.89%)
   displ. norm   :     0.2478775 α      lambda       -0.1338570E-03
   maximum displ.:     0.1205433 α      in ANC's #10, #3, #9, ...

........................................................................
.............................. CYCLE   19 ..............................
........................................................................
   1    -35.2880186 -0.352880E+02  0.437E-02   10.15       0.0  T
   2    -35.2880198 -0.126701E-05  0.267E-02   10.16       1.0  T
   3    -35.2880205 -0.696477E-06  0.600E-03   10.16       3.0  T
   4    -35.2880207 -0.160013E-06  0.427E-03   10.16       4.3  T
   5    -35.2880208 -0.123855E-06  0.242E-03   10.16       7.6  T
   6    -35.2880209 -0.577207E-07  0.635E-04   10.16      28.7  T
   7    -35.2880209 -0.162693E-08  0.231E-04   10.16      79.2  T
     SCC iter.                  ...        0 min,  0.018 sec
     gradient                   ...        0 min,  0.002 sec
 * total energy  :   -34.8507220 Eh     change       -0.6216359E-04 Eh
   gradient norm :     0.0045027 Eh/α   predicted    -0.7104122E-04 (  14.28%)
   displ. norm   :     0.1432870 α      lambda       -0.8592330E-04
   maximum displ.:     0.0796743 α      in ANC's #2, #10, #3, ...

........................................................................
.............................. CYCLE   20 ..............................
........................................................................
   1    -35.2881932 -0.352882E+02  0.252E-02   10.17       0.0  T
   2    -35.2881940 -0.865468E-06  0.159E-02   10.17       1.1  T
   3    -35.2881946 -0.600235E-06  0.592E-03   10.16       3.1  T
   4    -35.2881948 -0.189799E-06  0.396E-03   10.17       4.6  T
   5    -35.2881950 -0.123859E-06  0.172E-03   10.17      10.6  T
   6    -35.2881950 -0.277234E-07  0.367E-04   10.17      49.7  T
   7    -35.2881950 -0.295536E-09  0.147E-04   10.17     124.1  T
     SCC iter.                  ...        0 min,  0.017 sec
     gradient                   ...        0 min,  0.002 sec
 * total energy  :   -34.8507803 Eh     change       -0.5838264E-04 Eh
   gradient norm :     0.0026339 Eh/α   predicted    -0.4384533E-04 ( -24.90%)
   displ. norm   :     0.0916184 α      lambda       -0.7327064E-04
   maximum displ.:     0.0436566 α      in ANC's #7, #11, #16, ...
 * RMSD in coord.:     0.6421893 α      energy gain  -0.9846290E-02 Eh

generating ANC from model Hessian ...
Using Lindh-Hessian (1995)
 Shifting diagonal of input Hessian by    1.0167140870034071E-002
 Lowest  eigenvalues of input Hessian
    0.010000    0.000000    0.000000    0.000000    0.000000    0.000000
    0.000000    0.010665    0.010896    0.011537    0.011673    0.012825
    0.013829    0.015080    0.015941    0.017534    0.020735    0.021634
 Highest eigenvalues
    1.247937    1.268256    1.309361    1.359390    1.434430    1.479498


........................................................................
.............................. CYCLE   21 ..............................
........................................................................
   1    -35.2890176 -0.352890E+02  0.207E-02   10.22       0.0  T
   2    -35.2890178 -0.198242E-06  0.120E-02   10.22       1.5  T
   3    -35.2890178 -0.525541E-07  0.145E-03   10.21      12.6  T
   4    -35.2890178 -0.860787E-08  0.860E-04   10.22      21.2  T
   5    -35.2890178 -0.257288E-08  0.440E-04   10.22      41.5  T
     SCC iter.                  ...        0 min,  0.013 sec
     gradient                   ...        0 min,  0.003 sec
 * total energy  :   -34.8508209 Eh     change       -0.4051640E-04 Eh
   gradient norm :     0.0026671 Eh/α   predicted     0.0000000E+00 (-100.00%)
   displ. norm   :     0.0264260 α      lambda       -0.1597273E-04
   maximum displ.:     0.0172362 α      in ANC's #7, #2, #5, ...

........................................................................
.............................. CYCLE   22 ..............................
........................................................................
   1    -35.2886819 -0.352887E+02  0.771E-03   10.20       0.0  T
   2    -35.2886819 -0.643984E-07  0.434E-03   10.20       4.2  T
   3    -35.2886820 -0.502692E-08  0.795E-04   10.20      23.0  T
   4    -35.2886820 -0.108829E-08  0.300E-04   10.20      60.8  T
     SCC iter.                  ...        0 min,  0.010 sec
     gradient                   ...        0 min,  0.003 sec
 * total energy  :   -34.8508346 Eh     change       -0.1378380E-04 Eh
   gradient norm :     0.0011604 Eh/α   predicted    -0.8390148E-05 ( -39.13%)
   displ. norm   :     0.1307489 α      lambda       -0.3331688E-04
   maximum displ.:     0.0846219 α      in ANC's #7, #2, #5, ...

........................................................................
.............................. CYCLE   23 ..............................
........................................................................
   1    -35.2877861 -0.352878E+02  0.309E-02   10.16       0.0  T
   2    -35.2877866 -0.504421E-06  0.179E-02   10.16       1.0  T
   3    -35.2877867 -0.101219E-06  0.251E-03   10.16       7.3  T
   4    -35.2877867 -0.195013E-07  0.160E-03   10.16      11.4  T
   5    -35.2877868 -0.156350E-07  0.882E-04   10.16      20.7  T
   6    -35.2877868 -0.718358E-08  0.374E-04   10.16      48.8  T
     SCC iter.                  ...        0 min,  0.015 sec
     gradient                   ...        0 min,  0.003 sec
 * total energy  :   -34.8508587 Eh     change       -0.2403770E-04 Eh
   gradient norm :     0.0033064 Eh/α   predicted    -0.1678565E-04 ( -30.17%)
   displ. norm   :     0.0350090 α      lambda       -0.1186482E-04
   maximum displ.:     0.0185797 α      in ANC's #7, #2, #1, ...

........................................................................
.............................. CYCLE   24 ..............................
........................................................................
   1    -35.2880431 -0.352880E+02  0.652E-03   10.16       0.0  T
   2    -35.2880431 -0.212149E-07  0.386E-03   10.16       4.7  T
   3    -35.2880431 -0.896124E-08  0.663E-04   10.16      27.6  T
   4    -35.2880431 -0.158128E-08  0.489E-04   10.16      37.3  T
     SCC iter.                  ...        0 min,  0.010 sec
     gradient                   ...        0 min,  0.003 sec
 * total energy  :   -34.8508696 Eh     change       -0.1092386E-04 Eh
   gradient norm :     0.0026776 Eh/α   predicted    -0.5941019E-05 ( -45.61%)
   displ. norm   :     0.1603302 α      lambda       -0.4569106E-04
   maximum displ.:     0.0803283 α      in ANC's #7, #2, #1, ...

........................................................................
.............................. CYCLE   25 ..............................
........................................................................
   1    -35.2887427 -0.352887E+02  0.299E-02   10.18       0.0  T
   2    -35.2887431 -0.389958E-06  0.177E-02   10.18       1.0  T
   3    -35.2887433 -0.200529E-06  0.300E-03   10.18       6.1  T
   4    -35.2887434 -0.326132E-07  0.226E-03   10.18       8.1  T
   5    -35.2887434 -0.427264E-07  0.880E-04   10.18      20.7  T
   6    -35.2887434 -0.596268E-08  0.381E-04   10.18      47.9  T
     SCC iter.                  ...        0 min,  0.015 sec
     gradient                   ...        0 min,  0.003 sec
 * total energy  :   -34.8508999 Eh     change       -0.3034535E-04 Eh
   gradient norm :     0.0006547 Eh/α   predicted    -0.2343307E-04 ( -22.78%)
   displ. norm   :     0.1609973 α      lambda       -0.1186973E-04
   maximum displ.:     0.0774863 α      in ANC's #2, #1, #7, ...

........................................................................
.............................. CYCLE   26 ..............................
........................................................................
   1    -35.2887646 -0.352888E+02  0.294E-02   10.19       0.0  T
   2    -35.2887649 -0.262052E-06  0.176E-02   10.19       1.0  T
   3    -35.2887651 -0.247373E-06  0.329E-03   10.19       5.5  T
   4    -35.2887652 -0.591442E-07  0.208E-03   10.19       8.8  T
   5    -35.2887652 -0.400222E-07  0.770E-04   10.19      23.7  T
   6    -35.2887652 -0.352534E-08  0.265E-04   10.19      68.9  T
     SCC iter.                  ...        0 min,  0.015 sec
     gradient                   ...        0 min,  0.003 sec
 * total energy  :   -34.8509097 Eh     change       -0.9710968E-05 Eh
   gradient norm :     0.0010201 Eh/α   predicted    -0.6012813E-05 ( -38.08%)
   displ. norm   :     0.0333905 α      lambda       -0.3118404E-05
   maximum displ.:     0.0184762 α      in ANC's #2, #1, #5, ...

........................................................................
.............................. CYCLE   27 ..............................
........................................................................
   1    -35.2888447 -0.352888E+02  0.639E-03   10.19       0.0  T
   2    -35.2888448 -0.283784E-07  0.389E-03   10.19       4.7  T
   3    -35.2888448 -0.197625E-07  0.102E-03   10.19      17.9  T
   4    -35.2888448 -0.482839E-08  0.738E-04   10.19      24.7  T
   5    -35.2888448 -0.462503E-08  0.272E-04   10.19      67.2  T
     SCC iter.                  ...        0 min,  0.014 sec
     gradient                   ...        0 min,  0.003 sec
 * total energy  :   -34.8509133 Eh     change       -0.3656470E-05 Eh
   gradient norm :     0.0004167 Eh/α   predicted    -0.1561773E-05 ( -57.29%)
   displ. norm   :     0.0519466 α      lambda       -0.4009411E-05
   maximum displ.:     0.0297649 α      in ANC's #5, #2, #1, ...

   *** GEOMETRY OPTIMIZATION CONVERGED AFTER 27 ITERATIONS ***

------------------------------------------------------------------------
 total energy gain   :        -0.0099793 Eh       -6.2621 kcal/mol
 total RMSD          :         0.6716623 a0        0.3554 Å
 total power (kW/mol):        -0.9703910 (step)  -39.0135 (real)
------------------------------------------------------------------------

 ANCopt (total)                0 d,  0 h,  0 min,  0.672 sec
 optimizer setup                ...        0 min,  0.000 sec (  0.020%)
 model hessian                  ...        0 min,  0.032 sec (  4.834%)
 ANC generation                 ...        0 min,  0.006 sec (  0.895%)
 coordinate transformation      ...        0 min,  0.001 sec (  0.102%)
 single point calculation       ...        0 min,  0.621 sec ( 92.474%)
 optimization log               ...        0 min,  0.003 sec (  0.460%)
 hessian update                 ...        0 min,  0.001 sec (  0.176%)
 rational function              ...        0 min,  0.004 sec (  0.587%)

================
 final structure:
================
30
 xtb: 6.5.1 (fef0646)
N            2.88752063870828        1.10458022917709       -2.56477338758967
C            4.35255785994010        0.94006411455605       -2.66801998518656
C            4.94676293140518        0.42484467211520       -1.36351076787774
C            4.58901423635312       -1.02916575645165       -1.04825386381303
C            5.14421684894477       -2.05546489897201       -2.03852195826622
C            6.66871329631916       -2.06144096037935       -2.13495692265260
C            7.17669573346128       -3.19760618913931       -3.01980586088666
C            8.69862877006488       -3.18919194202031       -3.14832619644383
C            9.19903507917902       -4.29941343540222       -4.06475425595156
Cl           0.99671742795715       -1.26553583476278       -2.13296604554753
H            2.49665161472245        1.49059863070253       -3.42692970845362
H            2.64695391315321        1.71632134478828       -1.78081673173039
H            2.38655113343815        0.19842085157578       -2.39725319585692
H            4.79342291907891        1.90914847343189       -2.90457292051668
H            4.57072030690106        0.24598166326493       -3.47715714077562
H            4.59976555814788        1.04871388790733       -0.53890855835268
H            6.03033308563981        0.52316913969409       -1.41126852533255
H            3.50463781714844       -1.14914585523782       -1.01465918448770
H            4.97190198786660       -1.26821632016244       -0.05372381304127
H            4.71409760571266       -1.89388980458376       -3.02813113130392
H            4.80728796322360       -3.04434164209200       -1.71569457754281
H            7.09281957508774       -2.16858857944397       -1.13377783876128
H            7.02090491838974       -1.11656826315715       -2.55057539468990
H            6.73105570732017       -3.10809289089622       -4.01361451552804
H            6.85443701419089       -4.15566546616536       -2.60369866138817
H            9.14392988713329       -3.30807841320433       -2.15794700296226
H            9.02112926754320       -2.22335340692130       -3.54318027691886
H            8.89830024357722       -5.27313657861840       -3.68384880082759
H           10.28381883820096       -4.27840712656819       -4.13573493334563
H            8.78618782119099       -4.18272964303386       -5.06439784397029

 Bond Distances (Angstroems)
 ---------------------------
N1-C2=1.4779         N1-H11=1.0223        N1-H12=1.0231        N1-H13=1.0489        C2-N1=1.4779         C2-C3=1.5232         
C2-H14=1.0906        C2-H15=1.0881        C3-C2=1.5232         C3-C4=1.5302         C3-H16=1.0907        C3-H17=1.0891        
C4-C3=1.5302         C4-C5=1.5304         C4-H18=1.0915        C4-H19=1.0922        C5-C4=1.5304         C5-C6=1.5276         
C5-H20=1.0911        C5-H21=1.0934        C6-C5=1.5276         C6-C7=1.5270         C6-H22=1.0926        C6-H23=1.0907        
C7-C6=1.5270         C7-C8=1.5274         C7-H24=1.0928        C7-H25=1.0931        C8-C7=1.5274         C8-C9=1.5241         
C8-H26=1.0924        C8-H27=1.0921        C9-C8=1.5241         C9-H28=1.0880        C9-H29=1.0873        C9-H30=1.0878        
H11-N1=1.0223        H12-N1=1.0231        H13-N1=1.0489        H14-C2=1.0906        H15-C2=1.0881        H16-C3=1.0907        
H17-C3=1.0891        H18-C4=1.0915        H19-C4=1.0922        H20-C5=1.0911        H21-C5=1.0934        H22-C6=1.0926        
H23-C6=1.0907        H24-C7=1.0928        H25-C7=1.0931        H26-C8=1.0924        H27-C8=1.0921        H28-C9=1.0880        
H29-C9=1.0873        H30-C9=1.0878        
 C  H  Rav=1.0908 sigma=0.0020  Rmin=1.0873  Rmax=1.0934    17
 C  C  Rav=1.5271 sigma=0.0025  Rmin=1.5232  Rmax=1.5304     7
 N  H  Rav=1.0314 sigma=0.0124  Rmin=1.0223  Rmax=1.0489     3
 N  C  Rav=1.4779 sigma=0.0000  Rmin=1.4779  Rmax=1.4779     1

 selected bond angles (degree)
 --------------------
H11-N1-C2=111.23               H12-N1-C2=110.68               H12-N1-H11=109.30              H13-N1-C2=112.86               
H13-N1-H11=106.16              H13-N1-H12=106.37              C3-C2-N1=111.38                H14-C2-N1=108.48               
H14-C2-C3=109.18               H15-C2-N1=108.77               H15-C2-C3=110.05               H15-C2-H14=108.93              
C4-C3-C2=113.99                H16-C3-C2=109.26               H16-C3-C4=108.26               H17-C3-C2=108.66               
H17-C3-C4=109.11               H17-C3-H16=107.34              C5-C4-C3=114.78                H18-C4-C3=110.06               
H18-C4-C5=107.86               H19-C4-C3=108.28               H19-C4-C5=108.38               H19-C4-H18=107.23              
C6-C5-C4=113.92                H20-C5-C4=110.16               H20-C5-C6=109.68               H21-C5-C4=107.68               
H21-C5-C6=108.82               H21-C5-H20=106.27              C7-C6-C5=111.81                H22-C6-C5=109.26               
H22-C6-C7=109.20               H23-C6-C5=110.06               H23-C6-C7=108.44               H23-C6-H22=107.99              
C8-C7-C6=112.09                H24-C7-C6=109.29               H24-C7-C8=109.23               H25-C7-C6=109.48               
H25-C7-C8=109.31               H25-C7-H24=107.32              C9-C8-C7=111.95                H26-C8-C7=109.23               
H26-C8-C9=109.39               H27-C8-C7=109.24               H27-C8-C9=109.26               H27-C8-H26=107.68              
H28-C9-C8=110.53               H29-C9-C8=110.66               H29-C9-H28=108.42              H30-C9-C8=110.48               
H30-C9-H28=108.23              H30-C9-H29=108.46              

 selected dihedral angles (degree)
 ---------------------------------
C3-C2-N1-H11=177.41           C3-C2-N1-H12= 55.69           C3-C2-N1-H13=296.61           H14-C2-N1-H11= 57.22          
H14-C2-N1-H12=295.50          H14-C2-N1-H13=176.41          H15-C2-N1-H11=298.87          H15-C2-N1-H12=177.15          
H15-C2-N1-H13= 58.06          C4-C3-C2-N1= 70.17            C4-C3-C2-H14=189.94           C4-C3-C2-H15=309.46           
H16-C3-C2-N1=308.91           H16-C3-C2-H14= 68.69          H16-C3-C2-H15=188.20          H17-C3-C2-N1=192.08           
H17-C3-C2-H14=311.86          H17-C3-C2-H15= 71.38          C5-C4-C3-C2= 64.57            C5-C4-C3-H16=186.38           
C5-C4-C3-H17=302.90           H18-C4-C3-C2=302.69           H18-C4-C3-H16= 64.50          H18-C4-C3-H17=181.02          
H19-C4-C3-C2=185.77           H19-C4-C3-H16=307.59          H19-C4-C3-H17= 64.11          C6-C5-C4-C3= 60.19            
C6-C5-C4-H18=183.26           C6-C5-C4-H19=299.04           H20-C5-C4-C3=296.46           H20-C5-C4-H18= 59.53          
H20-C5-C4-H19=175.31          H21-C5-C4-C3=180.98           H21-C5-C4-H18=304.05          H21-C5-C4-H19= 59.82          
C7-C6-C5-C4=173.93            C7-C6-C5-H20=297.92           C7-C6-C5-H21= 53.79           H22-C6-C5-C4= 52.93           
H22-C6-C5-H20=176.92          H22-C6-C5-H21=292.79          H23-C6-C5-C4=294.52           H23-C6-C5-H20= 58.50          
H23-C6-C5-H21=174.37          C8-C7-C6-C5=178.61            C8-C7-C6-H22=299.65           C8-C7-C6-H23= 57.09           
H24-C7-C6-C5= 57.36           H24-C7-C6-H22=178.40          H24-C7-C6-H23=295.84          H25-C7-C6-C5=300.08           
H25-C7-C6-H22= 61.12          H25-C7-C6-H23=178.56          C9-C8-C7-C6=181.67            C9-C8-C7-H24=302.95           
C9-C8-C7-H25= 60.10           H26-C8-C7-C6= 60.36           H26-C8-C7-H24=181.64          H26-C8-C7-H25=298.79          
H27-C8-C7-C6=302.82           H27-C8-C7-H24= 64.10          H27-C8-C7-H25=181.25          H28-C9-C8-C7=300.50           
H28-C9-C8-H26= 61.72          H28-C9-C8-H27=179.36          H29-C9-C8-C7=180.39           H29-C9-C8-H26=301.60          
H29-C9-C8-H27= 59.25          H30-C9-C8-C7= 60.26           H30-C9-C8-H26=181.48          H30-C9-C8-H27=299.12          

 CMA Distance (Angstroems)
 ---------------------------
R(CMA):  4.9341
           -------------------------------------------------
          |                Final Singlepoint                |
           -------------------------------------------------

          ...................................................
          :                      SETUP                      :
          :.................................................:
          :  # basis functions                  66          :
          :  # atomic orbitals                  65          :
          :  # shells                           41          :
          :  # electrons                        64          :
          :  max. iterations                   250          :
          :  Hamiltonian                  GFN2-xTB          :
          :  restarted?                      false          :
          :  GBSA solvation                   true          :
          :  PC potential                    false          :
          :  electronic temp.          300.0000000     K    :
          :  accuracy                    1.0000000          :
          :  -> integral cutoff          0.2500000E+02      :
          :  -> integral neglect         0.1000000E-07      :
          :  -> SCF convergence          0.1000000E-05 Eh   :
          :  -> wf. convergence          0.1000000E-03 e    :
          :  Broyden damping             0.4000000          :
          ...................................................

 iter      E             dE          RMSdq      gap      omega  full diag
   1    -35.2888448 -0.352888E+02  0.788E-05   10.19       0.0  T
   2    -35.2888448 -0.114753E-10  0.495E-05   10.19     368.6  T
   3    -35.2888448 -0.573408E-11  0.211E-05   10.19     865.9  T

   *** convergence criteria satisfied after 3 iterations ***

         #    Occupation            Energy/Eh            Energy/eV
      -------------------------------------------------------------
         1        2.0000           -1.0053887             -27.3580
       ...           ...                  ...                  ...
        26        2.0000           -0.4186379             -11.3917
        27        2.0000           -0.4170890             -11.3496
        28        2.0000           -0.4130091             -11.2385
        29        2.0000           -0.4099753             -11.1560
        30        2.0000           -0.4021984             -10.9444
        31        2.0000           -0.3997688             -10.8783
        32        2.0000           -0.3975766             -10.8186 (HOMO)
        33                         -0.0229769              -0.6252 (LUMO)
        34                          0.0612228               1.6660
        35                          0.0826028               2.2477
        36                          0.0920919               2.5059
        37                          0.0998521               2.7171
       ...                                ...                  ...
        65                          0.3265967               8.8871
      -------------------------------------------------------------
                  HL-Gap            0.3745997 Eh           10.1934 eV
             Fermi-level           -0.2102767 Eh           -5.7219 eV

 SCC (total)                   0 d,  0 h,  0 min,  0.014 sec
 SCC setup                      ...        0 min,  0.000 sec (  2.273%)
 Dispersion                     ...        0 min,  0.000 sec (  1.885%)
 classical contributions        ...        0 min,  0.000 sec (  0.308%)
 integral evaluation            ...        0 min,  0.001 sec (  7.716%)
 iterations                     ...        0 min,  0.009 sec ( 63.539%)
 molecular gradient             ...        0 min,  0.003 sec ( 19.287%)
 printout                       ...        0 min,  0.001 sec (  3.557%)

         :::::::::::::::::::::::::::::::::::::::::::::::::::::
         ::                     SUMMARY                     ::
         :::::::::::::::::::::::::::::::::::::::::::::::::::::
         :: total energy             -34.850913317010 Eh    ::
         :: total w/o Gsasa/hb       -34.843629210667 Eh    ::
         :: gradient norm              0.000417115706 Eh/a0 ::
         :: HOMO-LUMO gap             10.193376754609 eV    ::
         ::.................................................::
         :: SCC energy               -35.288844790950 Eh    ::
         :: -> isotropic ES            0.123420023482 Eh    ::
         :: -> anisotropic ES         -0.025219174375 Eh    ::
         :: -> anisotropic XC          0.009584754395 Eh    ::
         :: -> dispersion             -0.019634180011 Eh    ::
         :: -> Gsolv                  -0.072991729681 Eh    ::
         ::    -> Gelec               -0.065707623338 Eh    ::
         ::    -> Gsasa               -0.001169354660 Eh    ::
         ::    -> Ghb                 -0.007195511381 Eh    ::
         ::    -> Gshift               0.001080759698 Eh    ::
         :: repulsion energy           0.437887608659 Eh    ::
         :: add. restraining           0.000000000000 Eh    ::
         :: total charge               0.000000000000 e     ::
         :::::::::::::::::::::::::::::::::::::::::::::::::::::

           -------------------------------------------------
          |                Property Printout                |
           -------------------------------------------------

    * Orbital Energies and Occupations

         #    Occupation            Energy/Eh            Energy/eV
      -------------------------------------------------------------
         1        2.0000           -1.0053887             -27.3580
       ...           ...                  ...                  ...
        20        2.0000           -0.4678532             -12.7309
        21        2.0000           -0.4561510             -12.4125
        22        2.0000           -0.4508665             -12.2687
        23        2.0000           -0.4397167             -11.9653
        24        2.0000           -0.4349997             -11.8369
        25        2.0000           -0.4300065             -11.7011
        26        2.0000           -0.4186379             -11.3917
        27        2.0000           -0.4170890             -11.3496
        28        2.0000           -0.4130091             -11.2385
        29        2.0000           -0.4099753             -11.1560
        30        2.0000           -0.4021984             -10.9444
        31        2.0000           -0.3997688             -10.8783
        32        2.0000           -0.3975766             -10.8186 (HOMO)
        33                         -0.0229769              -0.6252 (LUMO)
        34                          0.0612228               1.6660
        35                          0.0826028               2.2477
        36                          0.0920919               2.5059
        37                          0.0998521               2.7171
        38                          0.1070580               2.9132
        39                          0.1168311               3.1791
        40                          0.1183426               3.2203
        41                          0.1189347               3.2364
        42                          0.1200723               3.2673
        43                          0.1202560               3.2723
       ...                                ...                  ...
        65                          0.3265967               8.8871
      -------------------------------------------------------------
                  HL-Gap            0.3745997 Eh           10.1934 eV
             Fermi-level           -0.2102767 Eh           -5.7219 eV

     #   Z          covCN         q      C6AA      α(0)
     1   7 N        3.483    -0.164    24.534     7.357
     2   6 C        3.732    -0.027    21.153     6.565
     3   6 C        3.802    -0.081    22.036     6.683
     4   6 C        3.801    -0.069    21.822     6.651
     5   6 C        3.801    -0.059    21.630     6.621
     6   6 C        3.802    -0.066    21.758     6.641
     7   6 C        3.803    -0.061    21.678     6.629
     8   6 C        3.801    -0.059    21.633     6.622
     9   6 C        3.752    -0.110    22.665     6.789
    10  17 Cl       0.034    -0.951   125.024    17.017
    11   1 H        0.859     0.300     0.713     1.323
    12   1 H        0.859     0.294     0.730     1.339
    13   1 H        0.891     0.290     0.740     1.346
    14   1 H        0.924     0.106     1.732     2.058
    15   1 H        0.925     0.099     1.796     2.096
    16   1 H        0.924     0.063     2.161     2.299
    17   1 H        0.925     0.069     2.094     2.263
    18   1 H        0.924     0.048     2.350     2.397
    19   1 H        0.924     0.032     2.561     2.503
    20   1 H        0.924     0.035     2.516     2.480
    21   1 H        0.924     0.016     2.800     2.617
    22   1 H        0.924     0.030     2.584     2.514
    23   1 H        0.924     0.043     2.406     2.425
    24   1 H        0.924     0.030     2.586     2.515
    25   1 H        0.924     0.022     2.707     2.573
    26   1 H        0.924     0.030     2.592     2.518
    27   1 H        0.924     0.035     2.511     2.478
    28   1 H        0.925     0.032     2.560     2.502
    29   1 H        0.925     0.037     2.494     2.469
    30   1 H        0.925     0.036     2.506     2.476

 Mol. C6AA /au·bohr⁶  :       6767.055454
 Mol. C8AA /au·bohr⁸  :     157061.499911
 Mol. α(0) /au        :        122.766944


Wiberg/Mayer (AO) data.
largest (>0.10) Wiberg bond orders for each atom

 ---------------------------------------------------------------------------
     #   Z sym  total        # sym  WBO       # sym  WBO       # sym  WBO
 ---------------------------------------------------------------------------
     1   7 N    3.648 --     2 C    0.965    12 H    0.897    11 H    0.895
                            13 H    0.840
     2   6 C    3.929 --     3 C    1.012    14 H    0.967     1 N    0.965
                            15 H    0.964
     3   6 C    3.992 --     2 C    1.012     4 C    1.008    16 H    0.972
                            17 H    0.967
     4   6 C    3.995 --     3 C    1.008     5 C    1.006    19 H    0.977
                            18 H    0.971
     5   6 C    3.996 --     6 C    1.008     4 C    1.006    21 H    0.977
                            20 H    0.974
     6   6 C    3.997 --     5 C    1.008     7 C    1.007    22 H    0.978
                            23 H    0.974
     7   6 C    3.997 --     8 C    1.008     6 C    1.007    25 H    0.978
                            24 H    0.977
     8   6 C    3.997 --     9 C    1.019     7 C    1.008    26 H    0.979
                            27 H    0.978
     9   6 C    3.996 --     8 C    1.019    28 H    0.988    30 H    0.988
                            29 H    0.987
    10  17 Cl   0.096
    11   1 H    0.910 --     1 N    0.895
    12   1 H    0.913 --     1 N    0.897
    13   1 H    0.916 --     1 N    0.840
    14   1 H    0.989 --     2 C    0.967
    15   1 H    0.990 --     2 C    0.964
    16   1 H    0.996 --     3 C    0.972
    17   1 H    0.995 --     3 C    0.967
    18   1 H    0.997 --     4 C    0.971
    19   1 H    0.999 --     4 C    0.977
    20   1 H    0.999 --     5 C    0.974
    21   1 H    1.000 --     5 C    0.977
    22   1 H    0.999 --     6 C    0.978
    23   1 H    0.998 --     6 C    0.974
    24   1 H    0.999 --     7 C    0.977
    25   1 H    1.000 --     7 C    0.978
    26   1 H    0.999 --     8 C    0.979
    27   1 H    0.999 --     8 C    0.978
    28   1 H    0.999 --     9 C    0.988
    29   1 H    0.998 --     9 C    0.987
    30   1 H    0.999 --     9 C    0.988
 ---------------------------------------------------------------------------

Topologies differ in total number of bonds
Writing topology from bond orders to xtbtopo.mol

molecular dipole:
                 x           y           z       tot (Debye)
 q only:        3.644       4.399      -0.744
   full:        2.998       3.788      -0.659      12.392
molecular quadrupole (traceless):
                xx          xy          yy          xz          yz          zz
 q only:       27.503      25.806     -20.808     -28.425     -28.757      -6.695
  q+dip:       20.287      24.181     -14.774     -23.281     -26.207      -5.513
   full:       20.928      23.738     -14.916     -23.582     -25.802      -6.013

           -------------------------------------------------
          |                Geometry Summary                 |
           -------------------------------------------------

      molecular mass/u    :      165.7043430
   center of mass at/Å    :        4.8637022      -1.4087479      -2.3935700
  moments of inertia/u·Å² :        0.3243319E+03   0.1581949E+04   0.1750230E+04
rotational constants/cm⁻¹ :        0.5197648E-01   0.1065624E-01   0.9631669E-02

 * 28 selected distances

     #   Z          #   Z                                           value/Å
     1   7 N        2   6 C                                       1.4778565
     2   6 C        3   6 C                                       1.5232450
     3   6 C        4   6 C                                       1.5302019
     4   6 C        5   6 C                                       1.5304154 (max)
     5   6 C        6   6 C                                       1.5275553
     6   6 C        7   6 C                                       1.5270480
     7   6 C        8   6 C                                       1.5273732
     8   6 C        9   6 C                                       1.5240863
     1   7 N       11   1 H                                       1.0223026 (min)
     1   7 N       12   1 H                                       1.0230776
     1   7 N       13   1 H                                       1.0488844
     2   6 C       14   1 H                                       1.0906163
     2   6 C       15   1 H                                       1.0881399
     3   6 C       16   1 H                                       1.0906828
     3   6 C       17   1 H                                       1.0890698
     4   6 C       18   1 H                                       1.0915110
     4   6 C       19   1 H                                       1.0921714
     5   6 C       20   1 H                                       1.0910709
     5   6 C       21   1 H                                       1.0934423
     6   6 C       22   1 H                                       1.0925688
     6   6 C       23   1 H                                       1.0906706
     7   6 C       24   1 H                                       1.0928236
     7   6 C       25   1 H                                       1.0931028
     8   6 C       26   1 H                                       1.0923728
     8   6 C       27   1 H                                       1.0921358
     9   6 C       28   1 H                                       1.0879648
     9   6 C       29   1 H                                       1.0873066
     9   6 C       30   1 H                                       1.0878168

 * 4 distinct bonds (by element types)

   Z      Z             #   av. dist./Å        max./Å        min./Å
   1 H    6 C          17     1.0907922     1.0934423     1.0873066
   6 C    6 C           7     1.5271322     1.5304154     1.5232450
   1 H    7 N           3     1.0314215     1.0488844     1.0223026
   6 C    7 N           1     1.4778565     1.4778565     1.4778565


optimized geometry written to: xtbopt.xyz


           -------------------------------------------------
          | TOTAL ENERGY              -34.850913317010 Eh   |
          | GRADIENT NORM               0.000417115706 Eh/α |
          | HOMO-LUMO GAP              10.193376754609 eV   |
           -------------------------------------------------

------------------------------------------------------------------------
 * finished run on 2023/01/24 at 16:09:42.363     
------------------------------------------------------------------------
 total:
 * wall-time:     0 d,  0 h,  0 min,  0.749 sec
 *  cpu-time:     0 d,  0 h,  1 min, 13.102 sec
 * ratio c/w:    97.610 speedup
 SCF:
 * wall-time:     0 d,  0 h,  0 min,  0.044 sec
 *  cpu-time:     0 d,  0 h,  0 min,  6.153 sec
 * ratio c/w:   141.264 speedup
 ANC optimizer:
 * wall-time:     0 d,  0 h,  0 min,  0.688 sec
 *  cpu-time:     0 d,  0 h,  1 min,  4.750 sec
 * ratio c/w:    94.179 speedup

