30
 energy: -34.809060736197 gnorm: 0.000263964657 xtb: 6.5.1 (fef0646)
N            0.79201597291430        1.83285070391406       -1.40032629393081
C            2.22903031476074        2.09691005153239       -1.48877073036735
C            2.91904474714309        1.62861331351288       -0.21038330950324
C            4.44361680778303        1.63911276166271       -0.31433779702964
C            5.03718462607689        3.03799182547277       -0.47118698090246
C            6.56383134453641        3.01031084783198       -0.44409467926050
C            7.16649753604167        4.39746631350118       -0.65217274836637
C            8.69272132808199        4.37279263540721       -0.62329507883158
C            9.28673194196780        5.75588925905222       -0.85969888038590
Cl           0.29516496372221       -1.03664532298900       -1.09489109064236
H            0.30790334245245        2.14768206003769       -2.23387371201144
H            0.39132741611668        2.29995631881180       -0.59330414609934
H            0.53974790812258        0.30939499835291       -1.24453594968386
H            2.43385857412958        3.16162854423786       -1.66145131245365
H            2.61318411063755        1.53039773401123       -2.34023497143802
H            2.58441935737737        0.61151118706018       -0.00295244584582
H            2.60669720387578        2.26259518633478        0.62297166470186
H            4.74941050083806        1.01954612084401       -1.15970612021172
H            4.85292326988096        1.18519676941345        0.59062087410575
H            4.67451540162583        3.67823972072629        0.33664970300208
H            4.71054480348699        3.47543140987693       -1.41642695452351
H            6.92459098813682        2.33966197601037       -1.22747377682878
H            6.90193358313148        2.60891536462322        0.51402150456857
H            6.80246208534586        5.07091384003426        0.12759061416518
H            6.83223483215685        4.79516937369307       -1.61363702104027
H            9.05602354784775        3.68604085432082       -1.39124773148982
H            9.02879507974037        3.99343667670950        0.34436422567749
H            8.98384412333650        6.13980918836996       -1.83158557299295
H           10.37309212684397        5.71711918153205       -0.82975974770480
H            8.94691216189254        6.45274110610209       -0.09647153467808
