 Entering Gaussian System
 *********************************************
 Gaussian 98:
 frequency output generated by the xtb code
 *********************************************
                         Standard orientation:
 --------------------------------------------------------------------
  Center     Atomic     Atomic              Coordinates (Angstroms)
  Number     Number      Type              X           Y           Z
 --------------------------------------------------------------------
    1          7             0       -4.057995   -0.328190   -0.793265
    2          6             0       -3.265930   -0.252562    0.472212
    3          6             0       -1.818882   -0.509760    0.255977
    4          6             0       -0.867016    0.442445    0.400272
    5          6             0        0.533732    0.265208    0.185078
    6          6             0        1.099304   -0.968996   -0.207832
    7          6             0        2.455383   -1.092344   -0.405677
    8          6             0        3.293660   -0.001808   -0.221462
    9          6             0        2.764687    1.221296    0.165198
   10          6             0        1.410939    1.358283    0.366503
   11          1             0       -5.048973   -0.123435   -0.629602
   12          1             0       -3.987101   -1.263651   -1.204974
   13          1             0       -3.698564    0.344127   -1.477548
   14          1             0       -3.665571   -0.969569    1.199595
   15          1             0       -3.402563    0.735490    0.926971
   16          1             0       -1.538658   -1.494852   -0.068032
   17          1             0       -1.187420    1.424768    0.702492
   18          1             0        0.466769   -1.825753   -0.354258
   19          1             0        2.870707   -2.040916   -0.705527
   20          1             0        4.355119   -0.104793   -0.378475
   21          1             0        3.418222    2.066673    0.307674
   22          1             0        1.006995    2.310116    0.666473
 --------------------------------------------------------------------
     1 basis functions        1 primitive gaussians
     1 alpha electrons        1 beta electrons

 Harmonic frequencies (cm**-1), IR intensities (km*mol⁻¹),
 Raman scattering activities (A**4/amu), Raman depolarization ratios,
 reduced masses (AMU), force constants (mDyne/A) and normal coordinates:
                      1                      2                      3
                        a                      a                      a 
 Frequencies --    55.1155                75.3313                88.2679
 Red. masses --     8.6305                 9.4179                 9.1598
 Frc consts  --     0.0000                 0.0000                 0.0000
 IR Inten    --     6.2073                23.3814                20.6830
 Raman Activ --     0.0000                 0.0000                 0.0000
 Depolar     --     0.0000                 0.0000                 0.0000
 Atom AN      X      Y      Z        X      Y      Z        X      Y      Z
   1   7    -0.01   0.32  -0.10    -0.42   0.01   0.32    -0.12  -0.44  -0.05
   2   6     0.00  -0.15  -0.07     0.06  -0.08   0.02    -0.01   0.16  -0.16
   3   6    -0.00  -0.06  -0.19     0.01   0.07  -0.45    -0.00   0.28  -0.21
   4   6     0.02  -0.16   0.30     0.04   0.00  -0.16     0.06   0.14   0.28
   5   6     0.01  -0.09   0.19     0.04   0.03  -0.18     0.05   0.06   0.21
   6   6     0.07  -0.11   0.34     0.07   0.01  -0.08    -0.06   0.05   0.11
   7   6     0.05  -0.02   0.15     0.11  -0.02   0.16    -0.10  -0.01  -0.11
   8   6    -0.03   0.10  -0.20     0.10  -0.04   0.27    -0.02  -0.06  -0.21
   9   6    -0.07   0.11  -0.30     0.06  -0.00   0.10     0.10  -0.07  -0.02
  10   6    -0.05   0.01  -0.07     0.03   0.03  -0.13     0.14  -0.01   0.20
  11   1    -0.00   0.06  -0.00    -0.11  -0.06   0.21    -0.04  -0.18  -0.00
  12   1     0.00   0.13  -0.13    -0.10   0.03   0.03     0.03  -0.15   0.06
  13   1    -0.00   0.16   0.04    -0.23   0.06   0.08    -0.11  -0.15  -0.08
  14   1     0.00  -0.12  -0.09     0.10  -0.06   0.02     0.05   0.10   0.03
  15   1     0.00  -0.09   0.08     0.03  -0.04   0.06    -0.04   0.08  -0.13
  16   1    -0.01   0.04  -0.24    -0.01   0.07  -0.28    -0.01   0.13  -0.22
  17   1     0.02  -0.09   0.24     0.02  -0.04   0.09     0.05   0.00   0.22
  18   1     0.04  -0.06   0.20     0.02   0.00  -0.03    -0.03   0.02   0.06
  19   1     0.03  -0.01   0.08     0.04  -0.01   0.08    -0.06  -0.01  -0.06
  20   1    -0.01   0.05  -0.11     0.04  -0.02   0.14    -0.02  -0.03  -0.12
  21   1    -0.04   0.06  -0.16     0.01  -0.00   0.05     0.05  -0.03  -0.01
  22   1    -0.03   0.01  -0.05    -0.00   0.02  -0.07     0.07  -0.00   0.10
                      4                      5                      6
                        a                      a                      a 
 Frequencies --   141.1776               188.6410               232.6662
 Red. masses --     6.2862                 4.1901                 8.4379
 Frc consts  --     0.0000                 0.0000                 0.0000
 IR Inten    --     4.8718                 0.6540                 1.8438
 Raman Activ --     0.0000                 0.0000                 0.0000
 Depolar     --     0.0000                 0.0000                 0.0000
 Atom AN      X      Y      Z        X      Y      Z        X      Y      Z
   1   7     0.22  -0.03  -0.06    -0.13   0.02   0.01    -0.19   0.05   0.04
   2   6     0.02  -0.31   0.08    -0.06   0.24  -0.05     0.06  -0.26  -0.08
   3   6     0.08   0.11   0.05    -0.08  -0.01   0.07     0.10  -0.05  -0.09
   4   6    -0.03   0.22   0.06     0.01  -0.07  -0.17    -0.05   0.17  -0.40
   5   6    -0.05   0.21  -0.06     0.04  -0.17   0.07     0.03   0.13   0.15
   6   6    -0.19   0.14  -0.05     0.14  -0.13   0.09    -0.03   0.05   0.32
   7   6    -0.20  -0.07   0.03     0.14   0.03  -0.02    -0.08  -0.02   0.04
   8   6    -0.06  -0.19   0.07     0.05   0.12  -0.12    -0.03  -0.01  -0.28
   9   6     0.07  -0.09  -0.03    -0.03   0.04   0.02     0.11  -0.06   0.05
  10   6     0.07   0.11  -0.10    -0.03  -0.11   0.11     0.14   0.03   0.26
  11   1    -0.00  -0.33   0.00    -0.11  -0.44   0.09    -0.02   0.13   0.08
  12   1     0.34   0.10  -0.22     0.34   0.11  -0.18    -0.19   0.01  -0.00
  13   1    -0.11   0.24   0.14    -0.35   0.28   0.11    -0.01  -0.02  -0.00
  14   1     0.04  -0.21  -0.08    -0.03   0.12   0.03     0.06  -0.14  -0.06
  15   1    -0.08  -0.15   0.13     0.01   0.10  -0.07     0.00  -0.11   0.05
  16   1     0.07   0.05  -0.02    -0.04  -0.06   0.16     0.09  -0.06   0.16
  17   1    -0.02   0.05   0.04     0.01   0.02  -0.18    -0.07   0.09  -0.31
  18   1    -0.08   0.06  -0.02     0.06  -0.05   0.03    -0.02   0.02   0.13
  19   1    -0.09  -0.04   0.03     0.06   0.02  -0.02    -0.05  -0.01  -0.01
  20   1    -0.02  -0.10   0.05     0.01   0.07  -0.08    -0.03   0.00  -0.20
  21   1     0.05  -0.05  -0.01    -0.03   0.03   0.00     0.05  -0.03   0.01
  22   1     0.06   0.05  -0.05    -0.03  -0.05   0.05     0.07   0.01   0.11
                      7                      8                      9
                        a                      a                      a 
 Frequencies --   325.6999               355.2179               360.6649
 Red. masses --    10.3168                 9.0751                 8.7512
 Frc consts  --     0.0000                 0.0000                 0.0000
 IR Inten    --    11.5768                 2.5077                 0.3199
 Raman Activ --     0.0000                 0.0000                 0.0000
 Depolar     --     0.0000                 0.0000                 0.0000
 Atom AN      X      Y      Z        X      Y      Z        X      Y      Z
   1   7    -0.39  -0.00  -0.18    -0.12   0.05   0.00    -0.04   0.02  -0.01
   2   6    -0.35  -0.17  -0.10     0.22   0.11  -0.20     0.02   0.02  -0.05
   3   6    -0.17   0.05   0.31     0.15  -0.43   0.01     0.02  -0.10   0.02
   4   6    -0.04   0.00   0.21     0.02  -0.29   0.11    -0.00  -0.08   0.06
   5   6     0.05   0.04   0.09     0.05   0.19   0.18     0.01   0.05   0.04
   6   6     0.15   0.13  -0.10    -0.13   0.23  -0.10     0.03  -0.04   0.37
   7   6     0.17   0.05  -0.03    -0.16  -0.02   0.04    -0.07   0.11  -0.41
   8   6     0.29  -0.06   0.07    -0.07  -0.11   0.12     0.01  -0.03   0.04
   9   6     0.22  -0.02  -0.13     0.04   0.04  -0.18     0.07  -0.10   0.36
  10   6     0.20  -0.00  -0.09     0.08   0.21   0.06    -0.02   0.16  -0.41
  11   1    -0.09   0.04  -0.02    -0.02  -0.05   0.12    -0.01  -0.01   0.02
  12   1    -0.16   0.01  -0.07    -0.03   0.02  -0.02    -0.01   0.01  -0.01
  13   1    -0.09   0.00  -0.04    -0.15   0.05  -0.03    -0.04   0.01  -0.01
  14   1    -0.11  -0.10  -0.09    -0.01   0.16   0.03    -0.01   0.03   0.00
  15   1    -0.17  -0.08   0.02     0.19   0.10  -0.16     0.03   0.02  -0.03
  16   1    -0.01  -0.01   0.18     0.01  -0.16   0.08    -0.00  -0.03   0.01
  17   1     0.00   0.03  -0.00    -0.10  -0.10  -0.02    -0.02  -0.03   0.00
  18   1     0.04   0.04  -0.08    -0.09   0.12  -0.10     0.02  -0.04   0.26
  19   1     0.02   0.01  -0.02    -0.08  -0.02   0.01    -0.05   0.06  -0.26
  20   1     0.09  -0.04   0.06    -0.02  -0.07   0.07     0.00  -0.02   0.04
  21   1     0.05   0.01  -0.06     0.04  -0.00  -0.12     0.04  -0.07   0.23
  22   1     0.09   0.02  -0.05     0.05   0.07   0.02    -0.02   0.09  -0.28
                     10                     11                     12
                        a                      a                      a 
 Frequencies --   426.5899               493.7975               583.5722
 Red. masses --     9.1592                 9.3708                10.9335
 Frc consts  --     0.0000                 0.0000                 0.0000
 IR Inten    --     1.9179                 2.7971                 1.8817
 Raman Activ --     0.0000                 0.0000                 0.0000
 Depolar     --     0.0000                 0.0000                 0.0000
 Atom AN      X      Y      Z        X      Y      Z        X      Y      Z
   1   7     0.13  -0.01   0.03     0.16  -0.01   0.09     0.04   0.01   0.03
   2   6    -0.23   0.08   0.21    -0.11   0.03   0.17     0.12  -0.00  -0.06
   3   6    -0.28  -0.21  -0.09    -0.18   0.03  -0.29     0.04  -0.10  -0.03
   4   6    -0.17  -0.27  -0.12    -0.13  -0.03  -0.24    -0.20   0.11   0.07
   5   6    -0.07   0.25  -0.24    -0.00  -0.08   0.47    -0.25  -0.13  -0.01
   6   6     0.06   0.22   0.08     0.04   0.06   0.09    -0.28  -0.08   0.00
   7   6     0.05   0.01   0.14     0.01   0.09  -0.22    -0.21   0.42   0.14
   8   6     0.15  -0.01  -0.24     0.14  -0.10   0.29     0.25   0.13  -0.01
   9   6     0.18  -0.10   0.10     0.01   0.02  -0.25     0.28   0.08  -0.01
  10   6     0.15   0.08   0.06     0.04  -0.02   0.07     0.17  -0.43  -0.14
  11   1     0.00  -0.04  -0.13     0.02  -0.01  -0.11     0.02   0.00   0.05
  12   1     0.13  -0.01   0.03     0.11  -0.01   0.05    -0.00   0.01  -0.00
  13   1     0.10  -0.00   0.04     0.13  -0.02   0.06    -0.02   0.01   0.00
  14   1    -0.11   0.07   0.08     0.01  -0.02   0.05     0.01   0.06   0.02
  15   1    -0.02   0.05   0.02    -0.03  -0.01   0.08     0.09   0.03  -0.06
  16   1    -0.18  -0.04  -0.18    -0.09  -0.01  -0.07     0.06  -0.01  -0.01
  17   1    -0.09  -0.13   0.10    -0.06   0.00  -0.12    -0.08   0.02   0.02
  18   1     0.01   0.05   0.11    -0.00   0.05  -0.12     0.03  -0.10  -0.03
  19   1    -0.03  -0.04   0.13    -0.04   0.06  -0.23    -0.06   0.11   0.05
  20   1     0.04  -0.01  -0.12     0.04  -0.04   0.10     0.05  -0.09  -0.03
  21   1     0.07  -0.05   0.10    -0.02   0.05  -0.23    -0.01   0.09   0.03
  22   1     0.11   0.03   0.09     0.02   0.04  -0.11     0.04  -0.12  -0.04
                     13                     14                     15
                        a                      a                      a 
 Frequencies --   589.0244               654.5040               721.5819
 Red. masses --    10.8129                 8.3473                 5.0849
 Frc consts  --     0.0000                 0.0000                 0.0000
 IR Inten    --     3.7711                 5.0087                24.0825
 Raman Activ --     0.0000                 0.0000                 0.0000
 Depolar     --     0.0000                 0.0000                 0.0000
 Atom AN      X      Y      Z        X      Y      Z        X      Y      Z
   1   7     0.05   0.02   0.04    -0.02   0.00  -0.02     0.03  -0.00   0.07
   2   6     0.17   0.01  -0.08     0.02  -0.01  -0.01    -0.03   0.03   0.01
   3   6     0.08  -0.03  -0.01     0.03  -0.03   0.10    -0.07   0.10  -0.33
   4   6    -0.26   0.21   0.12    -0.00   0.03  -0.03     0.02  -0.10   0.22
   5   6    -0.30   0.08   0.05    -0.05   0.10  -0.38     0.03  -0.06   0.23
   6   6     0.22   0.28   0.03     0.03  -0.06   0.24    -0.03   0.06  -0.18
   7   6     0.25  -0.04  -0.02    -0.04   0.09  -0.36    -0.01   0.02  -0.02
   8   6     0.30  -0.12  -0.09     0.04  -0.07   0.26    -0.01   0.04  -0.16
   9   6    -0.29  -0.38  -0.05    -0.05   0.09  -0.36    -0.00   0.01  -0.06
  10   6    -0.27  -0.08  -0.01     0.03  -0.08   0.27    -0.02   0.06  -0.21
  11   1     0.02   0.00   0.08    -0.00   0.00   0.02    -0.01  -0.00  -0.07
  12   1    -0.02   0.01  -0.00    -0.02   0.00  -0.02     0.06  -0.01   0.05
  13   1    -0.03   0.01  -0.01    -0.02   0.01  -0.01     0.06  -0.02   0.03
  14   1     0.03   0.06   0.02    -0.02   0.02   0.00     0.07  -0.05  -0.01
  15   1     0.10   0.03  -0.06     0.01   0.01  -0.02    -0.04  -0.02   0.06
  16   1     0.12   0.01   0.01     0.01   0.02  -0.04     0.01  -0.09   0.30
  17   1    -0.10   0.05   0.02     0.01  -0.00   0.03    -0.04   0.06  -0.27
  18   1     0.11   0.04   0.00     0.04  -0.09   0.33     0.02  -0.05   0.21
  19   1    -0.02  -0.05   0.01     0.01  -0.01   0.05     0.03  -0.07   0.28
  20   1     0.10   0.07   0.00     0.04  -0.08   0.31     0.04  -0.09   0.32
  21   1    -0.13  -0.07   0.01     0.00  -0.01   0.04     0.04  -0.08   0.31
  22   1     0.02   0.01   0.01     0.04  -0.08   0.31     0.03  -0.07   0.27
                     16                     17                     18
                        a                      a                      a 
 Frequencies --   775.9783               818.8208               855.5189
 Red. masses --     7.4218                 4.7151                 5.4506
 Frc consts  --     0.0000                 0.0000                 0.0000
 IR Inten    --     4.4376                37.1493                11.6769
 Raman Activ --     0.0000                 0.0000                 0.0000
 Depolar     --     0.0000                 0.0000                 0.0000
 Atom AN      X      Y      Z        X      Y      Z        X      Y      Z
   1   7    -0.01  -0.01  -0.06    -0.04  -0.09   0.05     0.07   0.08   0.01
   2   6     0.01  -0.03   0.01    -0.08  -0.21   0.04     0.04   0.05  -0.05
   3   6     0.04  -0.10   0.34    -0.02  -0.03  -0.13    -0.04  -0.10   0.04
   4   6    -0.06   0.15  -0.40    -0.19   0.20   0.12    -0.25   0.13   0.04
   5   6     0.05  -0.11   0.41    -0.04   0.01  -0.00    -0.10   0.01   0.02
   6   6    -0.02   0.04  -0.21     0.08  -0.13  -0.04     0.11  -0.16   0.21
   7   6     0.01  -0.01  -0.04     0.11  -0.21  -0.07     0.12  -0.23   0.01
   8   6    -0.03   0.04  -0.13    -0.15   0.02   0.02    -0.14   0.03  -0.02
   9   6     0.01   0.01   0.00     0.13   0.16   0.03     0.13   0.19  -0.08
  10   6    -0.01   0.04  -0.11     0.09   0.05   0.00     0.06   0.07  -0.20
  11   1     0.01   0.01   0.06     0.00   0.11  -0.09     0.01  -0.07   0.07
  12   1    -0.06   0.01  -0.05    -0.08   0.11  -0.31     0.06  -0.06   0.18
  13   1    -0.04   0.02  -0.01     0.22   0.15   0.31    -0.12  -0.07  -0.16
  14   1    -0.07   0.06   0.03    -0.07   0.27   0.30    -0.04  -0.06  -0.11
  15   1     0.03   0.02  -0.05     0.14   0.13  -0.33     0.04  -0.04   0.10
  16   1    -0.02   0.12  -0.38     0.13   0.01   0.04     0.02   0.02  -0.10
  17   1     0.03  -0.05   0.21    -0.07   0.06  -0.00    -0.13   0.01   0.03
  18   1     0.03  -0.06   0.19     0.03  -0.04  -0.03    -0.02   0.08  -0.43
  19   1     0.04  -0.06   0.21     0.10  -0.03  -0.02     0.07   0.02  -0.20
  20   1     0.03  -0.06   0.25    -0.04   0.02   0.00    -0.03  -0.01   0.07
  21   1     0.02  -0.04   0.14     0.08   0.01  -0.01     0.11  -0.05   0.25
  22   1     0.01  -0.01   0.06     0.01   0.01   0.00     0.06  -0.09   0.34
                     19                     20                     21
                        a                      a                      a 
 Frequencies --   857.5073               881.9307               901.5362
 Red. masses --     6.0208                 3.6753                 5.5268
 Frc consts  --     0.0000                 0.0000                 0.0000
 IR Inten    --    11.4140                 0.0479                81.9854
 Raman Activ --     0.0000                 0.0000                 0.0000
 Depolar     --     0.0000                 0.0000                 0.0000
 Atom AN      X      Y      Z        X      Y      Z        X      Y      Z
   1   7     0.07   0.09   0.04     0.00   0.00  -0.00     0.41  -0.12   0.13
   2   6     0.04   0.07  -0.06     0.00   0.00   0.00    -0.03   0.00  -0.22
   3   6    -0.06  -0.09  -0.05    -0.01   0.01  -0.02    -0.27   0.16   0.03
   4   6    -0.28   0.12   0.10    -0.01  -0.00   0.02    -0.05  -0.14  -0.00
   5   6    -0.12   0.02   0.01    -0.01   0.02  -0.07    -0.02  -0.01  -0.01
   6   6     0.06  -0.04  -0.26     0.03  -0.06   0.21     0.01   0.02   0.01
   7   6     0.12  -0.22  -0.14    -0.01   0.02  -0.12     0.01  -0.02  -0.02
   8   6    -0.15   0.01   0.07    -0.04   0.08  -0.29    -0.01  -0.00   0.01
   9   6     0.18   0.16   0.12     0.00   0.01  -0.03     0.04   0.04   0.01
  10   6     0.12  -0.02   0.16     0.04  -0.07   0.28     0.02   0.01   0.00
  11   1     0.00  -0.08   0.05     0.00  -0.00   0.01     0.23   0.11   0.57
  12   1     0.09  -0.07   0.22     0.00  -0.00   0.01    -0.28   0.04  -0.20
  13   1    -0.11  -0.09  -0.17    -0.01  -0.00  -0.01    -0.14   0.09   0.03
  14   1    -0.03  -0.08  -0.13     0.00  -0.00  -0.01     0.05  -0.03  -0.06
  15   1     0.04  -0.05   0.13    -0.00  -0.00   0.00    -0.16   0.00  -0.11
  16   1     0.04  -0.03   0.05     0.00  -0.02   0.05    -0.18   0.01   0.03
  17   1    -0.16   0.02  -0.01    -0.00  -0.01   0.04     0.00  -0.02  -0.05
  18   1     0.08  -0.14   0.36    -0.04   0.10  -0.37    -0.03   0.03   0.01
  19   1     0.12  -0.07   0.12     0.04  -0.08   0.29     0.01  -0.01   0.01
  20   1    -0.05   0.03  -0.06     0.05  -0.12   0.44    -0.00  -0.00  -0.02
  21   1     0.06   0.08  -0.23     0.02  -0.03   0.13     0.02   0.01  -0.01
  22   1    -0.02   0.08  -0.29    -0.06   0.14  -0.51     0.00   0.00   0.00
                     22                     23                     24
                        a                      a                      a 
 Frequencies --   915.0468               925.5114               969.5697
 Red. masses --     4.1594                 3.2724                 2.7122
 Frc consts  --     0.0000                 0.0000                 0.0000
 IR Inten    --     0.0668                 0.1138                22.0543
 Raman Activ --     0.0000                 0.0000                 0.0000
 Depolar     --     0.0000                 0.0000                 0.0000
 Atom AN      X      Y      Z        X      Y      Z        X      Y      Z
   1   7    -0.01   0.00  -0.00     0.00   0.00  -0.00    -0.01  -0.01   0.03
   2   6     0.00  -0.00   0.01    -0.00  -0.00   0.00     0.03   0.03  -0.04
   3   6     0.00  -0.00  -0.00    -0.00   0.00   0.00    -0.01   0.05  -0.11
   4   6    -0.00   0.00  -0.01     0.00  -0.01   0.02    -0.03   0.04  -0.26
   5   6     0.00  -0.01   0.02    -0.01   0.02  -0.09    -0.02  -0.01   0.03
   6   6     0.02  -0.04   0.17     0.00  -0.00   0.01     0.06   0.14   0.04
   7   6    -0.04   0.09  -0.34     0.02  -0.04   0.16     0.01  -0.05  -0.01
   8   6     0.01  -0.02   0.07    -0.04   0.08  -0.29    -0.10   0.01   0.01
   9   6     0.03  -0.07   0.27     0.03  -0.07   0.26     0.03   0.05   0.01
  10   6    -0.02   0.05  -0.20    -0.01   0.01  -0.05     0.02  -0.13  -0.07
  11   1    -0.00  -0.00  -0.01     0.00  -0.00   0.01    -0.00   0.01  -0.02
  12   1     0.00  -0.00   0.01    -0.00  -0.00  -0.00     0.01   0.01  -0.01
  13   1    -0.00  -0.00  -0.00    -0.00  -0.00  -0.00     0.03   0.01   0.03
  14   1    -0.00   0.00   0.00    -0.00   0.00  -0.00     0.09  -0.04  -0.02
  15   1     0.00  -0.00   0.00     0.00   0.00  -0.00    -0.06  -0.00  -0.00
  16   1     0.00   0.00  -0.01    -0.00   0.00  -0.01     0.04  -0.16   0.53
  17   1     0.00  -0.00   0.01    -0.00   0.01  -0.03     0.07  -0.20   0.68
  18   1    -0.03   0.06  -0.25     0.01  -0.02   0.08    -0.01   0.05   0.04
  19   1     0.07  -0.15   0.56    -0.04   0.09  -0.35    -0.03  -0.01  -0.04
  20   1    -0.01   0.03  -0.12     0.07  -0.14   0.54    -0.02  -0.00   0.02
  21   1    -0.05   0.11  -0.44    -0.06   0.14  -0.53    -0.01   0.03   0.01
  22   1     0.03  -0.07   0.27     0.02  -0.05   0.18    -0.01  -0.07   0.05
                     25                     26                     27
                        a                      a                      a 
 Frequencies --   973.6115               999.8475              1022.9406
 Red. masses --     9.7474                10.0838                 4.8852
 Frc consts  --     0.0000                 0.0000                 0.0000
 IR Inten    --     2.1591                23.0526                 8.1821
 Raman Activ --     0.0000                 0.0000                 0.0000
 Depolar     --     0.0000                 0.0000                 0.0000
 Atom AN      X      Y      Z        X      Y      Z        X      Y      Z
   1   7     0.06   0.04   0.07    -0.10  -0.10  -0.49    -0.15  -0.15   0.11
   2   6    -0.06  -0.04  -0.08     0.32   0.10   0.60     0.22   0.31  -0.21
   3   6    -0.04  -0.01  -0.06    -0.04   0.02  -0.10     0.04  -0.06   0.18
   4   6    -0.08   0.08  -0.04    -0.07   0.01   0.03    -0.12  -0.02   0.01
   5   6     0.05   0.01   0.01    -0.06   0.02   0.02    -0.10   0.04  -0.00
   6   6    -0.21  -0.50  -0.10    -0.03  -0.09  -0.02    -0.04  -0.11  -0.02
   7   6    -0.01   0.15   0.04     0.03  -0.04  -0.01     0.05  -0.07  -0.02
   8   6     0.33  -0.03  -0.05     0.05   0.00  -0.00     0.07   0.01  -0.01
   9   6    -0.06  -0.15  -0.03     0.02   0.02  -0.00     0.05   0.04   0.01
  10   6    -0.08   0.51   0.13    -0.01   0.06   0.01    -0.01   0.05   0.02
  11   1     0.01  -0.01   0.04     0.03   0.03   0.12    -0.05   0.08  -0.22
  12   1     0.03  -0.01   0.06    -0.21   0.01  -0.22     0.01   0.06  -0.18
  13   1    -0.02  -0.01  -0.02    -0.16   0.03  -0.14     0.24   0.06   0.27
  14   1    -0.06   0.02  -0.02     0.08  -0.02   0.10     0.45  -0.19  -0.10
  15   1     0.03  -0.00  -0.03    -0.02   0.03   0.11    -0.26  -0.05   0.12
  16   1     0.05  -0.04   0.15    -0.11  -0.05   0.08    -0.22  -0.03  -0.09
  17   1    -0.04  -0.05   0.20    -0.09  -0.02   0.01    -0.19  -0.05  -0.02
  18   1     0.04  -0.21  -0.05    -0.01  -0.03   0.00    -0.03  -0.02  -0.01
  19   1     0.09   0.08  -0.00     0.04   0.00  -0.01     0.05  -0.01  -0.01
  20   1     0.09  -0.01  -0.01     0.02   0.01  -0.00     0.02   0.02   0.01
  21   1     0.06  -0.09  -0.03     0.01   0.00   0.00     0.01   0.01  -0.00
  22   1     0.07   0.17   0.05     0.02   0.02   0.01     0.01   0.02   0.00
                     28                     29                     30
                        a                      a                      a 
 Frequencies --  1079.9673              1116.1232              1139.4258
 Red. masses --     6.8709                 5.4269                 7.0807
 Frc consts  --     0.0000                 0.0000                 0.0000
 IR Inten    --     1.4897                 3.5907                20.2644
 Raman Activ --     0.0000                 0.0000                 0.0000
 Depolar     --     0.0000                 0.0000                 0.0000
 Atom AN      X      Y      Z        X      Y      Z        X      Y      Z
   1   7     0.00   0.03   0.01     0.04  -0.00   0.02    -0.08   0.09  -0.02
   2   6     0.00  -0.07  -0.01    -0.16   0.02   0.02     0.37  -0.26  -0.10
   3   6     0.00   0.03  -0.00     0.17  -0.10  -0.07    -0.40   0.25   0.15
   4   6     0.03   0.01  -0.00     0.07   0.13   0.03    -0.07  -0.18  -0.04
   5   6     0.02  -0.01  -0.00     0.14   0.23   0.05    -0.09  -0.03  -0.00
   6   6    -0.16  -0.02   0.01    -0.16  -0.15  -0.02    -0.08  -0.01   0.01
   7   6    -0.01  -0.34  -0.09     0.02  -0.13  -0.04     0.05  -0.04  -0.02
   8   6     0.46  -0.05  -0.07     0.02   0.21   0.05     0.00   0.07   0.02
   9   6     0.08   0.34   0.08    -0.12  -0.17  -0.03    -0.01  -0.03  -0.00
  10   6    -0.16   0.06   0.03     0.13  -0.22  -0.08     0.07   0.01  -0.01
  11   1    -0.01  -0.02  -0.01     0.02  -0.00   0.04    -0.05  -0.04  -0.12
  12   1     0.02  -0.01   0.04    -0.02  -0.00   0.00     0.10  -0.01   0.09
  13   1    -0.01  -0.01  -0.02    -0.02   0.00  -0.01     0.03  -0.04  -0.04
  14   1    -0.04   0.03   0.02    -0.11   0.02  -0.01     0.15   0.01   0.07
  15   1     0.05   0.00  -0.03    -0.10   0.00  -0.01     0.34  -0.01  -0.08
  16   1    -0.03  -0.00   0.01    -0.14  -0.09  -0.00    -0.12   0.07   0.03
  17   1     0.00   0.00   0.00    -0.16  -0.03   0.01     0.24   0.04  -0.02
  18   1    -0.26   0.14   0.07    -0.33   0.16   0.08    -0.19   0.11   0.05
  19   1    -0.28  -0.22  -0.02     0.23   0.06  -0.01     0.12   0.03  -0.01
  20   1     0.14  -0.02  -0.02     0.05   0.38   0.09     0.02   0.15   0.04
  21   1    -0.20   0.27   0.09    -0.26   0.11   0.06    -0.03   0.01   0.01
  22   1    -0.30  -0.09   0.01     0.28   0.04  -0.02     0.27   0.11  -0.00
                     31                     32                     33
                        a                      a                      a 
 Frequencies --  1178.3472              1185.1349              1213.7176
 Red. masses --     1.6322                 2.3264                 2.9326
 Frc consts  --     0.0000                 0.0000                 0.0000
 IR Inten    --     0.0363                 2.1915                10.1847
 Raman Activ --     0.0000                 0.0000                 0.0000
 Depolar     --     0.0000                 0.0000                 0.0000
 Atom AN      X      Y      Z        X      Y      Z        X      Y      Z
   1   7     0.00  -0.03  -0.00    -0.01   0.09  -0.00     0.03   0.24  -0.04
   2   6    -0.02   0.06   0.01     0.06  -0.16  -0.02    -0.02  -0.24   0.01
   3   6    -0.00  -0.03  -0.01    -0.02   0.07   0.03     0.02   0.09   0.05
   4   6     0.00  -0.03  -0.01    -0.02   0.09   0.03     0.05  -0.03  -0.01
   5   6    -0.06  -0.10  -0.02     0.15   0.01  -0.02     0.05   0.08   0.01
   6   6    -0.11   0.02   0.02    -0.02   0.02   0.01     0.09  -0.05  -0.03
   7   6    -0.03  -0.05  -0.01     0.04   0.11   0.03    -0.06  -0.01   0.00
   8   6     0.01   0.08   0.02     0.02   0.01   0.00    -0.06   0.02   0.01
   9   6     0.01   0.01   0.00     0.05  -0.12  -0.04    -0.02  -0.00   0.00
  10   6     0.11   0.01  -0.01    -0.07  -0.05  -0.01     0.04  -0.02  -0.01
  11   1     0.01   0.01   0.01    -0.02  -0.04  -0.03    -0.02  -0.09   0.01
  12   1    -0.01   0.00  -0.03     0.04  -0.01   0.08     0.06  -0.02   0.19
  13   1     0.01   0.01   0.02    -0.02  -0.03  -0.06    -0.07  -0.06  -0.17
  14   1    -0.01  -0.02  -0.03     0.06   0.04   0.10     0.36   0.05   0.31
  15   1    -0.00  -0.00   0.04    -0.00   0.01  -0.12    -0.29   0.05  -0.31
  16   1     0.10   0.02  -0.00    -0.24  -0.05   0.01    -0.15  -0.01  -0.01
  17   1     0.09   0.02  -0.00    -0.26  -0.06   0.01    -0.29  -0.10  -0.01
  18   1     0.14  -0.11  -0.05    -0.23   0.17   0.07     0.26  -0.18  -0.08
  19   1    -0.44  -0.20  -0.00     0.18   0.11   0.01    -0.23  -0.10   0.00
  20   1     0.10   0.70   0.17     0.02   0.11   0.03    -0.01   0.01   0.00
  21   1     0.28  -0.20  -0.09     0.37  -0.29  -0.12    -0.16   0.11   0.05
  22   1    -0.00  -0.01  -0.00    -0.52  -0.23   0.00     0.11   0.03  -0.01
                     34                     35                     36
                        a                      a                      a 
 Frequencies --  1241.5360              1259.6781              1295.2867
 Red. masses --     4.1574                 4.2064                 4.6337
 Frc consts  --     0.0000                 0.0000                 0.0000
 IR Inten    --    18.0681                 1.4779                 8.2948
 Raman Activ --     0.0000                 0.0000                 0.0000
 Depolar     --     0.0000                 0.0000                 0.0000
 Atom AN      X      Y      Z        X      Y      Z        X      Y      Z
   1   7    -0.05  -0.12   0.06     0.00  -0.03  -0.06     0.01  -0.03  -0.08
   2   6     0.19  -0.03  -0.06    -0.04   0.08  -0.00    -0.12   0.09  -0.01
   3   6    -0.17   0.14   0.03    -0.18   0.11   0.07    -0.08  -0.03   0.03
   4   6     0.02   0.09   0.02    -0.05  -0.25  -0.06    -0.17   0.02   0.03
   5   6     0.26   0.15   0.01     0.13   0.29   0.06     0.29  -0.13  -0.07
   6   6     0.16  -0.09  -0.04    -0.08  -0.01   0.01     0.23  -0.15  -0.07
   7   6    -0.10   0.05   0.03    -0.10  -0.08  -0.01    -0.01   0.12   0.03
   8   6    -0.08   0.04   0.02     0.02   0.00  -0.00    -0.02   0.20   0.06
   9   6    -0.03  -0.10  -0.02     0.07  -0.12  -0.04    -0.06  -0.05  -0.01
  10   6     0.06  -0.05  -0.02     0.05  -0.05  -0.02    -0.09  -0.05  -0.00
  11   1    -0.01   0.04  -0.05     0.02   0.03   0.05     0.02   0.02   0.07
  12   1     0.01   0.02  -0.09     0.00  -0.01  -0.00    -0.01  -0.02   0.02
  13   1     0.06   0.01   0.09     0.00   0.03   0.02     0.01   0.04   0.03
  14   1    -0.34   0.01  -0.22     0.18  -0.03   0.05     0.22  -0.02   0.09
  15   1     0.34  -0.04   0.14     0.09   0.00   0.08     0.14  -0.01   0.12
  16   1    -0.29  -0.04   0.04     0.57   0.22  -0.01     0.29   0.09  -0.01
  17   1    -0.34  -0.08   0.02    -0.14  -0.10  -0.01    -0.21  -0.05   0.01
  18   1     0.22  -0.14  -0.06     0.12  -0.10  -0.04    -0.34   0.25   0.10
  19   1    -0.24  -0.08   0.01     0.24   0.09  -0.01    -0.36  -0.12   0.01
  20   1    -0.03  -0.01   0.00     0.02   0.15   0.04    -0.04  -0.18  -0.04
  21   1    -0.18   0.09   0.05    -0.16   0.10   0.05     0.09  -0.10  -0.04
  22   1    -0.08  -0.06  -0.00    -0.29  -0.14  -0.00     0.20   0.08  -0.00
                     37                     38                     39
                        a                      a                      a 
 Frequencies --  1300.9877              1311.4001              1336.1981
 Red. masses --    10.0014                 4.8815                 5.5730
 Frc consts  --     0.0000                 0.0000                 0.0000
 IR Inten    --     6.2496                12.9395                50.6383
 Raman Activ --     0.0000                 0.0000                 0.0000
 Depolar     --     0.0000                 0.0000                 0.0000
 Atom AN      X      Y      Z        X      Y      Z        X      Y      Z
   1   7     0.01  -0.00  -0.05     0.02  -0.01  -0.12    -0.05  -0.06  -0.21
   2   6    -0.05   0.04  -0.02    -0.21   0.03  -0.06    -0.28  -0.01  -0.07
   3   6    -0.07  -0.13  -0.01    -0.04  -0.24  -0.03     0.18   0.16   0.04
   4   6    -0.17   0.16   0.06    -0.08   0.19   0.06     0.26  -0.05  -0.05
   5   6     0.25  -0.36  -0.13     0.10   0.25   0.05    -0.24  -0.07   0.01
   6   6    -0.16   0.16   0.06     0.13  -0.10  -0.04    -0.15   0.09   0.04
   7   6     0.18   0.19   0.03    -0.15  -0.04   0.01     0.10  -0.06  -0.03
   8   6    -0.10  -0.34  -0.08    -0.00   0.11   0.03     0.04  -0.07  -0.02
   9   6    -0.23   0.03   0.04     0.10  -0.12  -0.04    -0.04   0.14   0.04
  10   6     0.41   0.19  -0.00    -0.08  -0.04  -0.00    -0.04  -0.03  -0.00
  11   1     0.01   0.00   0.04     0.03  -0.00   0.12     0.06   0.05   0.26
  12   1    -0.00  -0.01   0.02     0.00  -0.04   0.07     0.09  -0.09   0.16
  13   1     0.01   0.02   0.01     0.03   0.05   0.04     0.13   0.11   0.16
  14   1     0.16  -0.02   0.07     0.33  -0.03   0.16     0.12   0.04   0.13
  15   1     0.07  -0.01   0.06     0.25  -0.03   0.14     0.40  -0.05   0.23
  16   1    -0.03  -0.04  -0.01    -0.27  -0.15  -0.00    -0.13  -0.01   0.02
  17   1    -0.02   0.05   0.02     0.46   0.21   0.02    -0.29  -0.14   0.00
  18   1    -0.02   0.03   0.01     0.11  -0.08  -0.03     0.07  -0.06  -0.02
  19   1     0.01   0.04   0.01    -0.03  -0.00   0.00     0.10   0.01  -0.01
  20   1    -0.00   0.12   0.03    -0.00   0.01   0.00     0.02  -0.02  -0.01
  21   1    -0.26   0.15   0.07    -0.05   0.03   0.01     0.12  -0.05  -0.03
  22   1    -0.13  -0.06  -0.00    -0.17  -0.07  -0.00     0.13   0.06  -0.00
                     40                     41                     42
                        a                      a                      a 
 Frequencies --  1359.9461              1385.3473              1402.3759
 Red. masses --     3.1060                 1.5304                 1.6592
 Frc consts  --     0.0000                 0.0000                 0.0000
 IR Inten    --   285.8635               116.6918               103.3459
 Raman Activ --     0.0000                 0.0000                 0.0000
 Depolar     --     0.0000                 0.0000                 0.0000
 Atom AN      X      Y      Z        X      Y      Z        X      Y      Z
   1   7     0.24  -0.02   0.22     0.04   0.19  -0.04    -0.13   0.06   0.13
   2   6    -0.20   0.01  -0.04     0.01   0.04  -0.01    -0.09   0.02   0.00
   3   6     0.06   0.04   0.03    -0.00   0.01  -0.00     0.01  -0.01   0.00
   4   6     0.08  -0.00  -0.01     0.00  -0.01  -0.00     0.03   0.01  -0.00
   5   6    -0.06  -0.01   0.00    -0.00  -0.00  -0.00    -0.00   0.00   0.00
   6   6    -0.04   0.02   0.01     0.00   0.00   0.00    -0.02   0.01   0.01
   7   6     0.02  -0.02  -0.01    -0.00  -0.00  -0.00     0.01  -0.01  -0.00
   8   6     0.01  -0.02  -0.01     0.00  -0.00  -0.00     0.01   0.00  -0.00
   9   6    -0.02   0.04   0.01     0.00  -0.00  -0.00    -0.02   0.02   0.01
  10   6    -0.01  -0.01  -0.00    -0.00  -0.00   0.00    -0.01  -0.01  -0.00
  11   1    -0.06  -0.06  -0.48    -0.13  -0.70   0.09     0.02  -0.01   0.24
  12   1    -0.37   0.09  -0.27    -0.49  -0.02   0.01     0.32   0.25  -0.49
  13   1    -0.40  -0.03  -0.24     0.42  -0.11   0.08     0.25  -0.52  -0.37
  14   1     0.18  -0.02   0.10    -0.03  -0.01  -0.04     0.07  -0.01   0.04
  15   1     0.29  -0.02   0.13     0.03   0.00   0.03     0.09  -0.00   0.05
  16   1    -0.05  -0.01   0.01     0.02   0.01   0.00     0.00  -0.00  -0.00
  17   1    -0.08  -0.04   0.01    -0.01  -0.01   0.00    -0.01  -0.00   0.00
  18   1     0.03  -0.03  -0.01    -0.00   0.00   0.00     0.01  -0.01  -0.01
  19   1     0.03   0.00  -0.00     0.00   0.00  -0.00     0.01  -0.00  -0.00
  20   1     0.00  -0.01  -0.00     0.00   0.00   0.00     0.00  -0.01  -0.00
  21   1     0.03  -0.01  -0.01    -0.00   0.00   0.00     0.02  -0.01  -0.00
  22   1     0.04   0.01  -0.00     0.00   0.00   0.00     0.01   0.00   0.00
                     43                     44                     45
                        a                      a                      a 
 Frequencies --  1434.7090              1466.1788              1471.8270
 Red. masses --     9.2648                 8.5809                 2.7179
 Frc consts  --     0.0000                 0.0000                 0.0000
 IR Inten    --     0.6158                 0.5346                17.5924
 Raman Activ --     0.0000                 0.0000                 0.0000
 Depolar     --     0.0000                 0.0000                 0.0000
 Atom AN      X      Y      Z        X      Y      Z        X      Y      Z
   1   7    -0.00  -0.00  -0.00    -0.00  -0.00  -0.00    -0.00  -0.00   0.01
   2   6    -0.03  -0.01  -0.02    -0.01  -0.02  -0.07    -0.18   0.06   0.22
   3   6     0.11   0.06   0.00     0.13   0.09   0.01     0.07   0.01   0.01
   4   6    -0.02   0.01   0.00     0.09  -0.13  -0.05     0.06  -0.02  -0.01
   5   6    -0.10  -0.32  -0.07    -0.45   0.12   0.09    -0.16   0.01   0.02
   6   6     0.35   0.05  -0.03     0.07  -0.23  -0.07     0.04  -0.07  -0.02
   7   6    -0.37   0.06   0.06     0.31   0.18   0.01     0.08   0.06   0.01
   8   6    -0.07  -0.17  -0.04    -0.21   0.08   0.05    -0.07  -0.00   0.01
   9   6     0.44  -0.11  -0.08     0.10  -0.23  -0.07     0.06  -0.07  -0.02
  10   6    -0.24   0.19   0.08     0.26   0.16   0.01     0.06   0.06   0.01
  11   1     0.00   0.00   0.01    -0.00  -0.00   0.00     0.00   0.01   0.02
  12   1     0.01   0.01  -0.02    -0.00   0.01  -0.02     0.02  -0.00   0.02
  13   1     0.00  -0.01  -0.01    -0.00  -0.01  -0.01     0.02   0.01   0.02
  14   1    -0.02   0.04   0.04    -0.06   0.15   0.12     0.14  -0.48  -0.38
  15   1     0.02  -0.02   0.05    -0.06  -0.09   0.17     0.29   0.29  -0.51
  16   1    -0.03  -0.00   0.00     0.00   0.01   0.01    -0.01   0.00  -0.01
  17   1    -0.10  -0.03   0.00     0.06  -0.02  -0.01    -0.03  -0.02  -0.01
  18   1    -0.07   0.13   0.04    -0.20   0.08   0.04    -0.07   0.03   0.02
  19   1     0.11   0.12   0.02    -0.23  -0.09   0.00    -0.06  -0.02   0.00
  20   1     0.03   0.31   0.08    -0.07  -0.05  -0.00    -0.02   0.01   0.00
  21   1    -0.17   0.19   0.07    -0.17   0.07   0.04    -0.06   0.03   0.02
  22   1     0.02   0.09   0.02    -0.25  -0.09   0.01    -0.07  -0.02   0.00
                     46                     47                     48
                        a                      a                      a 
 Frequencies --  1551.0919              1592.5865              1613.2230
 Red. masses --    11.2307                11.4315                11.4749
 Frc consts  --     0.0000                 0.0000                 0.0000
 IR Inten    --     0.4265                 4.6465                 5.6490
 Raman Activ --     0.0000                 0.0000                 0.0000
 Depolar     --     0.0000                 0.0000                 0.0000
 Atom AN      X      Y      Z        X      Y      Z        X      Y      Z
   1   7    -0.00  -0.00  -0.00     0.01   0.00   0.01    -0.01  -0.00  -0.01
   2   6    -0.01  -0.00   0.00     0.05   0.01  -0.02    -0.07  -0.02   0.02
   3   6     0.05   0.02   0.00    -0.31  -0.20  -0.02     0.43   0.30   0.03
   4   6    -0.04   0.01   0.01     0.38   0.20   0.01    -0.45  -0.30  -0.03
   5   6    -0.01  -0.36  -0.09    -0.30  -0.02   0.03     0.00   0.05   0.02
   6   6    -0.15   0.25   0.08     0.34  -0.08  -0.06     0.24  -0.09  -0.05
   7   6    -0.13  -0.31  -0.07    -0.37  -0.08   0.02    -0.29  -0.05   0.02
   8   6     0.08   0.60   0.15     0.16   0.01  -0.02     0.14  -0.02  -0.02
   9   6     0.05  -0.32  -0.09    -0.31   0.11   0.07    -0.30   0.13   0.07
  10   6     0.19   0.21   0.03     0.34   0.05  -0.03     0.29   0.01  -0.03
  11   1     0.00   0.00   0.00     0.00   0.00  -0.00    -0.00   0.00   0.00
  12   1    -0.00  -0.00  -0.00    -0.00  -0.00   0.00     0.00   0.00  -0.00
  13   1    -0.00   0.00   0.00    -0.00   0.00   0.00     0.00  -0.00  -0.00
  14   1    -0.00  -0.00  -0.00     0.04  -0.01   0.01    -0.05   0.01  -0.01
  15   1     0.01   0.00  -0.00    -0.03  -0.01   0.00     0.05   0.01  -0.00
  16   1    -0.03  -0.01   0.00     0.09  -0.01  -0.01    -0.12   0.02   0.02
  17   1    -0.04  -0.01   0.00    -0.09  -0.00   0.01     0.12  -0.01  -0.02
  18   1     0.11  -0.04  -0.02    -0.05   0.07   0.02    -0.01   0.03   0.01
  19   1     0.06  -0.04  -0.02     0.08   0.06   0.01     0.05   0.04   0.00
  20   1    -0.02  -0.18  -0.04     0.04  -0.01  -0.01     0.04  -0.01  -0.01
  21   1    -0.07  -0.03   0.00     0.05  -0.06  -0.02     0.05  -0.06  -0.02
  22   1    -0.10  -0.01   0.01    -0.06  -0.05  -0.01    -0.03  -0.05  -0.01
                     49                     50                     51
                        a                      a                      a 
 Frequencies --  2954.1170              2981.3743              3090.1410
 Red. masses --     1.9344                 1.5435                 1.7488
 Frc consts  --     0.0000                 0.0000                 0.0000
 IR Inten    --     2.5805                 8.8758                 0.6991
 Raman Activ --     0.0000                 0.0000                 0.0000
 Depolar     --     0.0000                 0.0000                 0.0000
 Atom AN      X      Y      Z        X      Y      Z        X      Y      Z
   1   7     0.00  -0.00   0.00    -0.00   0.00  -0.00    -0.00  -0.00  -0.00
   2   6    -0.06  -0.27   0.09     0.07  -0.12  -0.17    -0.00   0.00   0.00
   3   6    -0.01  -0.00   0.00     0.00   0.00  -0.00    -0.00   0.00   0.00
   4   6     0.00   0.00   0.00    -0.00   0.00   0.00    -0.00   0.00   0.00
   5   6    -0.00  -0.00  -0.00     0.00  -0.00  -0.00    -0.00   0.00   0.00
   6   6    -0.00  -0.00  -0.00    -0.00  -0.00   0.00    -0.01  -0.01  -0.00
   7   6    -0.00   0.00  -0.00    -0.00   0.00   0.00    -0.05   0.11   0.03
   8   6     0.00   0.00  -0.00    -0.00   0.00   0.00     0.18  -0.02  -0.03
   9   6     0.00   0.00   0.00    -0.00  -0.00  -0.00    -0.08  -0.11  -0.02
  10   6    -0.00   0.00   0.00    -0.00   0.00   0.00    -0.01   0.02   0.01
  11   1     0.00   0.00  -0.00    -0.00   0.00  -0.00    -0.00   0.00   0.00
  12   1     0.00  -0.01  -0.00     0.00  -0.02  -0.01     0.00  -0.00  -0.00
  13   1    -0.01  -0.01   0.01     0.00   0.01  -0.01     0.00   0.00  -0.00
  14   1     0.30   0.55  -0.55    -0.17  -0.34   0.30    -0.00   0.00  -0.00
  15   1    -0.07   0.41   0.21    -0.09   0.77   0.33     0.00  -0.00  -0.00
  16   1     0.01  -0.02  -0.01     0.01  -0.03  -0.01     0.00  -0.00  -0.00
  17   1     0.00   0.00   0.00     0.00  -0.00  -0.00     0.00  -0.00  -0.00
  18   1     0.00   0.00  -0.00     0.00   0.00  -0.00     0.03   0.04   0.01
  19   1     0.00  -0.00  -0.00     0.00  -0.00  -0.00     0.18  -0.41  -0.13
  20   1     0.00   0.00  -0.00     0.00  -0.00  -0.00    -0.65   0.06   0.10
  21   1    -0.00  -0.00   0.00     0.00   0.00   0.00     0.31   0.40   0.07
  22   1     0.00  -0.00   0.00     0.00  -0.00  -0.00     0.04  -0.10  -0.03
                     52                     53                     54
                        a                      a                      a 
 Frequencies --  3094.7950              3105.7650              3114.5650
 Red. masses --     1.8069                 1.8624                 1.8252
 Frc consts  --     0.0000                 0.0000                 0.0000
 IR Inten    --    86.2629               206.1126                25.5341
 Raman Activ --     0.0000                 0.0000                 0.0000
 Depolar     --     0.0000                 0.0000                 0.0000
 Atom AN      X      Y      Z        X      Y      Z        X      Y      Z
   1   7     0.00  -0.00  -0.00     0.00   0.00  -0.00     0.00  -0.00  -0.00
   2   6     0.00   0.00   0.00    -0.00  -0.00  -0.00     0.00   0.00   0.00
   3   6    -0.00   0.00   0.00     0.00  -0.00  -0.00    -0.00   0.03   0.01
   4   6    -0.00   0.00   0.00    -0.00   0.00   0.00     0.06  -0.21  -0.06
   5   6     0.00  -0.01  -0.00     0.00  -0.00  -0.00    -0.00  -0.01  -0.00
   6   6    -0.02  -0.02  -0.00     0.02   0.03   0.01     0.01   0.01   0.00
   7   6    -0.08   0.16   0.05     0.05  -0.12  -0.04     0.01  -0.02  -0.00
   8   6     0.02   0.00  -0.00     0.19  -0.02  -0.03     0.04  -0.01  -0.01
   9   6     0.11   0.14   0.02     0.05   0.07   0.01     0.04   0.05   0.01
  10   6     0.02  -0.05  -0.02     0.04  -0.10  -0.03    -0.05   0.11   0.03
  11   1    -0.00   0.00   0.00     0.00  -0.00  -0.00    -0.00   0.00   0.00
  12   1    -0.00   0.00   0.00    -0.00   0.00   0.00     0.00   0.00   0.00
  13   1     0.00  -0.00   0.00    -0.00  -0.00   0.00    -0.00  -0.00  -0.00
  14   1    -0.00  -0.00   0.00     0.00  -0.00   0.00     0.00  -0.00   0.00
  15   1     0.00  -0.00  -0.00    -0.00   0.00   0.00    -0.00  -0.00  -0.00
  16   1     0.00  -0.01  -0.00    -0.00   0.02   0.00     0.03  -0.11  -0.04
  17   1     0.00  -0.01  -0.00     0.00  -0.01  -0.00    -0.24   0.75   0.23
  18   1     0.07   0.09   0.01    -0.08  -0.11  -0.02    -0.03  -0.03  -0.01
  19   1     0.26  -0.58  -0.19    -0.18   0.41   0.13    -0.02   0.05   0.02
  20   1    -0.06   0.01   0.01    -0.64   0.06   0.09    -0.13   0.01   0.02
  21   1    -0.39  -0.51  -0.09    -0.18  -0.24  -0.04    -0.13  -0.16  -0.03
  22   1    -0.08   0.20   0.06    -0.15   0.37   0.12     0.16  -0.37  -0.12
                     55                     56                     57
                        a                      a                      a 
 Frequencies --  3117.5184              3132.8493              3145.4919
 Red. masses --     1.8513                 1.8530                 1.8157
 Frc consts  --     0.0000                 0.0000                 0.0000
 IR Inten    --   125.2893                19.6860                68.0337
 Raman Activ --     0.0000                 0.0000                 0.0000
 Depolar     --     0.0000                 0.0000                 0.0000
 Atom AN      X      Y      Z        X      Y      Z        X      Y      Z
   1   7    -0.00  -0.00  -0.00    -0.00   0.00   0.00     0.00  -0.00  -0.00
   2   6    -0.00  -0.00  -0.00     0.00  -0.00  -0.00    -0.00   0.01   0.00
   3   6     0.00  -0.03  -0.01     0.02  -0.07  -0.02    -0.06   0.24   0.08
   4   6    -0.04   0.12   0.04     0.01  -0.02  -0.01    -0.02   0.04   0.01
   5   6    -0.00   0.01   0.00     0.01  -0.00  -0.00     0.00   0.00   0.00
   6   6     0.02   0.03   0.00     0.15   0.20   0.03     0.04   0.06   0.01
   7   6     0.01  -0.02  -0.01    -0.02   0.05   0.02    -0.00   0.01   0.00
   8   6     0.06  -0.01  -0.01    -0.03   0.00   0.00    -0.00  -0.00   0.00
   9   6     0.06   0.08   0.01    -0.01  -0.01  -0.00    -0.00  -0.00  -0.00
  10   6    -0.08   0.18   0.06     0.01  -0.02  -0.01    -0.00   0.00   0.00
  11   1     0.00  -0.00  -0.00     0.00  -0.00  -0.00    -0.01   0.00   0.00
  12   1    -0.00   0.00   0.00     0.00  -0.00  -0.00    -0.00   0.00   0.00
  13   1    -0.00  -0.00   0.00     0.00  -0.00  -0.00     0.00   0.00  -0.00
  14   1    -0.00  -0.00   0.00     0.00   0.00  -0.00    -0.00   0.00   0.00
  15   1     0.00   0.00   0.00    -0.00   0.01   0.00     0.00  -0.03  -0.01
  16   1    -0.03   0.11   0.03    -0.07   0.23   0.07     0.24  -0.84  -0.27
  17   1     0.14  -0.44  -0.14    -0.02   0.07   0.02     0.04  -0.14  -0.04
  18   1    -0.08  -0.10  -0.02    -0.53  -0.71  -0.12    -0.16  -0.21  -0.03
  19   1    -0.03   0.08   0.02     0.07  -0.16  -0.05     0.01  -0.02  -0.01
  20   1    -0.20   0.02   0.03     0.09  -0.01  -0.01     0.01  -0.00  -0.00
  21   1    -0.20  -0.26  -0.04     0.03   0.04   0.01     0.00   0.00   0.00
  22   1     0.27  -0.63  -0.20    -0.03   0.08   0.02     0.00  -0.00  -0.00
                     58                     59                     60
                        a                      a                      a 
 Frequencies --  3275.8526              3284.7568              3304.1392
 Red. masses --     2.0244                 2.0513                 1.3118
 Frc consts  --     0.0000                 0.0000                 0.0000
 IR Inten    --   202.4816               174.7807                66.8208
 Raman Activ --     0.0000                 0.0000                 0.0000
 Depolar     --     0.0000                 0.0000                 0.0000
 Atom AN      X      Y      Z        X      Y      Z        X      Y      Z
   1   7     0.25  -0.04  -0.11     0.03   0.28  -0.05    -0.02  -0.04  -0.15
   2   6     0.00  -0.00  -0.00     0.00   0.01  -0.00    -0.00  -0.00  -0.01
   3   6    -0.00  -0.00  -0.00    -0.00   0.00   0.00    -0.00   0.00   0.00
   4   6    -0.00   0.00   0.00     0.00  -0.00   0.00     0.00  -0.00  -0.00
   5   6    -0.00   0.00  -0.00    -0.00   0.00  -0.00     0.00   0.00  -0.00
   6   6    -0.00  -0.00  -0.00     0.00   0.00  -0.00     0.00   0.00   0.00
   7   6     0.00  -0.00  -0.00    -0.00   0.00   0.00    -0.00   0.00   0.00
   8   6    -0.00   0.00   0.00     0.00   0.00  -0.00    -0.00   0.00   0.00
   9   6    -0.00  -0.00  -0.00     0.00   0.00   0.00    -0.00  -0.00  -0.00
  10   6    -0.00   0.00   0.00     0.00   0.00   0.00     0.00  -0.00  -0.00
  11   1    -0.85   0.18   0.15     0.09   0.01  -0.02     0.37  -0.08  -0.08
  12   1     0.01   0.20   0.07     0.06  -0.60  -0.27    -0.05   0.63   0.25
  13   1    -0.09  -0.22   0.20    -0.26  -0.45   0.46    -0.22  -0.41   0.39
  14   1    -0.00  -0.00   0.00    -0.00  -0.01   0.01    -0.00  -0.01   0.01
  15   1    -0.00   0.01   0.00     0.00  -0.01  -0.00    -0.00   0.01   0.01
  16   1    -0.00   0.01   0.00     0.00  -0.00  -0.00     0.00  -0.00  -0.00
  17   1     0.00  -0.00  -0.00    -0.00  -0.00   0.00    -0.00   0.00   0.00
  18   1     0.00   0.00   0.00    -0.00  -0.00  -0.00    -0.00  -0.00  -0.00
  19   1    -0.00   0.00   0.00     0.00  -0.00   0.00     0.00  -0.00  -0.00
  20   1     0.00  -0.00   0.00    -0.00  -0.00  -0.00     0.00  -0.00  -0.00
  21   1     0.00   0.00   0.00    -0.00  -0.00  -0.00     0.00   0.00   0.00
  22   1     0.00  -0.00   0.00     0.00  -0.00  -0.00    -0.00   0.00   0.00
