 Entering Gaussian System
 *********************************************
 Gaussian 98:
 frequency output generated by the xtb code
 *********************************************
                         Standard orientation:
 --------------------------------------------------------------------
  Center     Atomic     Atomic              Coordinates (Angstroms)
  Number     Number      Type              X           Y           Z
 --------------------------------------------------------------------
    1          7             0       -3.508608   -1.114763   -0.604106
    2          6             0       -2.942131    0.268915   -0.529810
    3          6             0       -2.008175    0.480542    0.674886
    4          6             0       -0.540087    0.310924    0.390331
    5          6             0        0.394329    1.047850    1.117117
    6          6             0        1.747118    0.895293    0.898742
    7          6             0        2.207240   -0.009032   -0.053388
    8          9             0        3.505109   -0.159289   -0.264432
    9          6             0        1.283553   -0.756658   -0.776843
   10          6             0       -0.067525   -0.598871   -0.552349
   11          1             0       -4.119986   -1.297438    0.198697
   12          1             0       -2.772132   -1.828157   -0.596407
   13          1             0       -4.063852   -1.243681   -1.456784
   14          1             0       -3.782727    0.974539   -0.489659
   15          1             0       -2.410693    0.508420   -1.458653
   16          1             0       -2.290926   -0.204835    1.480338
   17          1             0       -2.160649    1.486973    1.082785
   18          1             0        0.051546    1.745693    1.863237
   19          1             0        2.469893    1.466030    1.457799
   20          1             0        1.649047   -1.457851   -1.508513
   21          1             0       -0.765840   -1.186678   -1.120095
 --------------------------------------------------------------------
     1 basis functions        1 primitive gaussians
     1 alpha electrons        1 beta electrons

 Harmonic frequencies (cm**-1), IR intensities (km*mol⁻¹),
 Raman scattering activities (A**4/amu), Raman depolarization ratios,
 reduced masses (AMU), force constants (mDyne/A) and normal coordinates:
                      1                      2                      3
                        a                      a                      a 
 Frequencies --  -121.5626                28.1814                81.2681
 Red. masses --     1.3366                 9.8815                10.2810
 Frc consts  --     0.0000                 0.0000                 0.0000
 IR Inten    --     0.5108                 9.2175                26.3876
 Raman Activ --     0.0000                 0.0000                 0.0000
 Depolar     --     0.0000                 0.0000                 0.0000
 Atom AN      X      Y      Z        X      Y      Z        X      Y      Z
   1   7    -0.05   0.02   0.03     0.28  -0.26   0.27    -0.57   0.08   0.31
   2   6     0.08  -0.02  -0.03    -0.09  -0.08  -0.02     0.00  -0.12  -0.12
   3   6    -0.01  -0.03   0.04    -0.02   0.30  -0.15     0.05  -0.10  -0.15
   4   6     0.00  -0.01   0.04    -0.03   0.14  -0.11     0.07  -0.03  -0.14
   5   6     0.01  -0.03   0.04    -0.00  -0.09   0.09     0.00  -0.08  -0.01
   6   6     0.01  -0.02   0.01    -0.00  -0.19   0.16     0.02  -0.05   0.09
   7   6    -0.01   0.01  -0.02    -0.03  -0.05   0.02     0.10   0.04   0.03
   8   9    -0.01   0.03  -0.06    -0.03  -0.19   0.12     0.15   0.09   0.18
   9   6    -0.02   0.03  -0.03    -0.05   0.19  -0.19     0.16   0.11  -0.11
  10   6    -0.01   0.01   0.01    -0.06   0.28  -0.26     0.14   0.06  -0.19
  11   1    -0.46   0.22  -0.28     0.09  -0.07   0.08    -0.11   0.14   0.14
  12   1    -0.05  -0.03   0.58     0.13  -0.01   0.12    -0.25  -0.07   0.06
  13   1     0.44  -0.17  -0.26     0.09  -0.17   0.08    -0.24   0.04   0.14
  14   1     0.05   0.02  -0.07    -0.07  -0.08  -0.01     0.07   0.05  -0.09
  15   1     0.07  -0.05   0.01    -0.07  -0.02  -0.03     0.02  -0.17  -0.05
  16   1    -0.01  -0.02   0.00    -0.01   0.18   0.03     0.03  -0.04  -0.05
  17   1    -0.01  -0.01   0.02     0.01   0.13  -0.15     0.01  -0.04  -0.03
  18   1     0.01  -0.01   0.02     0.00  -0.06   0.06    -0.02  -0.05   0.01
  19   1     0.00  -0.01   0.00     0.00  -0.10   0.09    -0.01  -0.03   0.06
  20   1    -0.01   0.02  -0.02    -0.02   0.09  -0.09     0.06   0.05  -0.04
  21   1    -0.00   0.01  -0.00    -0.02   0.14  -0.14     0.05   0.03  -0.08
                      4                      5                      6
                        a                      a                      a 
 Frequencies --   120.5358               210.3337               278.1637
 Red. masses --    12.1547                10.4844                11.1741
 Frc consts  --     0.0000                 0.0000                 0.0000
 IR Inten    --     1.1983                 0.7798                 8.1956
 Raman Activ --     0.0000                 0.0000                 0.0000
 Depolar     --     0.0000                 0.0000                 0.0000
 Atom AN      X      Y      Z        X      Y      Z        X      Y      Z
   1   7     0.03   0.05   0.07    -0.05  -0.12  -0.09    -0.29  -0.21  -0.24
   2   6     0.14   0.02  -0.27     0.35  -0.25  -0.23    -0.33  -0.13   0.10
   3   6    -0.03   0.26  -0.18    -0.03  -0.10   0.07    -0.04   0.08  -0.09
   4   6    -0.01  -0.11   0.13     0.03   0.19   0.23     0.04   0.29  -0.05
   5   6    -0.00  -0.22   0.22     0.10   0.17   0.16     0.14   0.12   0.05
   6   6    -0.01  -0.18   0.18     0.08   0.09   0.02     0.17  -0.09   0.18
   7   6    -0.02  -0.04   0.03    -0.06   0.07  -0.03     0.15  -0.08   0.14
   8   9    -0.05   0.39  -0.40    -0.15  -0.33  -0.16     0.14  -0.03  -0.32
   9   6    -0.02  -0.13   0.14    -0.16   0.20  -0.03     0.06  -0.06   0.24
  10   6    -0.02  -0.18   0.19    -0.10   0.24   0.14     0.07   0.17   0.09
  11   1     0.07   0.06   0.07     0.04   0.03   0.03    -0.14  -0.12  -0.12
  12   1    -0.01  -0.00  -0.00    -0.09  -0.11  -0.09    -0.08  -0.06  -0.06
  13   1    -0.06  -0.01   0.07    -0.10   0.03   0.02    -0.02   0.01  -0.11
  14   1     0.05   0.03  -0.16     0.15  -0.01  -0.21    -0.13  -0.08   0.13
  15   1     0.08  -0.08  -0.08     0.21  -0.18  -0.03    -0.18   0.04   0.00
  16   1    -0.10   0.19   0.01    -0.01  -0.08  -0.02     0.05   0.04   0.01
  17   1     0.03   0.13  -0.17    -0.10  -0.06   0.05    -0.06   0.03  -0.06
  18   1     0.00  -0.07   0.07     0.06   0.05   0.06     0.06   0.05   0.01
  19   1    -0.00  -0.05   0.05     0.05   0.00  -0.00     0.05  -0.04   0.07
  20   1    -0.01  -0.03   0.03    -0.07   0.06  -0.03    -0.00  -0.04   0.09
  21   1    -0.00  -0.06   0.06    -0.05   0.07   0.07     0.01   0.06   0.02
                      7                      8                      9
                        a                      a                      a 
 Frequencies --   331.4487               371.6503               376.2132
 Red. masses --     9.6489                11.5604                10.0222
 Frc consts  --     0.0000                 0.0000                 0.0000
 IR Inten    --    13.5991                 7.3872                 4.1345
 Raman Activ --     0.0000                 0.0000                 0.0000
 Depolar     --     0.0000                 0.0000                 0.0000
 Atom AN      X      Y      Z        X      Y      Z        X      Y      Z
   1   7    -0.17  -0.08  -0.16     0.06   0.07   0.11     0.04   0.04   0.06
   2   6    -0.12  -0.07   0.06    -0.10   0.12  -0.10    -0.09   0.08  -0.04
   3   6    -0.07   0.24   0.00    -0.05  -0.11  -0.11    -0.03  -0.06  -0.06
   4   6    -0.02  -0.28   0.29    -0.03  -0.14  -0.03    -0.03  -0.10  -0.03
   5   6     0.05  -0.17   0.12    -0.10  -0.23   0.17    -0.08   0.20  -0.25
   6   6     0.05   0.19  -0.22    -0.02   0.38  -0.01     0.00  -0.12   0.35
   7   6     0.10   0.19  -0.21     0.08   0.24   0.16     0.06   0.16   0.10
   8   9     0.16  -0.19   0.17    -0.06  -0.36  -0.31    -0.03  -0.23  -0.19
   9   6     0.04   0.21  -0.15     0.14   0.04   0.31     0.08   0.38  -0.15
  10   6     0.03  -0.11   0.16     0.09   0.07  -0.16     0.08  -0.32   0.24
  11   1    -0.08  -0.06  -0.07     0.04   0.04   0.05     0.02   0.01   0.02
  12   1    -0.06  -0.04  -0.06     0.06   0.07   0.07     0.05   0.05   0.04
  13   1    -0.02   0.04  -0.07     0.01  -0.07   0.05     0.01  -0.04   0.02
  14   1    -0.05  -0.04   0.03    -0.03   0.03   0.00    -0.03   0.01   0.02
  15   1    -0.05   0.00   0.01    -0.06   0.04  -0.04    -0.05   0.03  -0.02
  16   1    -0.13   0.28   0.14    -0.04  -0.07  -0.07    -0.03  -0.03  -0.03
  17   1     0.07   0.17  -0.22    -0.00  -0.06   0.03     0.01  -0.02   0.01
  18   1     0.03  -0.07   0.06    -0.07  -0.14   0.10    -0.06   0.13  -0.16
  19   1     0.00   0.09  -0.09    -0.07   0.20  -0.02    -0.04  -0.09   0.20
  20   1    -0.01   0.08  -0.07     0.11  -0.02   0.15     0.06   0.20  -0.11
  21   1     0.02  -0.05   0.05     0.07   0.06  -0.13     0.05  -0.21   0.15
                     10                     11                     12
                        a                      a                      a 
 Frequencies --   414.3779               457.7169               499.1428
 Red. masses --    10.1837                10.0659                 9.5322
 Frc consts  --     0.0000                 0.0000                 0.0000
 IR Inten    --     1.8248                 1.1255                 0.7627
 Raman Activ --     0.0000                 0.0000                 0.0000
 Depolar     --     0.0000                 0.0000                 0.0000
 Atom AN      X      Y      Z        X      Y      Z        X      Y      Z
   1   7     0.07   0.04   0.12     0.02   0.02  -0.01    -0.03  -0.01   0.03
   2   6    -0.24   0.15  -0.26     0.08  -0.03   0.03    -0.17   0.08  -0.14
   3   6    -0.32  -0.15  -0.08    -0.21   0.04   0.22     0.14  -0.15  -0.26
   4   6    -0.17   0.13   0.15    -0.22  -0.23   0.18     0.25  -0.19   0.32
   5   6     0.05  -0.04   0.07    -0.11   0.05  -0.26     0.14   0.18   0.14
   6   6     0.04  -0.14  -0.18    -0.05  -0.04  -0.05     0.09   0.11  -0.04
   7   6     0.19  -0.04  -0.22     0.19  -0.34   0.34    -0.15  -0.28   0.22
   8   9     0.37   0.03   0.09     0.26   0.05  -0.17    -0.25   0.09   0.02
   9   6    -0.03   0.01  -0.03     0.02   0.10   0.07    -0.00  -0.02  -0.19
  10   6    -0.01   0.10   0.24    -0.04   0.17  -0.14     0.08   0.02   0.04
  11   1     0.08   0.03   0.08     0.01   0.01   0.00     0.01   0.02   0.03
  12   1     0.11   0.10   0.08    -0.01  -0.01  -0.02     0.03   0.04   0.05
  13   1    -0.00  -0.15   0.07    -0.01   0.03   0.00    -0.01  -0.09   0.02
  14   1    -0.08   0.03  -0.08     0.04   0.01  -0.10    -0.07  -0.01   0.12
  15   1    -0.07   0.03  -0.08     0.12  -0.05   0.05    -0.19   0.09  -0.10
  16   1    -0.10  -0.19  -0.15    -0.12   0.08   0.10    -0.03  -0.04  -0.10
  17   1    -0.15  -0.12   0.15    -0.02   0.05  -0.01     0.05  -0.05  -0.05
  18   1     0.09  -0.01   0.06    -0.02   0.14  -0.19     0.04   0.16  -0.06
  19   1     0.02  -0.06  -0.04    -0.07   0.13  -0.08     0.09   0.11  -0.17
  20   1    -0.10  -0.03  -0.02    -0.02   0.13  -0.09     0.00   0.12  -0.17
  21   1    -0.00   0.00   0.09     0.03   0.15  -0.20    -0.04   0.17  -0.07
                     13                     14                     15
                        a                      a                      a 
 Frequencies --   608.2233               659.0315               716.8058
 Red. masses --    11.4812                10.7332                 9.7601
 Frc consts  --     0.0000                 0.0000                 0.0000
 IR Inten    --     0.5157                 0.9415                44.9378
 Raman Activ --     0.0000                 0.0000                 0.0000
 Depolar     --     0.0000                 0.0000                 0.0000
 Atom AN      X      Y      Z        X      Y      Z        X      Y      Z
   1   7    -0.01  -0.03  -0.01     0.01  -0.02   0.00     0.07   0.02   0.02
   2   6    -0.04   0.01  -0.07     0.04  -0.02   0.06     0.19  -0.05   0.02
   3   6     0.00  -0.01  -0.02     0.05   0.10  -0.02     0.33  -0.11  -0.26
   4   6    -0.00  -0.07  -0.07    -0.04   0.32  -0.32     0.03  -0.04   0.05
   5   6     0.36  -0.24  -0.24    -0.06  -0.26   0.23    -0.22   0.08   0.07
   6   6     0.45   0.13   0.10    -0.08   0.20  -0.22    -0.24  -0.08  -0.01
   7   6     0.00   0.05   0.09     0.04  -0.33   0.32     0.10   0.04  -0.07
   8   9    -0.00   0.12   0.13     0.06   0.01  -0.04     0.37  -0.04  -0.05
   9   6    -0.32   0.21   0.20    -0.02   0.23  -0.20    -0.26   0.10   0.17
  10   6    -0.42  -0.17  -0.12    -0.01  -0.25   0.24    -0.28   0.02   0.04
  11   1     0.01   0.00   0.01    -0.01  -0.02  -0.01    -0.02   0.13   0.01
  12   1     0.01   0.00   0.01    -0.02  -0.02  -0.02    -0.12  -0.13   0.03
  13   1    -0.01  -0.04   0.01     0.01   0.05  -0.01    -0.01   0.08   0.01
  14   1    -0.01  -0.00  -0.01     0.01  -0.00  -0.01     0.00  -0.09   0.29
  15   1    -0.03   0.01  -0.03     0.02  -0.03   0.02    -0.17   0.16  -0.07
  16   1     0.01  -0.05  -0.04     0.13  -0.06  -0.04     0.07  -0.00  -0.05
  17   1    -0.02  -0.03   0.04    -0.05  -0.02   0.08     0.09  -0.02  -0.10
  18   1     0.07  -0.07  -0.08    -0.02  -0.07   0.06    -0.08   0.04  -0.01
  19   1     0.11   0.05   0.03    -0.04   0.14  -0.12    -0.11   0.02   0.01
  20   1    -0.06   0.08   0.05    -0.02   0.13  -0.12    -0.15   0.03   0.01
  21   1    -0.09  -0.05  -0.06    -0.00  -0.06   0.05    -0.11   0.07  -0.01
                     16                     17                     18
                        a                      a                      a 
 Frequencies --   787.9797               810.9465               852.3699
 Red. masses --     4.8575                 4.6797                 4.6682
 Frc consts  --     0.0000                 0.0000                 0.0000
 IR Inten    --    35.1636                25.8029                 5.3910
 Raman Activ --     0.0000                 0.0000                 0.0000
 Depolar     --     0.0000                 0.0000                 0.0000
 Atom AN      X      Y      Z        X      Y      Z        X      Y      Z
   1   7    -0.02  -0.06   0.00     0.17  -0.04  -0.05    -0.01   0.20  -0.06
   2   6     0.01   0.02   0.02     0.14  -0.02  -0.06    -0.04  -0.15   0.02
   3   6     0.00   0.17   0.02    -0.18   0.02   0.07    -0.02  -0.31   0.02
   4   6    -0.01   0.08  -0.07    -0.14   0.06  -0.02    -0.02   0.10  -0.10
   5   6    -0.00  -0.11   0.06     0.08  -0.13  -0.16     0.02   0.12  -0.12
   6   6    -0.00  -0.14   0.12     0.08  -0.03  -0.07     0.02   0.09  -0.12
   7   6    -0.01   0.25  -0.23    -0.01  -0.00   0.02     0.00  -0.03   0.00
   8   9    -0.02  -0.05   0.05    -0.22   0.02   0.03    -0.03   0.01   0.00
   9   6     0.04  -0.16   0.14     0.14   0.01   0.00    -0.02  -0.00   0.07
  10   6     0.03  -0.22   0.19     0.17   0.05   0.11     0.01  -0.15   0.24
  11   1    -0.02  -0.04  -0.02     0.03   0.43   0.07     0.07   0.05   0.04
  12   1    -0.02  -0.03  -0.03    -0.30  -0.36   0.07     0.11   0.17   0.05
  13   1     0.00   0.03  -0.01    -0.11   0.07   0.08    -0.02  -0.12   0.02
  14   1     0.00   0.01  -0.06    -0.13  -0.22   0.22     0.05   0.03   0.01
  15   1     0.03  -0.04   0.01    -0.12   0.32  -0.02     0.04  -0.01   0.05
  16   1     0.09  -0.09  -0.08    -0.08   0.00   0.00    -0.02   0.16   0.20
  17   1    -0.06  -0.02   0.15    -0.08   0.01   0.00     0.05   0.04  -0.28
  18   1    -0.01   0.21  -0.21     0.07  -0.06   0.00     0.03  -0.24   0.23
  19   1    -0.02   0.18  -0.18     0.01  -0.04   0.02     0.02  -0.24   0.22
  20   1     0.01   0.25  -0.24     0.05   0.01  -0.00    -0.03   0.09  -0.08
  21   1     0.00   0.39  -0.40     0.07   0.04  -0.02     0.00   0.34  -0.32
                     19                     20                     21
                        a                      a                      a 
 Frequencies --   855.8339               871.0378               893.5318
 Red. masses --     9.4625                 6.2549                 3.0319
 Frc consts  --     0.0000                 0.0000                 0.0000
 IR Inten    --    18.0590                 7.6668                 2.9659
 Raman Activ --     0.0000                 0.0000                 0.0000
 Depolar     --     0.0000                 0.0000                 0.0000
 Atom AN      X      Y      Z        X      Y      Z        X      Y      Z
   1   7    -0.04  -0.21  -0.10     0.05   0.18  -0.12    -0.01  -0.01  -0.01
   2   6    -0.02   0.16  -0.11    -0.07  -0.14  -0.01     0.01   0.01  -0.00
   3   6    -0.05   0.22   0.23    -0.15  -0.27   0.13     0.01   0.00   0.01
   4   6     0.13  -0.06   0.03     0.03   0.16  -0.17     0.00  -0.02   0.02
   5   6    -0.06   0.31   0.14     0.01   0.00   0.28     0.00  -0.09   0.09
   6   6     0.00   0.24   0.10     0.08  -0.00   0.23    -0.00  -0.00  -0.01
   7   6    -0.04  -0.02   0.04    -0.03   0.05  -0.05     0.00  -0.01   0.01
   8   9     0.27  -0.03  -0.06     0.14  -0.03  -0.01    -0.00   0.01  -0.01
   9   6    -0.02  -0.19  -0.18    -0.02  -0.11  -0.11    -0.01   0.27  -0.25
  10   6    -0.15  -0.30  -0.19    -0.08  -0.06  -0.15     0.01  -0.13   0.12
  11   1     0.04   0.14   0.05     0.11   0.23   0.08     0.00   0.00   0.00
  12   1    -0.09  -0.13   0.04     0.02   0.06   0.10     0.00   0.00   0.00
  13   1    -0.10  -0.15   0.04    -0.08  -0.16   0.06    -0.01  -0.01   0.00
  14   1    -0.07  -0.03  -0.07    -0.03  -0.04   0.01     0.00   0.00  -0.01
  15   1     0.02   0.10   0.00     0.06   0.09   0.08     0.00   0.00  -0.00
  16   1    -0.01  -0.06  -0.03    -0.02   0.17   0.24     0.00  -0.00  -0.00
  17   1    -0.04   0.00   0.19    -0.02   0.05  -0.25     0.00  -0.00   0.01
  18   1    -0.09  -0.11   0.20    -0.04   0.25  -0.17    -0.00   0.24  -0.23
  19   1     0.05  -0.13   0.17     0.05   0.26  -0.23     0.00  -0.08   0.07
  20   1     0.08  -0.02  -0.05     0.03  -0.02  -0.02     0.02  -0.53   0.52
  21   1    -0.10   0.06  -0.13    -0.05  -0.13   0.10    -0.01   0.26  -0.26
                     22                     23                     24
                        a                      a                      a 
 Frequencies --   897.0775               920.6753              1004.5977
 Red. masses --     7.2845                 3.7817                 9.1037
 Frc consts  --     0.0000                 0.0000                 0.0000
 IR Inten    --    43.6692                 0.2754                10.7560
 Raman Activ --     0.0000                 0.0000                 0.0000
 Depolar     --     0.0000                 0.0000                 0.0000
 Atom AN      X      Y      Z        X      Y      Z        X      Y      Z
   1   7    -0.24  -0.24  -0.24     0.00  -0.01   0.01    -0.14  -0.27   0.09
   2   6     0.04   0.20  -0.12     0.00   0.01  -0.00     0.30   0.37   0.02
   3   6     0.30   0.06   0.24    -0.00   0.01  -0.01    -0.06  -0.20  -0.06
   4   6     0.03   0.01  -0.02    -0.00  -0.00   0.00    -0.15   0.10  -0.08
   5   6    -0.02  -0.13  -0.10    -0.01   0.22  -0.21    -0.02  -0.14  -0.11
   6   6    -0.13  -0.15  -0.11     0.01  -0.25   0.24     0.13   0.21   0.22
   7   6     0.04   0.00  -0.00     0.00  -0.00   0.00    -0.07   0.01   0.00
   8   9    -0.11   0.01   0.02    -0.00  -0.00   0.00     0.09  -0.01  -0.01
   9   6    -0.00   0.14   0.14    -0.01   0.12  -0.12    -0.02  -0.23  -0.22
  10   6     0.05   0.12   0.08     0.01  -0.07   0.08     0.05   0.13   0.16
  11   1     0.12   0.11   0.11    -0.01  -0.02  -0.01    -0.06  -0.21  -0.03
  12   1     0.10   0.11   0.13    -0.01  -0.01  -0.01     0.01  -0.02  -0.04
  13   1    -0.16  -0.52   0.07     0.01   0.02  -0.00     0.02  -0.02  -0.02
  14   1     0.04   0.08   0.02    -0.00   0.00  -0.00     0.09   0.10   0.13
  15   1     0.03   0.10  -0.01    -0.00  -0.01  -0.01    -0.01   0.09  -0.04
  16   1     0.12   0.03   0.09    -0.01  -0.01  -0.01    -0.23   0.09   0.02
  17   1     0.13   0.03   0.06     0.01  -0.00   0.01     0.09   0.01  -0.12
  18   1     0.03  -0.00  -0.05     0.01  -0.39   0.37    -0.11  -0.04  -0.08
  19   1    -0.08   0.04  -0.06    -0.02   0.45  -0.43    -0.04   0.12   0.10
  20   1    -0.04   0.03   0.03     0.01  -0.16   0.16    -0.12  -0.08  -0.10
  21   1     0.04  -0.03   0.06    -0.00   0.07  -0.07    -0.09   0.11   0.09
                     25                     26                     27
                        a                      a                      a 
 Frequencies --  1012.1817              1033.5916              1077.6772
 Red. masses --     8.1640                 5.4866                 8.1317
 Frc consts  --     0.0000                 0.0000                 0.0000
 IR Inten    --    16.6955                 8.6430                16.2332
 Raman Activ --     0.0000                 0.0000                 0.0000
 Depolar     --     0.0000                 0.0000                 0.0000
 Atom AN      X      Y      Z        X      Y      Z        X      Y      Z
   1   7    -0.04   0.28  -0.08     0.19  -0.03  -0.06    -0.08  -0.05  -0.16
   2   6     0.03  -0.43  -0.05    -0.39   0.09   0.10     0.20   0.05   0.50
   3   6     0.08   0.27   0.06     0.16  -0.07  -0.10    -0.21   0.09  -0.49
   4   6    -0.08  -0.05   0.12     0.08  -0.10   0.01    -0.06  -0.08   0.09
   5   6    -0.04  -0.16  -0.19    -0.01  -0.11  -0.13    -0.01   0.05   0.02
   6   6     0.06   0.18   0.17     0.01   0.11   0.10     0.06   0.01  -0.00
   7   6    -0.05   0.02   0.03    -0.03  -0.01  -0.01    -0.00  -0.01  -0.01
   8   9     0.08  -0.01  -0.02     0.04  -0.00  -0.01    -0.01   0.00   0.00
   9   6     0.00  -0.20  -0.22    -0.08  -0.07  -0.07     0.01   0.01  -0.00
  10   6     0.05   0.12   0.10     0.06   0.18   0.17    -0.00  -0.01  -0.03
  11   1     0.06   0.06   0.03     0.02   0.20   0.01     0.09   0.11   0.08
  12   1     0.13   0.21   0.05    -0.15  -0.21   0.01     0.04   0.05   0.09
  13   1    -0.01  -0.13   0.00    -0.04   0.09   0.03    -0.09  -0.24   0.04
  14   1     0.05  -0.08   0.18    -0.13   0.02  -0.39     0.09   0.06   0.04
  15   1    -0.17  -0.03  -0.09     0.24  -0.10   0.19     0.24   0.04   0.25
  16   1     0.17  -0.10  -0.07     0.23  -0.01   0.05     0.12  -0.07  -0.14
  17   1    -0.16  -0.01   0.14     0.15  -0.01  -0.01    -0.23  -0.05  -0.03
  18   1    -0.13  -0.09  -0.06    -0.12  -0.07  -0.05    -0.01  -0.01   0.03
  19   1    -0.11   0.11   0.14    -0.09   0.08   0.10     0.08  -0.04  -0.03
  20   1    -0.08  -0.10  -0.06    -0.21  -0.07  -0.05     0.01  -0.00   0.01
  21   1    -0.07   0.07   0.08    -0.09   0.12   0.11     0.05  -0.05  -0.03
                     28                     29                     30
                        a                      a                      a 
 Frequencies --  1125.7409              1174.4481              1183.6686
 Red. masses --     3.0125                 2.4829                 3.5304
 Frc consts  --     0.0000                 0.0000                 0.0000
 IR Inten    --     3.2370                10.7135                13.6386
 Raman Activ --     0.0000                 0.0000                 0.0000
 Depolar     --     0.0000                 0.0000                 0.0000
 Atom AN      X      Y      Z        X      Y      Z        X      Y      Z
   1   7     0.01  -0.01   0.00    -0.00  -0.01   0.04    -0.09  -0.05   0.16
   2   6    -0.01   0.04   0.05    -0.01   0.05  -0.08     0.09   0.13  -0.20
   3   6    -0.03  -0.05  -0.07     0.03  -0.02   0.02    -0.12  -0.03   0.06
   4   6     0.08   0.13   0.14    -0.06  -0.01   0.05     0.22  -0.04   0.08
   5   6     0.10  -0.09  -0.10    -0.11  -0.10  -0.10     0.03   0.01  -0.00
   6   6    -0.11  -0.10  -0.10     0.03  -0.03  -0.04    -0.01  -0.04  -0.05
   7   6     0.03   0.09   0.09    -0.16   0.03   0.03     0.12  -0.01  -0.02
   8   9    -0.00   0.00   0.00     0.13  -0.01  -0.02    -0.09   0.01   0.01
   9   6     0.04  -0.10  -0.10     0.03   0.02   0.01    -0.02   0.04   0.03
  10   6    -0.14  -0.06  -0.06    -0.04   0.10   0.10     0.04  -0.06  -0.07
  11   1     0.00  -0.01   0.00    -0.02  -0.04  -0.01    -0.07  -0.16  -0.03
  12   1    -0.00  -0.01   0.00    -0.00  -0.01  -0.02     0.03   0.05  -0.06
  13   1     0.00  -0.01   0.00     0.02   0.02  -0.01     0.07   0.09  -0.03
  14   1     0.00   0.02  -0.04    -0.00   0.01  -0.02    -0.09  -0.10  -0.02
  15   1     0.04   0.01   0.04     0.01   0.06  -0.00     0.08   0.30   0.05
  16   1     0.03   0.01   0.02     0.22   0.00   0.08     0.45   0.01   0.19
  17   1    -0.06  -0.01  -0.06    -0.10   0.01  -0.07    -0.46   0.02  -0.21
  18   1     0.38   0.06   0.05    -0.33  -0.10  -0.09    -0.16  -0.05  -0.03
  19   1    -0.42   0.20   0.23     0.39  -0.24  -0.26    -0.16   0.07   0.09
  20   1     0.46   0.09   0.07     0.50   0.14   0.12    -0.21  -0.05  -0.04
  21   1    -0.33   0.15   0.16    -0.24   0.16   0.17     0.05  -0.04  -0.03
                     31                     32                     33
                        a                      a                      a 
 Frequencies --  1213.8192              1236.6601              1262.3405
 Red. masses --     5.0146                 2.6024                 3.6760
 Frc consts  --     0.0000                 0.0000                 0.0000
 IR Inten    --    29.1746                12.0039                 5.9481
 Raman Activ --     0.0000                 0.0000                 0.0000
 Depolar     --     0.0000                 0.0000                 0.0000
 Atom AN      X      Y      Z        X      Y      Z        X      Y      Z
   1   7     0.01  -0.06   0.04     0.19  -0.08  -0.12    -0.03  -0.01   0.01
   2   6    -0.03   0.06  -0.13    -0.10   0.17   0.09    -0.03  -0.01  -0.00
   3   6     0.12  -0.04  -0.05    -0.04  -0.04   0.06     0.13  -0.03  -0.02
   4   6    -0.45  -0.05   0.08     0.04   0.05   0.08    -0.03   0.12   0.10
   5   6    -0.02   0.02   0.01     0.00   0.01   0.01     0.14   0.04   0.03
   6   6     0.02   0.12   0.12     0.04  -0.03  -0.03     0.05   0.00  -0.00
   7   6    -0.18   0.01   0.02     0.05  -0.02  -0.02    -0.16  -0.22  -0.22
   8   9     0.11  -0.01  -0.02    -0.04   0.01   0.01     0.06   0.01   0.01
   9   6     0.02  -0.09  -0.10    -0.01  -0.01  -0.01    -0.09  -0.02  -0.01
  10   6    -0.05   0.03   0.03    -0.01  -0.03  -0.03    -0.09   0.12   0.12
  11   1    -0.03  -0.01  -0.01     0.03   0.14  -0.01    -0.01   0.01   0.00
  12   1    -0.01  -0.02  -0.03    -0.10  -0.17   0.04     0.02   0.03  -0.00
  13   1     0.02   0.06  -0.01    -0.06   0.00   0.04     0.00   0.02  -0.00
  14   1     0.04   0.07   0.04     0.29   0.40   0.15    -0.08  -0.08  -0.04
  15   1     0.01   0.04  -0.02    -0.30  -0.46  -0.26     0.08   0.06   0.07
  16   1     0.47  -0.00   0.15     0.13   0.03   0.10    -0.13   0.00  -0.05
  17   1     0.08   0.01  -0.03    -0.28   0.01  -0.12     0.01  -0.01  -0.01
  18   1     0.46   0.12   0.12    -0.16  -0.04  -0.03    -0.35  -0.09  -0.08
  19   1     0.09  -0.02  -0.02    -0.07   0.04   0.05    -0.25   0.16   0.17
  20   1     0.08  -0.01  -0.01     0.02   0.00   0.00     0.39   0.11   0.09
  21   1     0.26  -0.17  -0.16     0.07  -0.05  -0.05     0.42  -0.23  -0.24
                     34                     35                     36
                        a                      a                      a 
 Frequencies --  1285.6152              1309.1555              1321.8245
 Red. masses --     9.5337                11.5345                 4.3846
 Frc consts  --     0.0000                 0.0000                 0.0000
 IR Inten    --    63.7428                47.3105                24.2606
 Raman Activ --     0.0000                 0.0000                 0.0000
 Depolar     --     0.0000                 0.0000                 0.0000
 Atom AN      X      Y      Z        X      Y      Z        X      Y      Z
   1   7    -0.00  -0.03   0.01    -0.00   0.01   0.01     0.02  -0.19   0.06
   2   6     0.01  -0.05  -0.06    -0.07   0.01   0.00    -0.21  -0.19  -0.20
   3   6    -0.10   0.03  -0.05     0.34  -0.05  -0.03    -0.15   0.07  -0.04
   4   6    -0.25  -0.17  -0.14    -0.28   0.27   0.29     0.13   0.10   0.08
   5   6     0.07   0.19   0.19    -0.32  -0.01   0.01    -0.05  -0.03  -0.03
   6   6     0.10   0.06   0.06     0.31  -0.10  -0.12     0.05  -0.07  -0.08
   7   6     0.39  -0.24  -0.26     0.41   0.17   0.15    -0.04   0.09   0.09
   8   9    -0.26   0.03   0.05    -0.20   0.02   0.03     0.04  -0.00  -0.00
   9   6     0.29   0.05   0.03    -0.05  -0.14  -0.14    -0.14  -0.02  -0.01
  10   6    -0.25   0.03   0.04    -0.02  -0.14  -0.15     0.11  -0.04  -0.05
  11   1     0.00   0.01   0.01    -0.01   0.00  -0.00    -0.03   0.15   0.03
  12   1     0.02   0.01  -0.01    -0.00   0.00  -0.00     0.09   0.06  -0.03
  13   1     0.02   0.03  -0.01    -0.00   0.00   0.00     0.03   0.21  -0.03
  14   1     0.08   0.07   0.09    -0.07  -0.06  -0.08     0.35   0.39   0.32
  15   1     0.01   0.04   0.00     0.07   0.03   0.05     0.26   0.25   0.21
  16   1     0.21  -0.01   0.05    -0.10   0.01  -0.04    -0.00   0.02   0.00
  17   1     0.27   0.01   0.10    -0.05  -0.01  -0.05     0.21   0.00   0.12
  18   1    -0.19   0.00   0.01    -0.13  -0.01  -0.00    -0.07  -0.02  -0.02
  19   1    -0.07   0.08   0.09     0.07  -0.01  -0.01    -0.03   0.01   0.00
  20   1     0.08   0.00   0.00     0.00  -0.04  -0.04    -0.01   0.00   0.01
  21   1    -0.20   0.08   0.09     0.01  -0.05  -0.06     0.03  -0.01  -0.01
                     37                     38                     39
                        a                      a                      a 
 Frequencies --  1347.3016              1372.2045              1418.5499
 Red. masses --     6.0673                 2.9457                 8.8346
 Frc consts  --     0.0000                 0.0000                 0.0000
 IR Inten    --     6.4519               211.5023                16.8183
 Raman Activ --     0.0000                 0.0000                 0.0000
 Depolar     --     0.0000                 0.0000                 0.0000
 Atom AN      X      Y      Z        X      Y      Z        X      Y      Z
   1   7     0.03  -0.08   0.04    -0.14  -0.32  -0.07     0.02   0.03  -0.07
   2   6    -0.18  -0.05  -0.06     0.09   0.06   0.09     0.01   0.01  -0.02
   3   6     0.39   0.02   0.08    -0.00  -0.03   0.00    -0.09  -0.05  -0.08
   4   6    -0.12  -0.09  -0.11     0.01  -0.00  -0.00     0.07   0.20   0.20
   5   6     0.15  -0.01  -0.01    -0.00  -0.01  -0.01     0.33  -0.09  -0.11
   6   6    -0.20   0.11   0.13    -0.02   0.01   0.01    -0.35  -0.02  -0.00
   7   6     0.02  -0.08  -0.08     0.02   0.01   0.01     0.07   0.20   0.20
   8   9    -0.02  -0.01  -0.01    -0.01  -0.00  -0.00    -0.01  -0.03  -0.03
   9   6     0.27   0.02   0.01     0.01  -0.01  -0.01     0.32  -0.10  -0.12
  10   6    -0.19   0.04   0.05    -0.02   0.01   0.01    -0.37  -0.00   0.02
  11   1    -0.04   0.08  -0.01     0.09   0.44   0.17     0.04  -0.16  -0.01
  12   1     0.04   0.02  -0.03     0.35   0.35   0.12    -0.02  -0.02   0.24
  13   1    -0.01   0.08   0.01     0.03   0.50  -0.11    -0.12   0.09   0.06
  14   1     0.12   0.17   0.05    -0.11  -0.12  -0.15    -0.03  -0.04   0.04
  15   1     0.16   0.13   0.15    -0.16  -0.08  -0.11     0.03  -0.03   0.00
  16   1    -0.31  -0.00  -0.12     0.02   0.01   0.02     0.06   0.04   0.05
  17   1    -0.50  -0.02  -0.13    -0.02  -0.00  -0.01     0.17  -0.02   0.08
  18   1     0.11   0.02   0.01     0.01  -0.00   0.00    -0.15  -0.09  -0.09
  19   1     0.08  -0.05  -0.06     0.02  -0.01  -0.01     0.07  -0.11  -0.12
  20   1    -0.05  -0.03  -0.03     0.00  -0.00  -0.00    -0.11  -0.09  -0.08
  21   1    -0.06   0.02   0.02    -0.01   0.00   0.00     0.09  -0.11  -0.12
                     40                     41                     42
                        a                      a                      a 
 Frequencies --  1422.1401              1425.9249              1459.3031
 Red. masses --     2.3154                 1.9295                 1.8472
 Frc consts  --     0.0000                 0.0000                 0.0000
 IR Inten    --    76.1318                63.0145                16.6315
 Raman Activ --     0.0000                 0.0000                 0.0000
 Depolar     --     0.0000                 0.0000                 0.0000
 Atom AN      X      Y      Z        X      Y      Z        X      Y      Z
   1   7     0.16  -0.02  -0.13    -0.14   0.06  -0.13     0.02   0.01   0.03
   2   6     0.01  -0.01  -0.04    -0.04  -0.01  -0.05     0.02  -0.01  -0.01
   3   6     0.02   0.02   0.01     0.06   0.00  -0.02     0.08  -0.07  -0.24
   4   6    -0.02  -0.06  -0.06    -0.03  -0.03  -0.04    -0.02   0.00  -0.00
   5   6    -0.11   0.02   0.03    -0.06   0.01   0.02     0.01   0.01   0.00
   6   6     0.11   0.01   0.00     0.06   0.01   0.01     0.00   0.00  -0.00
   7   6    -0.02  -0.07  -0.07    -0.02  -0.05  -0.05    -0.03  -0.02  -0.01
   8   9     0.00   0.01   0.01     0.00   0.00   0.00     0.01  -0.00  -0.00
   9   6    -0.09   0.03   0.04    -0.05   0.02   0.03     0.01   0.02   0.02
  10   6     0.11   0.00  -0.01     0.07  -0.00  -0.01     0.03  -0.02  -0.02
  11   1    -0.20  -0.25  -0.23     0.52  -0.32   0.33    -0.09   0.06  -0.05
  12   1     0.10   0.09   0.49    -0.19  -0.16   0.45     0.02   0.02  -0.11
  13   1    -0.55   0.24   0.32     0.23   0.20  -0.20    -0.01  -0.05   0.02
  14   1    -0.00  -0.01   0.01     0.03   0.05   0.02    -0.02  -0.02  -0.03
  15   1     0.02   0.05   0.01     0.03   0.03   0.02    -0.04   0.01  -0.03
  16   1    -0.00   0.01   0.01    -0.04   0.09   0.06    -0.08   0.52   0.41
  17   1    -0.05  -0.01   0.02    -0.10  -0.05   0.09    -0.19  -0.27   0.58
  18   1     0.05   0.03   0.03     0.03   0.02   0.02    -0.01  -0.01   0.00
  19   1    -0.02   0.03   0.04    -0.01   0.02   0.02    -0.01   0.01   0.01
  20   1     0.04   0.03   0.03     0.02   0.02   0.02    -0.01   0.00   0.00
  21   1    -0.03   0.03   0.04    -0.01   0.02   0.02    -0.02   0.01   0.01
                     43                     44                     45
                        a                      a                      a 
 Frequencies --  1479.3935              1496.4810              1561.1769
 Red. masses --     1.9051                 9.9507                11.5942
 Frc consts  --     0.0000                 0.0000                 0.0000
 IR Inten    --    26.7473               111.3461                 2.5453
 Raman Activ --     0.0000                 0.0000                 0.0000
 Depolar     --     0.0000                 0.0000                 0.0000
 Atom AN      X      Y      Z        X      Y      Z        X      Y      Z
   1   7    -0.01   0.00  -0.01    -0.00  -0.01  -0.00     0.00  -0.00   0.00
   2   6    -0.06   0.19  -0.18    -0.00   0.02  -0.00    -0.01   0.00   0.01
   3   6     0.00   0.01   0.01     0.11  -0.01  -0.01    -0.02  -0.03  -0.03
   4   6     0.03  -0.02  -0.02    -0.41   0.03   0.05     0.07   0.36   0.37
   5   6    -0.04  -0.01  -0.01     0.29   0.14   0.14    -0.20  -0.18  -0.17
   6   6     0.01   0.02   0.02     0.12  -0.19  -0.21    -0.06   0.20   0.21
   7   6     0.03  -0.02  -0.02    -0.44   0.09   0.11    -0.13  -0.34  -0.35
   8   9    -0.01   0.00   0.00     0.15  -0.02  -0.03     0.01   0.01   0.01
   9   6    -0.03   0.00   0.00     0.21   0.12   0.11     0.23   0.19   0.19
  10   6     0.02   0.01   0.01     0.16  -0.17  -0.18     0.07  -0.23  -0.23
  11   1     0.00   0.06   0.01     0.01   0.01   0.01    -0.00   0.01  -0.00
  12   1     0.03   0.04  -0.01     0.02   0.01   0.01     0.00   0.00  -0.01
  13   1     0.01   0.02  -0.01    -0.00   0.01  -0.00     0.00  -0.00  -0.00
  14   1    -0.23  -0.30   0.56    -0.03  -0.03   0.02    -0.01  -0.00  -0.01
  15   1     0.42  -0.51   0.10     0.03  -0.04   0.01    -0.00  -0.00   0.00
  16   1     0.00   0.02   0.02     0.03  -0.04  -0.03     0.02  -0.01  -0.01
  17   1    -0.04  -0.01   0.01     0.02   0.01  -0.04     0.10   0.01  -0.02
  18   1     0.03   0.01   0.01    -0.23  -0.04  -0.03     0.07  -0.01  -0.02
  19   1     0.01  -0.00  -0.00    -0.18   0.07   0.08     0.06   0.01   0.00
  20   1     0.02   0.01   0.01    -0.20  -0.03  -0.02    -0.09   0.01   0.01
  21   1    -0.02   0.03   0.01    -0.19   0.08   0.09    -0.10   0.01   0.02
                     46                     47                     48
                        a                      a                      a 
 Frequencies --  1615.4264              2939.1411              2947.3508
 Red. masses --    11.5901                 1.9434                 1.9247
 Frc consts  --     0.0000                 0.0000                 0.0000
 IR Inten    --    44.1965                 7.1989                 2.6204
 Raman Activ --     0.0000                 0.0000                 0.0000
 Depolar     --     0.0000                 0.0000                 0.0000
 Atom AN      X      Y      Z        X      Y      Z        X      Y      Z
   1   7     0.00   0.00   0.00    -0.00   0.00  -0.00     0.00   0.00   0.00
   2   6    -0.00  -0.00  -0.00    -0.06   0.04   0.01    -0.22   0.11   0.12
   3   6    -0.03   0.00   0.01    -0.02  -0.27   0.08     0.02   0.06  -0.06
   4   6     0.25  -0.05  -0.06    -0.00  -0.01   0.00     0.00   0.00  -0.00
   5   6    -0.43  -0.03  -0.01    -0.00   0.00   0.00    -0.00   0.00  -0.00
   6   6     0.40  -0.14  -0.17     0.00   0.00  -0.00    -0.00  -0.00  -0.00
   7   6    -0.29   0.04   0.06     0.00   0.00   0.00    -0.00  -0.00  -0.00
   8   9     0.05  -0.01  -0.01    -0.00  -0.00   0.00     0.00   0.00  -0.00
   9   6     0.45   0.03   0.01    -0.00  -0.00  -0.00     0.00   0.00   0.00
  10   6    -0.40   0.14   0.16     0.00   0.00   0.00    -0.00  -0.00  -0.00
  11   1    -0.00   0.00  -0.00     0.00   0.00   0.00    -0.01  -0.00   0.01
  12   1    -0.00   0.00  -0.00    -0.00   0.00   0.00    -0.01   0.01  -0.00
  13   1     0.00  -0.00  -0.00     0.00   0.00   0.00     0.00   0.00  -0.00
  14   1     0.00   0.00   0.01     0.21  -0.18  -0.01     0.58  -0.50  -0.03
  15   1     0.00  -0.00   0.00     0.01   0.01  -0.02     0.22   0.11  -0.40
  16   1    -0.02   0.01   0.00     0.18   0.42  -0.51    -0.08  -0.21   0.24
  17   1    -0.01  -0.01   0.01    -0.09   0.55   0.24     0.01   0.01  -0.01
  18   1     0.07   0.04   0.04     0.00  -0.00  -0.00     0.00  -0.00  -0.00
  19   1    -0.06   0.06   0.07    -0.00  -0.00   0.00     0.00   0.00   0.00
  20   1    -0.08  -0.05  -0.04    -0.00   0.00   0.00     0.00  -0.00  -0.00
  21   1     0.05  -0.05  -0.05    -0.00  -0.00  -0.00     0.01   0.00   0.00
                     49                     50                     51
                        a                      a                      a 
 Frequencies --  2967.6210              2980.0901              3111.8981
 Red. masses --     1.5453                 1.5785                 1.8063
 Frc consts  --     0.0000                 0.0000                 0.0000
 IR Inten    --    11.3218                 3.4833                28.0620
 Raman Activ --     0.0000                 0.0000                 0.0000
 Depolar     --     0.0000                 0.0000                 0.0000
 Atom AN      X      Y      Z        X      Y      Z        X      Y      Z
   1   7     0.00   0.00   0.00    -0.00  -0.00  -0.00     0.01  -0.01  -0.00
   2   6     0.05  -0.04  -0.01    -0.02  -0.13   0.18     0.00  -0.00  -0.00
   3   6     0.06  -0.09  -0.18    -0.01  -0.02   0.04     0.00  -0.00  -0.00
   4   6     0.01  -0.00  -0.01    -0.00  -0.00   0.00     0.00  -0.00  -0.00
   5   6    -0.00   0.00   0.00     0.00   0.00   0.00     0.07  -0.15  -0.16
   6   6     0.00  -0.00  -0.00    -0.00  -0.00   0.00     0.04   0.03   0.03
   7   6    -0.00   0.00   0.00    -0.00   0.00  -0.00     0.00   0.00   0.00
   8   9     0.00  -0.00   0.00    -0.00   0.00   0.00    -0.00  -0.00  -0.00
   9   6    -0.00   0.00   0.00    -0.00   0.00   0.00    -0.02   0.03   0.03
  10   6    -0.00   0.00   0.00    -0.00  -0.00  -0.00    -0.08  -0.07  -0.06
  11   1    -0.00  -0.00   0.00    -0.01  -0.00   0.01    -0.00  -0.00   0.00
  12   1     0.01  -0.01  -0.00     0.01  -0.01  -0.00    -0.02   0.02  -0.00
  13   1    -0.00  -0.00  -0.00     0.00  -0.00   0.00     0.00  -0.00  -0.00
  14   1    -0.18   0.15   0.01    -0.36   0.29   0.05    -0.00   0.00   0.00
  15   1     0.00  -0.01   0.01     0.43   0.16  -0.70    -0.00  -0.00   0.00
  16   1    -0.14  -0.39   0.40     0.04   0.10  -0.11    -0.00  -0.00   0.00
  17   1    -0.09   0.70   0.25    -0.00  -0.01   0.00    -0.00   0.01   0.00
  18   1     0.01  -0.01  -0.01    -0.00  -0.00   0.00    -0.25   0.52   0.55
  19   1     0.00   0.00   0.00     0.00   0.00   0.00    -0.17  -0.13  -0.13
  20   1     0.00  -0.00  -0.00     0.00  -0.00  -0.00     0.06  -0.11  -0.12
  21   1    -0.00   0.00  -0.00     0.00   0.00   0.00     0.28   0.24   0.23
                     52                     53                     54
                        a                      a                      a 
 Frequencies --  3114.7511              3128.7419              3129.1412
 Red. masses --     1.7863                 1.8715                 1.8765
 Frc consts  --     0.0000                 0.0000                 0.0000
 IR Inten    --    48.6574                18.7882                 0.3722
 Raman Activ --     0.0000                 0.0000                 0.0000
 Depolar     --     0.0000                 0.0000                 0.0000
 Atom AN      X      Y      Z        X      Y      Z        X      Y      Z
   1   7     0.01  -0.01  -0.00     0.01  -0.00  -0.00    -0.00   0.00   0.00
   2   6     0.00  -0.00  -0.00     0.00  -0.00  -0.00    -0.00   0.00  -0.00
   3   6    -0.00  -0.00   0.00     0.00  -0.00  -0.00    -0.00   0.00   0.00
   4   6    -0.01  -0.00   0.00    -0.00   0.00   0.00     0.01   0.00   0.00
   5   6    -0.04   0.08   0.09     0.01  -0.02  -0.03     0.03  -0.05  -0.06
   6   6    -0.02  -0.02  -0.02    -0.08  -0.06  -0.06    -0.16  -0.13  -0.12
   7   6    -0.00   0.00   0.00     0.00  -0.00  -0.00    -0.01   0.00   0.00
   8   9    -0.00  -0.00  -0.00    -0.00   0.00   0.00     0.00  -0.00  -0.00
   9   6    -0.03   0.06   0.06     0.08  -0.15  -0.15    -0.04   0.08   0.08
  10   6    -0.14  -0.12  -0.11    -0.07  -0.06  -0.05     0.03   0.03   0.03
  11   1    -0.00  -0.00   0.00    -0.00  -0.00   0.00     0.00   0.00  -0.00
  12   1    -0.04   0.04  -0.00    -0.02   0.02  -0.00     0.01  -0.01   0.00
  13   1     0.00  -0.00   0.00     0.00  -0.00   0.00    -0.00   0.00  -0.00
  14   1    -0.00   0.00   0.00    -0.00   0.00   0.00     0.00  -0.00  -0.00
  15   1    -0.00  -0.00   0.00     0.00  -0.00   0.00    -0.00  -0.00   0.00
  16   1     0.00   0.00  -0.01     0.00  -0.00  -0.00    -0.00   0.00   0.00
  17   1     0.00  -0.00  -0.00    -0.00   0.00   0.00    -0.00   0.00  -0.00
  18   1     0.14  -0.29  -0.31    -0.04   0.08   0.08    -0.08   0.17   0.18
  19   1     0.09   0.08   0.07     0.28   0.23   0.22     0.54   0.43   0.42
  20   1     0.12  -0.22  -0.23    -0.26   0.51   0.53     0.13  -0.27  -0.28
  21   1     0.50   0.42   0.41     0.22   0.18   0.18    -0.11  -0.10  -0.09
                     55                     56                     57
                        a                      a                      a 
 Frequencies --  3261.8385              3272.8914              3286.7469
 Red. masses --     2.0089                 2.0449                 1.3114
 Frc consts  --     0.0000                 0.0000                 0.0000
 IR Inten    --   106.0189                84.5993                23.7129
 Raman Activ --     0.0000                 0.0000                 0.0000
 Depolar     --     0.0000                 0.0000                 0.0000
 Atom AN      X      Y      Z        X      Y      Z        X      Y      Z
   1   7     0.24  -0.14  -0.02     0.02  -0.01   0.28     0.11   0.10  -0.02
   2   6     0.01  -0.01  -0.00    -0.00  -0.00   0.01     0.00   0.01  -0.00
   3   6    -0.00  -0.00   0.00    -0.00   0.00  -0.00    -0.00  -0.00   0.00
   4   6    -0.00   0.00   0.00    -0.00   0.00   0.00     0.00   0.00  -0.00
   5   6    -0.00   0.00   0.00     0.00   0.00  -0.00    -0.00   0.00   0.00
   6   6     0.00  -0.00  -0.00     0.00   0.00   0.00     0.00   0.00   0.00
   7   6     0.00   0.00  -0.00     0.00   0.00  -0.00     0.00  -0.00  -0.00
   8   9    -0.00  -0.00   0.00    -0.00  -0.00   0.00    -0.00   0.00   0.00
   9   6    -0.00   0.00   0.00    -0.00  -0.00   0.00     0.00  -0.00  -0.00
  10   6     0.01   0.01   0.01    -0.00  -0.00  -0.00    -0.00  -0.00  -0.00
  11   1    -0.17  -0.06   0.26     0.37   0.09  -0.46    -0.41  -0.10   0.56
  12   1    -0.64   0.61  -0.01    -0.04   0.03   0.03     0.29  -0.25   0.00
  13   1    -0.08  -0.03  -0.17    -0.41  -0.08  -0.62    -0.31  -0.05  -0.50
  14   1    -0.02   0.01   0.00    -0.00   0.00  -0.00     0.01  -0.01  -0.00
  15   1    -0.00  -0.00   0.00     0.01   0.00  -0.01    -0.01  -0.00   0.01
  16   1     0.00   0.00  -0.00    -0.00   0.00  -0.00     0.00   0.00  -0.00
  17   1     0.00   0.00   0.00     0.00   0.00  -0.00     0.00  -0.00  -0.00
  18   1     0.00  -0.00  -0.00     0.00  -0.00  -0.00     0.00  -0.00  -0.00
  19   1     0.00   0.00   0.00    -0.00  -0.00  -0.00    -0.00  -0.00  -0.00
  20   1     0.00  -0.00  -0.00     0.00  -0.00  -0.00    -0.00   0.00   0.00
  21   1    -0.05  -0.04  -0.03     0.00   0.00   0.00     0.02   0.01   0.01
