      -----------------------------------------------------------      
     |                   =====================                   |     
     |                           x T B                           |     
     |                   =====================                   |     
     |                         S. Grimme                         |     
     |          Mulliken Center for Theoretical Chemistry        |     
     |                    University of Bonn                     |     
      -----------------------------------------------------------      

   * xtb version 6.5.1 (fef0646) compiled by 'conda@b96dff2e9fd6' on 2023-01-04

   xtb is free software: you can redistribute it and/or modify it under
   the terms of the GNU Lesser General Public License as published by
   the Free Software Foundation, either version 3 of the License, or
   (at your option) any later version.
   
   xtb is distributed in the hope that it will be useful,
   but WITHOUT ANY WARRANTY; without even the implied warranty of
   MERCHANTABILITY or FITNESS FOR A PARTICULAR PURPOSE.  See the
   GNU Lesser General Public License for more details.
   
   Cite this work as:
   * C. Bannwarth, E. Caldeweyher, S. Ehlert, A. Hansen, P. Pracht,
     J. Seibert, S. Spicher, S. Grimme, WIREs Comput. Mol. Sci., 2020, 11,
     e01493. DOI: 10.1002/wcms.1493
   
   for GFN2-xTB:
   * C. Bannwarth, S. Ehlert and S. Grimme., J. Chem. Theory Comput., 2019,
     15, 1652-1671. DOI: 10.1021/acs.jctc.8b01176
   for GFN1-xTB:
   * S. Grimme, C. Bannwarth, P. Shushkov, J. Chem. Theory Comput., 2017,
     13, 1989-2009. DOI: 10.1021/acs.jctc.7b00118
   for GFN0-xTB:
   * P. Pracht, E. Caldeweyher, S. Ehlert, S. Grimme, ChemRxiv, 2019, preprint.
     DOI: 10.26434/chemrxiv.8326202.v1
   for GFN-FF:
   * S. Spicher and S. Grimme, Angew. Chem. Int. Ed., 2020, 59, 15665-15673.
     DOI: 10.1002/anie.202004239
   
   for ALPB and GBSA implicit solvation:
   * S. Ehlert, M. Stahn, S. Spicher, S. Grimme, J. Chem. Theory Comput.,
     2021, 17, 4250-4261. DOI: 10.1021/acs.jctc.1c00471
   
   for DFT-D4:
   * E. Caldeweyher, C. Bannwarth and S. Grimme, J. Chem. Phys., 2017,
     147, 034112. DOI: 10.1063/1.4993215
   * E. Caldeweyher, S. Ehlert, A. Hansen, H. Neugebauer, S. Spicher,
     C. Bannwarth and S. Grimme, J. Chem. Phys., 2019, 150, 154122.
     DOI: 10.1063/1.5090222
   * E. Caldeweyher, J.-M. Mewes, S. Ehlert and S. Grimme, Phys. Chem. Chem. Phys.
     2020, 22, 8499-8512. DOI: 10.1039/D0CP00502A
   
   for sTDA-xTB:
   * S. Grimme and C. Bannwarth, J. Chem. Phys., 2016, 145, 054103.
     DOI: 10.1063/1.4959605
   
   in the mass-spec context:
   * V. Asgeirsson, C. Bauer and S. Grimme, Chem. Sci., 2017, 8, 4879.
     DOI: 10.1039/c7sc00601b
   * J. Koopman and S. Grimme, ACS Omega 2019, 4, 12, 15120-15133.
     DOI: 10.1021/acsomega.9b02011
   
   for metadynamics refer to:
   * S. Grimme, J. Chem. Theory Comput., 2019, 155, 2847-2862
     DOI: 10.1021/acs.jctc.9b00143
   
   for SPH calculations refer to:
   * S. Spicher and S. Grimme, J. Chem. Theory Comput., 2021, 17, 1701-1714
     DOI: 10.1021/acs.jctc.0c01306
   
   with help from (in alphabetical order)
   P. Atkinson, C. Bannwarth, F. Bohle, G. Brandenburg, E. Caldeweyher
   M. Checinski, S. Dohm, S. Ehlert, S. Ehrlich, I. Gerasimov, C. Hölzer
   A. Katbashev, J. Koopman, C. Lavigne, S. Lehtola, F. März, M. Müller,
   F. Musil, H. Neugebauer, J. Pisarek, C. Plett, P. Pracht, F. Pultar,
   J. Seibert, P. Shushkov, S. Spicher, M. Stahn, M. Steiner, T. Strunk,
   J. Stückrath, T. Rose, and J. Unsleber
   
 * started run on 2023/01/23 at 14:16:55.237     

           -------------------------------------------------
          |                Calculation Setup                |
           -------------------------------------------------

          program call               : xtb init.xyz --opt -c 1 -u 0 -P 16
          hostname                   : gpg-woodward
          coordinate file            : init.xyz
          omp threads                :                    16

   ID    Z sym.   atoms
    1    7 N      1
    2    6 C      2-9
    3    1 H      10-29

           -------------------------------------------------
          |                 G F N 2 - x T B                 |
           -------------------------------------------------

        Reference                      10.1021/acs.jctc.8b01176
      * Hamiltonian:
        H0-scaling (s, p, d)           1.850000    2.230000    2.230000
        zeta-weighting                 0.500000
      * Dispersion:
        s8                             2.700000
        a1                             0.520000
        a2                             5.000000
        s9                             5.000000
      * Repulsion:
        kExp                           1.500000    1.000000
        rExp                           1.000000
      * Coulomb:
        alpha                          2.000000
        third order                    shell-resolved
        anisotropic                    true
        a3                             3.000000
        a5                             4.000000
        cn-shift                       1.200000
        cn-exp                         4.000000
        max-rad                        5.000000


          ...................................................
          :                      SETUP                      :
          :.................................................:
          :  # basis functions                  56          :
          :  # atomic orbitals                  56          :
          :  # shells                           38          :
          :  # electrons                        56          :
          :  max. iterations                   250          :
          :  Hamiltonian                  GFN2-xTB          :
          :  restarted?                      false          :
          :  GBSA solvation                  false          :
          :  PC potential                    false          :
          :  electronic temp.          300.0000000     K    :
          :  accuracy                    1.0000000          :
          :  -> integral cutoff          0.2500000E+02      :
          :  -> integral neglect         0.1000000E-07      :
          :  -> SCF convergence          0.1000000E-05 Eh   :
          :  -> wf. convergence          0.1000000E-03 e    :
          :  Broyden damping             0.4000000          :
          ...................................................

 iter      E             dE          RMSdq      gap      omega  full diag
   1    -30.1221606 -0.301222E+02  0.311E+00   11.75       0.0  T
   2    -30.2497675 -0.127607E+00  0.171E+00    8.70       1.0  T
   3    -30.2534907 -0.372320E-02  0.103E+00    7.35       1.0  T
   4    -30.2543013 -0.810546E-03  0.145E-01    6.07       1.0  T
   5    -30.2543147 -0.133810E-04  0.622E-02    6.10       1.0  T
   6    -30.2543194 -0.469379E-05  0.705E-03    6.15       2.6  T
   7    -30.2543195 -0.156415E-06  0.355E-03    6.15       5.2  T
   8    -30.2543195 -0.206997E-07  0.541E-04    6.15      34.3  T
   9    -30.2543195 -0.736804E-09  0.276E-04    6.15      67.4  T

   *** convergence criteria satisfied after 9 iterations ***

         #    Occupation            Energy/Eh            Energy/eV
      -------------------------------------------------------------
         1        2.0000           -0.9008949             -24.5146
       ...           ...                  ...                  ...
        22        2.0000           -0.5495355             -14.9536
        23        2.0000           -0.5324749             -14.4894
        24        2.0000           -0.5281493             -14.3717
        25        2.0000           -0.5078406             -13.8190
        26        2.0000           -0.5049898             -13.7415
        27        2.0000           -0.4943374             -13.4516
        28        2.0000           -0.4873685             -13.2620 (HOMO)
        29                         -0.2614433              -7.1142 (LUMO)
        30                         -0.1446255              -3.9355
        31                         -0.1103601              -3.0031
        32                         -0.1101522              -2.9974
        33                         -0.0700532              -1.9062
       ...                                ...                  ...
        56                          0.2371548               6.4533
      -------------------------------------------------------------
                  HL-Gap            0.2259252 Eh            6.1477 eV
             Fermi-level           -0.3744059 Eh          -10.1881 eV

 SCC (total)                   0 d,  0 h,  0 min,  0.043 sec
 SCC setup                      ...        0 min,  0.000 sec (  0.505%)
 Dispersion                     ...        0 min,  0.000 sec (  1.144%)
 classical contributions        ...        0 min,  0.000 sec (  0.345%)
 integral evaluation            ...        0 min,  0.001 sec (  2.677%)
 iterations                     ...        0 min,  0.036 sec ( 83.989%)
 molecular gradient             ...        0 min,  0.004 sec (  9.733%)
 printout                       ...        0 min,  0.000 sec (  0.925%)

         :::::::::::::::::::::::::::::::::::::::::::::::::::::
         ::                     SUMMARY                     ::
         :::::::::::::::::::::::::::::::::::::::::::::::::::::
         :: total energy             -29.825248183755 Eh    ::
         :: gradient norm              0.025086975456 Eh/a0 ::
         :: HOMO-LUMO gap              6.147738745727 eV    ::
         ::.................................................::
         :: SCC energy               -30.254319528057 Eh    ::
         :: -> isotropic ES            0.111423120352 Eh    ::
         :: -> anisotropic ES         -0.004208907559 Eh    ::
         :: -> anisotropic XC          0.021046807137 Eh    ::
         :: -> dispersion             -0.015912744656 Eh    ::
         :: repulsion energy           0.429210359317 Eh    ::
         :: add. restraining           0.000000000000 Eh    ::
         :: total charge               1.000000000000 e     ::
         :::::::::::::::::::::::::::::::::::::::::::::::::::::

      ----------------------------------------------------------- 
     |                   =====================                   |
     |                        A N C O P T                        |
     |                   =====================                   |
     |               Approximate Normal Coordinate               |
     |                Rational Function Optimizer                |
      ----------------------------------------------------------- 

          ...................................................
          :                      SETUP                      :
          :.................................................:
          :   optimization level            normal          :
          :   max. optcycles                   200          :
          :   ANC micro-cycles                  20          :
          :   degrees of freedom                81          :
          :.................................................:
          :   RF solver                   davidson          :
          :   write xtbopt.log                true          :
          :   linear?                        false          :
          :   energy convergence         0.5000000E-05 Eh   :
          :   grad. convergence          0.1000000E-02 Eh/α :
          :   maximium RF displ.         1.0000000          :
          :   Hlow (freq-cutoff)         0.1000000E-01      :
          :   Hmax (freq-cutoff)         5.0000000          :
          :   S6 in model hess.         20.0000000          :
          ...................................................

generating ANC from model Hessian ...
Using Lindh-Hessian (1995)
 Shifting diagonal of input Hessian by    9.3893208244786829E-003
 Lowest  eigenvalues of input Hessian
    0.000000    0.000000    0.000000    0.000000    0.000000    0.000000
    0.010000    0.010201    0.011171    0.012320    0.013580    0.013600
    0.016123    0.016147    0.016603    0.020207    0.020771    0.024360
 Highest eigenvalues
    1.247057    1.270484    1.305350    1.405488    1.406996    1.457408


........................................................................
.............................. CYCLE    1 ..............................
........................................................................
   1    -30.2543195 -0.302543E+02  0.481E-05    6.15       0.0  T
   2    -30.2543195 -0.774492E-11  0.269E-05    6.15     689.9  T
   3    -30.2543195 -0.412115E-12  0.126E-05    6.15    1477.9  T
     SCC iter.                  ...        0 min,  0.006 sec
     gradient                   ...        0 min,  0.003 sec
 * total energy  :   -29.8252482 Eh     change       -0.7923262E-10 Eh
   gradient norm :     0.0250876 Eh/α   predicted     0.0000000E+00 (-100.00%)
   displ. norm   :     0.1743862 α      lambda       -0.2312107E-02
   maximum displ.:     0.1216728 α      in ANC's #7, #29, #31, ...

........................................................................
.............................. CYCLE    2 ..............................
........................................................................
   1    -30.2631626 -0.302632E+02  0.137E-01    6.01       0.0  T
   2    -30.2631692 -0.659810E-05  0.806E-02    6.02       1.0  T
   3    -30.2631699 -0.720136E-06  0.554E-03    6.03       3.3  T
   4    -30.2631700 -0.124516E-06  0.208E-03    6.03       8.9  T
   5    -30.2631700 -0.619758E-08  0.874E-04    6.03      21.2  T
   6    -30.2631700 -0.915275E-09  0.136E-04    6.03     137.0  T
     SCC iter.                  ...        0 min,  0.012 sec
     gradient                   ...        0 min,  0.003 sec
 * total energy  :   -29.8265772 Eh     change       -0.1329017E-02 Eh
   gradient norm :     0.0109614 Eh/α   predicted    -0.1191227E-02 ( -10.37%)
   displ. norm   :     0.0508370 α      lambda       -0.2003228E-03
   maximum displ.:     0.0381919 α      in ANC's #7, #31, #11, ...

........................................................................
.............................. CYCLE    3 ..............................
........................................................................
   1    -30.2643131 -0.302643E+02  0.230E-02    5.99       0.0  T
   2    -30.2643141 -0.101124E-05  0.135E-02    5.99       1.4  T
   3    -30.2643142 -0.730575E-07  0.289E-03    6.00       6.4  T
   4    -30.2643142 -0.109041E-07  0.780E-04    6.00      23.8  T
   5    -30.2643142 -0.120525E-08  0.328E-04    6.00      56.6  T
     SCC iter.                  ...        0 min,  0.010 sec
     gradient                   ...        0 min,  0.003 sec
 * total energy  :   -29.8267040 Eh     change       -0.1267858E-03 Eh
   gradient norm :     0.0042248 Eh/α   predicted    -0.1013445E-03 ( -20.07%)
   displ. norm   :     0.0247979 α      lambda       -0.3370881E-04
   maximum displ.:     0.0175522 α      in ANC's #7, #5, #2, ...

........................................................................
.............................. CYCLE    4 ..............................
........................................................................
   1    -30.2642108 -0.302642E+02  0.107E-02    5.98       0.0  T
   2    -30.2642109 -0.165901E-06  0.587E-03    5.99       3.2  T
   3    -30.2642109 -0.143860E-07  0.121E-03    5.99      15.4  T
   4    -30.2642109 -0.181992E-08  0.319E-04    5.99      58.2  T
   5    -30.2642109 -0.224194E-09  0.143E-04    5.99     129.6  T
     SCC iter.                  ...        0 min,  0.009 sec
     gradient                   ...        0 min,  0.002 sec
 * total energy  :   -29.8267237 Eh     change       -0.1967577E-04 Eh
   gradient norm :     0.0012109 Eh/α   predicted    -0.1694281E-04 ( -13.89%)
   displ. norm   :     0.0141698 α      lambda       -0.3098248E-05
   maximum displ.:     0.0087108 α      in ANC's #2, #7, #5, ...

........................................................................
.............................. CYCLE    5 ..............................
........................................................................
   1    -30.2640069 -0.302640E+02  0.620E-03    5.98       0.0  T
   2    -30.2640069 -0.597191E-07  0.327E-03    5.98       5.7  T
   3    -30.2640069 -0.217575E-08  0.835E-04    5.98      22.2  T
   4    -30.2640069 -0.107878E-08  0.153E-04    5.98     121.7  T
     SCC iter.                  ...        0 min,  0.007 sec
     gradient                   ...        0 min,  0.002 sec
 * total energy  :   -29.8267258 Eh     change       -0.2183587E-05 Eh
   gradient norm :     0.0004718 Eh/α   predicted    -0.1552761E-05 ( -28.89%)
   displ. norm   :     0.0065256 α      lambda       -0.4936693E-06
   maximum displ.:     0.0057520 α      in ANC's #2, #5, #15, ...

   *** GEOMETRY OPTIMIZATION CONVERGED AFTER 5 ITERATIONS ***

------------------------------------------------------------------------
 total energy gain   :        -0.0014777 Eh       -0.9272 kcal/mol
 total RMSD          :         0.0440629 a0        0.0233 Å
 total power (kW/mol):        -0.7759205 (step)  -46.7247 (real)
------------------------------------------------------------------------

 ANCopt (total)                0 d,  0 h,  0 min,  0.083 sec
 optimizer setup                ...        0 min,  0.000 sec (  0.159%)
 model hessian                  ...        0 min,  0.014 sec ( 16.416%)
 ANC generation                 ...        0 min,  0.003 sec (  3.961%)
 coordinate transformation      ...        0 min,  0.000 sec (  0.240%)
 single point calculation       ...        0 min,  0.063 sec ( 76.329%)
 optimization log               ...        0 min,  0.001 sec (  0.918%)
 hessian update                 ...        0 min,  0.000 sec (  0.319%)
 rational function              ...        0 min,  0.001 sec (  0.643%)

================
 final structure:
================
29
 xtb: 6.5.1 (fef0646)
N            0.86364466906875        0.05390776476322       -0.11270810274230
C            2.36297163062806        0.04793292568785       -0.10179235419352
C            2.88406362241042       -0.60858710280392        1.16747508713813
C            4.41567367118122       -0.61906693527433        1.18781437751477
C            4.95321826823534       -1.27766656532983        2.45756233580617
C            6.48015760815498       -1.29177504317994        2.48598762685634
C            7.01661402439741       -1.95062122347199        3.75477333446487
C            8.54315307172758       -1.96854417443870        3.78938752326977
C            9.06965878696466       -2.62726289794822        5.05825953546834
H            0.49258626342414        0.49406807906434       -0.96397358489039
H            0.51423042409459        0.56735750402806        0.70745604907013
H            0.51391272885907       -0.91201859155199       -0.05734407720931
H            2.71196574759028        1.07924188821518       -0.16736095849026
H            2.71159983305849       -0.49480707869854       -0.98132891107556
H            2.52542681254367       -1.63780203203383        1.23088924290846
H            2.52536628431932       -0.06569571753938        2.04412386521651
H            4.78771680386193        0.40480907277665        1.12876651054243
H            4.78777137683603       -1.16058750810789        0.31688201181672
H            4.58412156797311       -2.30341121428512        2.51924577198386
H            4.58343700049986       -0.73783725980223        3.33164733279984
H            6.85343565062256       -0.26727811862813        2.42623337347099
H            6.85409262978200       -1.83177007813427        1.61358809396523
H            6.64409840286650       -2.97566107460589        3.81564917694807
H            6.64401763907705       -1.41084682628882        4.62827150757258
H            8.91751665763056       -0.94432150401891        3.72990412372766
H            8.91754987554988       -2.50924195719266        2.91748870604269
H            8.72432647659797       -2.09092229803805        5.93924262198599
H           10.15641054564540       -2.62967986184401        5.06287366359006
H            8.72428192639919       -3.65638217131862        5.12656611644173

 Bond Distances (Angstroems)
 ---------------------------
N1-C2=1.4994         N1-H10=1.0277        N1-H11=1.0288        N1-H12=1.0288        C2-N1=1.4994         C2-C3=1.5211         
C2-H13=1.0907        C2-H14=1.0907        C3-C2=1.5211         C3-C4=1.5318         C3-H15=1.0918        C3-H16=1.0917        
C4-C3=1.5318         C4-C5=1.5281         C4-H17=1.0910        C4-H18=1.0910        C5-C4=1.5281         C5-C6=1.5273         
C5-H19=1.0919        C5-H20=1.0919        C6-C5=1.5273         C6-C7=1.5270         C6-H21=1.0920        C6-H22=1.0920        
C7-C6=1.5270         C7-C8=1.5270         C7-H23=1.0923        C7-H24=1.0923        C8-C7=1.5270         C8-C9=1.5235         
C8-H25=1.0921        C8-H26=1.0921        C9-C8=1.5235         C9-H27=1.0877        C9-H28=1.0868        C9-H29=1.0877        
H10-N1=1.0277        H11-N1=1.0288        H12-N1=1.0288        H13-C2=1.0907        H14-C2=1.0907        H15-C3=1.0918        
H16-C3=1.0917        H17-C4=1.0910        H18-C4=1.0910        H19-C5=1.0919        H20-C5=1.0919        H21-C6=1.0920        
H22-C6=1.0920        H23-C7=1.0923        H24-C7=1.0923        H25-C8=1.0921        H26-C8=1.0921        H27-C9=1.0877        
H28-C9=1.0868        H29-C9=1.0877        
 C  H  Rav=1.0909 sigma=0.0017  Rmin=1.0868  Rmax=1.0923    17
 C  C  Rav=1.5265 sigma=0.0032  Rmin=1.5211  Rmax=1.5318     7
 N  H  Rav=1.0284 sigma=0.0005  Rmin=1.0277  Rmax=1.0288     3
 N  C  Rav=1.4994 sigma=0.0000  Rmin=1.4994  Rmax=1.4994     1

 selected bond angles (degree)
 --------------------
H10-N1-C2=111.64               H11-N1-C2=109.62               H11-N1-H10=108.90              H12-N1-C2=109.62               
H12-N1-H10=108.90              H12-N1-H11=108.07              C3-C2-N1=110.51                H13-C2-N1=108.41               
H13-C2-C3=110.41               H14-C2-N1=108.40               H14-C2-C3=110.40               H14-C2-H13=108.65              
C4-C3-C2=110.89                H15-C3-C2=110.05               H15-C3-C4=108.74               H16-C3-C2=110.05               
H16-C3-C4=108.74               H16-C3-H15=108.31              C5-C4-C3=111.45                H17-C4-C3=109.50               
H17-C4-C5=109.24               H18-C4-C3=109.50               H18-C4-C5=109.23               H18-C4-H17=107.84              
C6-C5-C4=111.79                H19-C5-C4=109.45               H19-C5-C6=109.16               H20-C5-C4=109.45               
H20-C5-C6=109.16               H20-C5-H19=107.74              C7-C6-C5=111.76                H21-C6-C5=109.39               
H21-C6-C7=109.28               H22-C6-C5=109.39               H22-C6-C7=109.28               H22-C6-H21=107.65              
C8-C7-C6=112.03                H23-C7-C6=109.35               H23-C7-C8=109.19               H24-C7-C6=109.35               
H24-C7-C8=109.19               H24-C7-H23=107.63              C9-C8-C7=111.68                H25-C8-C7=109.30               
H25-C8-C9=109.41               H26-C8-C7=109.29               H26-C8-C9=109.41               H26-C8-H25=107.66              
H27-C9-C8=110.59               H28-C9-C8=110.49               H28-C9-H27=108.37              H29-C9-C8=110.59               
H29-C9-H27=108.35              H29-C9-H28=108.37              

 selected dihedral angles (degree)
 ---------------------------------
C3-C2-N1-H10=180.01           C3-C2-N1-H11= 59.25           C3-C2-N1-H12=300.77           H13-C2-N1-H10= 58.89          
H13-C2-N1-H11=298.13          H13-C2-N1-H12=179.65          H14-C2-N1-H10=301.12          H14-C2-N1-H11=180.36          
H14-C2-N1-H12= 61.89          C4-C3-C2-N1=180.01            C4-C3-C2-H13=299.94           C4-C3-C2-H14= 60.09           
H15-C3-C2-N1= 59.66           H15-C3-C2-H13=179.58          H15-C3-C2-H14=299.74          H16-C3-C2-N1=300.37           
H16-C3-C2-H13= 60.29          H16-C3-C2-H14=180.45          C5-C4-C3-C2=180.07            C5-C4-C3-H15=301.19           
C5-C4-C3-H16= 58.93           H17-C4-C3-C2= 59.09           H17-C4-C3-H15=180.21          H17-C4-C3-H16=297.95          
H18-C4-C3-C2=301.04           H18-C4-C3-H15= 62.17          H18-C4-C3-H16=179.91          C6-C5-C4-C3=180.02            
C6-C5-C4-H17=301.15           C6-C5-C4-H18= 58.89           H19-C5-C4-C3= 58.96           H19-C5-C4-H17=180.09          
H19-C5-C4-H18=297.83          H20-C5-C4-C3=301.09           H20-C5-C4-H17= 62.22          H20-C5-C4-H18=179.96          
C7-C6-C5-C4=180.03            C7-C6-C5-H19=301.26           C7-C6-C5-H20= 58.79           H21-C6-C5-C4= 58.87           
H21-C6-C5-H19=180.10          H21-C6-C5-H20=297.64          H22-C6-C5-C4=301.18           H22-C6-C5-H19= 62.41          
H22-C6-C5-H20=179.95          C8-C7-C6-C5=179.98            C8-C7-C6-H21=301.20           C8-C7-C6-H22= 58.76           
H23-C7-C6-C5= 58.79           H23-C7-C6-H21=180.01          H23-C7-C6-H22=297.57          H24-C7-C6-C5=301.17           
H24-C7-C6-H21= 62.40          H24-C7-C6-H22=179.95          C9-C8-C7-C6=179.99            C9-C8-C7-H23=301.28           
C9-C8-C7-H24= 58.70           H25-C8-C7-C6= 58.79           H25-C8-C7-H23=180.07          H25-C8-C7-H24=297.50          
H26-C8-C7-C6=301.20           H26-C8-C7-H23= 62.49          H26-C8-C7-H24=179.91          H27-C9-C8-C7=299.98           
H27-C9-C8-H25= 61.12          H27-C9-C8-H26=178.84          H28-C9-C8-C7=180.00           H28-C9-C8-H25=301.14          
H28-C9-C8-H26= 58.86          H29-C9-C8-C7= 60.01           H29-C9-C8-H25=181.15          H29-C9-C8-H26=298.87          
           -------------------------------------------------
          |                Final Singlepoint                |
           -------------------------------------------------

          ...................................................
          :                      SETUP                      :
          :.................................................:
          :  # basis functions                  56          :
          :  # atomic orbitals                  56          :
          :  # shells                           38          :
          :  # electrons                        56          :
          :  max. iterations                   250          :
          :  Hamiltonian                  GFN2-xTB          :
          :  restarted?                      false          :
          :  GBSA solvation                  false          :
          :  PC potential                    false          :
          :  electronic temp.          300.0000000     K    :
          :  accuracy                    1.0000000          :
          :  -> integral cutoff          0.2500000E+02      :
          :  -> integral neglect         0.1000000E-07      :
          :  -> SCF convergence          0.1000000E-05 Eh   :
          :  -> wf. convergence          0.1000000E-03 e    :
          :  Broyden damping             0.4000000          :
          ...................................................

 iter      E             dE          RMSdq      gap      omega  full diag
   1    -30.2640069 -0.302640E+02  0.707E-05    5.98       0.0  T
   2    -30.2640069 -0.396483E-11  0.395E-05    5.98     469.6  T
   3    -30.2640069 -0.209610E-12  0.764E-06    5.98    2431.0  T

   *** convergence criteria satisfied after 3 iterations ***

         #    Occupation            Energy/Eh            Energy/eV
      -------------------------------------------------------------
         1        2.0000           -0.8976949             -24.4275
       ...           ...                  ...                  ...
        22        2.0000           -0.5496160             -14.9558
        23        2.0000           -0.5332511             -14.5105
        24        2.0000           -0.5271096             -14.3434
        25        2.0000           -0.5084092             -13.8345
        26        2.0000           -0.5048096             -13.7366
        27        2.0000           -0.4953676             -13.4796
        28        2.0000           -0.4876224             -13.2689 (HOMO)
        29                         -0.2677005              -7.2845 (LUMO)
        30                         -0.1643661              -4.4726
        31                         -0.1057267              -2.8770
        32                         -0.1038728              -2.8265
        33                         -0.0613105              -1.6683
       ...                                ...                  ...
        56                          0.2445367               6.6542
      -------------------------------------------------------------
                  HL-Gap            0.2199219 Eh            5.9844 eV
             Fermi-level           -0.3776615 Eh          -10.2767 eV

 SCC (total)                   0 d,  0 h,  0 min,  0.009 sec
 SCC setup                      ...        0 min,  0.000 sec (  1.178%)
 Dispersion                     ...        0 min,  0.000 sec (  2.616%)
 classical contributions        ...        0 min,  0.000 sec (  0.437%)
 integral evaluation            ...        0 min,  0.001 sec (  7.707%)
 iterations                     ...        0 min,  0.005 sec ( 59.737%)
 molecular gradient             ...        0 min,  0.002 sec ( 24.566%)
 printout                       ...        0 min,  0.000 sec (  1.760%)

         :::::::::::::::::::::::::::::::::::::::::::::::::::::
         ::                     SUMMARY                     ::
         :::::::::::::::::::::::::::::::::::::::::::::::::::::
         :: total energy             -29.826725846375 Eh    ::
         :: gradient norm              0.000471737077 Eh/a0 ::
         :: HOMO-LUMO gap              5.984379797133 eV    ::
         ::.................................................::
         :: SCC energy               -30.264006921964 Eh    ::
         :: -> isotropic ES            0.110990477413 Eh    ::
         :: -> anisotropic ES         -0.005128353285 Eh    ::
         :: -> anisotropic XC          0.020485018018 Eh    ::
         :: -> dispersion             -0.015845393724 Eh    ::
         :: repulsion energy           0.437422413640 Eh    ::
         :: add. restraining           0.000000000000 Eh    ::
         :: total charge               1.000000000000 e     ::
         :::::::::::::::::::::::::::::::::::::::::::::::::::::

           -------------------------------------------------
          |                Property Printout                |
           -------------------------------------------------

    * Orbital Energies and Occupations

         #    Occupation            Energy/Eh            Energy/eV
      -------------------------------------------------------------
         1        2.0000           -0.8976949             -24.4275
       ...           ...                  ...                  ...
        16        2.0000           -0.6113588             -16.6359
        17        2.0000           -0.6050529             -16.4643
        18        2.0000           -0.5814565             -15.8222
        19        2.0000           -0.5812467             -15.8165
        20        2.0000           -0.5590552             -15.2127
        21        2.0000           -0.5582749             -15.1914
        22        2.0000           -0.5496160             -14.9558
        23        2.0000           -0.5332511             -14.5105
        24        2.0000           -0.5271096             -14.3434
        25        2.0000           -0.5084092             -13.8345
        26        2.0000           -0.5048096             -13.7366
        27        2.0000           -0.4953676             -13.4796
        28        2.0000           -0.4876224             -13.2689 (HOMO)
        29                         -0.2677005              -7.2845 (LUMO)
        30                         -0.1643661              -4.4726
        31                         -0.1057267              -2.8770
        32                         -0.1038728              -2.8265
        33                         -0.0613105              -1.6683
        34                         -0.0437667              -1.1910
        35                         -0.0181945              -0.4951
        36                         -0.0067042              -0.1824
        37                          0.0069029               0.1878
        38                          0.0260208               0.7081
        39                          0.0295069               0.8029
       ...                                ...                  ...
        56                          0.2445367               6.6542
      -------------------------------------------------------------
                  HL-Gap            0.2199219 Eh            5.9844 eV
             Fermi-level           -0.3776615 Eh          -10.2767 eV

     #   Z          covCN         q      C6AA      α(0)
     1   7 N        3.482    -0.128    23.767     7.241
     2   6 C        3.731    -0.034    21.273     6.584
     3   6 C        3.803    -0.081    22.043     6.684
     4   6 C        3.804    -0.067    21.775     6.643
     5   6 C        3.803    -0.064    21.718     6.635
     6   6 C        3.803    -0.063    21.702     6.632
     7   6 C        3.803    -0.062    21.682     6.629
     8   6 C        3.801    -0.055    21.556     6.610
     9   6 C        3.752    -0.106    22.582     6.777
    10   1 H        0.859     0.270     0.811     1.411
    11   1 H        0.859     0.272     0.802     1.403
    12   1 H        0.859     0.272     0.802     1.403
    13   1 H        0.924     0.107     1.724     2.053
    14   1 H        0.924     0.107     1.724     2.053
    15   1 H        0.924     0.062     2.178     2.308
    16   1 H        0.924     0.062     2.178     2.308
    17   1 H        0.924     0.050     2.320     2.382
    18   1 H        0.924     0.050     2.320     2.382
    19   1 H        0.924     0.041     2.438     2.442
    20   1 H        0.924     0.041     2.438     2.442
    21   1 H        0.924     0.037     2.493     2.469
    22   1 H        0.924     0.037     2.493     2.469
    23   1 H        0.924     0.035     2.520     2.482
    24   1 H        0.924     0.035     2.520     2.482
    25   1 H        0.924     0.033     2.550     2.497
    26   1 H        0.924     0.033     2.550     2.497
    27   1 H        0.925     0.037     2.488     2.466
    28   1 H        0.925     0.042     2.427     2.436
    29   1 H        0.925     0.037     2.488     2.466

 Mol. C6AA /au·bohr⁶  :       5010.369273
 Mol. C8AA /au·bohr⁸  :     104316.526622
 Mol. α(0) /au        :        105.286214


Wiberg/Mayer (AO) data.
largest (>0.10) Wiberg bond orders for each atom

 ---------------------------------------------------------------------------
     #   Z sym  total        # sym  WBO       # sym  WBO       # sym  WBO
 ---------------------------------------------------------------------------
     1   7 N    3.675 --     2 C    0.919    10 H    0.913    11 H    0.910
                            12 H    0.910
     2   6 C    3.883 --     3 C    1.008    14 H    0.967    13 H    0.967
                             1 N    0.919
     3   6 C    3.979 --     2 C    1.008     4 C    0.993    16 H    0.972
                            15 H    0.972
     4   6 C    3.987 --     5 C    1.004     3 C    0.993    17 H    0.976
                            18 H    0.976
     5   6 C    3.993 --     6 C    1.005     4 C    1.004    20 H    0.977
                            19 H    0.977
     6   6 C    3.995 --     7 C    1.006     5 C    1.005    21 H    0.977
                            22 H    0.977
     7   6 C    3.996 --     8 C    1.007     6 C    1.006    24 H    0.977
                            23 H    0.977
     8   6 C    3.997 --     9 C    1.019     7 C    1.007    25 H    0.978
                            26 H    0.978
     9   6 C    3.996 --     8 C    1.019    29 H    0.988    27 H    0.988
                            28 H    0.987
    10   1 H    0.927 --     1 N    0.913
    11   1 H    0.926 --     1 N    0.910
    12   1 H    0.926 --     1 N    0.910
    13   1 H    0.989 --     2 C    0.967
    14   1 H    0.989 --     2 C    0.967
    15   1 H    0.996 --     3 C    0.972
    16   1 H    0.996 --     3 C    0.972
    17   1 H    0.997 --     4 C    0.976
    18   1 H    0.997 --     4 C    0.976
    19   1 H    0.998 --     5 C    0.977
    20   1 H    0.998 --     5 C    0.977
    21   1 H    0.999 --     6 C    0.977
    22   1 H    0.999 --     6 C    0.977
    23   1 H    0.999 --     7 C    0.977
    24   1 H    0.999 --     7 C    0.977
    25   1 H    0.999 --     8 C    0.978
    26   1 H    0.999 --     8 C    0.978
    27   1 H    0.999 --     9 C    0.988
    28   1 H    0.998 --     9 C    0.987
    29   1 H    0.999 --     9 C    0.988
 ---------------------------------------------------------------------------

Topologies differ in total number of bonds
Writing topology from bond orders to xtbtopo.mol

molecular dipole:
                 x           y           z       tot (Debye)
 q only:        2.791      -0.152       0.277
   full:        2.431      -0.091       0.159       6.197
molecular quadrupole (traceless):
                xx          xy          yy          xz          yz          zz
 q only:       15.910      -4.402      -9.775       8.426      -2.585      -6.135
  q+dip:       10.185      -2.764      -5.335       5.276      -0.346      -4.850
   full:       11.470      -3.103      -6.568       5.929      -1.183      -4.902

           -------------------------------------------------
          |                Geometry Summary                 |
           -------------------------------------------------

      molecular mass/u    :      130.2514054
   center of mass at/Å    :        5.1077150      -1.1222040       2.1569723
  moments of inertia/u·Å² :        0.5452699E+02   0.1471596E+04   0.1498198E+04
rotational constants/cm⁻¹ :        0.3091612E+00   0.1145534E-01   0.1125194E-01

 * 28 selected distances

     #   Z          #   Z                                           value/Å
     1   7 N        2   6 C                                       1.4993787
     2   6 C        3   6 C                                       1.5210508
     3   6 C        4   6 C                                       1.5317811 (max)
     4   6 C        5   6 C                                       1.5280602
     5   6 C        6   6 C                                       1.5272692
     6   6 C        7   6 C                                       1.5269844
     7   6 C        8   6 C                                       1.5270368
     8   6 C        9   6 C                                       1.5235338
     1   7 N       10   1 H                                       1.0276568 (min)
     1   7 N       11   1 H                                       1.0287810
     1   7 N       12   1 H                                       1.0287816
     2   6 C       13   1 H                                       1.0907312
     2   6 C       14   1 H                                       1.0907305
     3   6 C       15   1 H                                       1.0917533
     3   6 C       16   1 H                                       1.0917455
     4   6 C       17   1 H                                       1.0909744
     4   6 C       18   1 H                                       1.0909742
     5   6 C       19   1 H                                       1.0918743
     5   6 C       20   1 H                                       1.0918693
     6   6 C       21   1 H                                       1.0920170
     6   6 C       22   1 H                                       1.0920180
     7   6 C       23   1 H                                       1.0923281
     7   6 C       24   1 H                                       1.0923295
     8   6 C       25   1 H                                       1.0921166
     8   6 C       26   1 H                                       1.0921240
     9   6 C       27   1 H                                       1.0876797
     9   6 C       28   1 H                                       1.0867643
     9   6 C       29   1 H                                       1.0876753

 * 4 distinct bonds (by element types)

   Z      Z             #   av. dist./Å        max./Å        min./Å
   1 H    6 C          17     1.0909238     1.0923295     1.0867643
   6 C    6 C           7     1.5265309     1.5317811     1.5210508
   1 H    7 N           3     1.0284065     1.0287816     1.0276568
   6 C    7 N           1     1.4993787     1.4993787     1.4993787


optimized geometry written to: xtbopt.xyz


           -------------------------------------------------
          | TOTAL ENERGY              -29.826725846375 Eh   |
          | GRADIENT NORM               0.000471737077 Eh/α |
          | HOMO-LUMO GAP               5.984379797133 eV   |
           -------------------------------------------------

------------------------------------------------------------------------
 * finished run on 2023/01/23 at 14:16:55.399     
------------------------------------------------------------------------
 total:
 * wall-time:     0 d,  0 h,  0 min,  0.162 sec
 *  cpu-time:     0 d,  0 h,  0 min, 21.267 sec
 * ratio c/w:   131.443 speedup
 SCF:
 * wall-time:     0 d,  0 h,  0 min,  0.044 sec
 *  cpu-time:     0 d,  0 h,  0 min,  6.065 sec
 * ratio c/w:   138.859 speedup
 ANC optimizer:
 * wall-time:     0 d,  0 h,  0 min,  0.093 sec
 *  cpu-time:     0 d,  0 h,  0 min, 11.993 sec
 * ratio c/w:   128.390 speedup

