      -----------------------------------------------------------      
     |                   =====================                   |     
     |                           x T B                           |     
     |                   =====================                   |     
     |                         S. Grimme                         |     
     |          Mulliken Center for Theoretical Chemistry        |     
     |                    University of Bonn                     |     
      -----------------------------------------------------------      

   * xtb version 6.5.1 (fef0646) compiled by 'conda@b96dff2e9fd6' on 2023-01-04

   xtb is free software: you can redistribute it and/or modify it under
   the terms of the GNU Lesser General Public License as published by
   the Free Software Foundation, either version 3 of the License, or
   (at your option) any later version.
   
   xtb is distributed in the hope that it will be useful,
   but WITHOUT ANY WARRANTY; without even the implied warranty of
   MERCHANTABILITY or FITNESS FOR A PARTICULAR PURPOSE.  See the
   GNU Lesser General Public License for more details.
   
   Cite this work as:
   * C. Bannwarth, E. Caldeweyher, S. Ehlert, A. Hansen, P. Pracht,
     J. Seibert, S. Spicher, S. Grimme, WIREs Comput. Mol. Sci., 2020, 11,
     e01493. DOI: 10.1002/wcms.1493
   
   for GFN2-xTB:
   * C. Bannwarth, S. Ehlert and S. Grimme., J. Chem. Theory Comput., 2019,
     15, 1652-1671. DOI: 10.1021/acs.jctc.8b01176
   for GFN1-xTB:
   * S. Grimme, C. Bannwarth, P. Shushkov, J. Chem. Theory Comput., 2017,
     13, 1989-2009. DOI: 10.1021/acs.jctc.7b00118
   for GFN0-xTB:
   * P. Pracht, E. Caldeweyher, S. Ehlert, S. Grimme, ChemRxiv, 2019, preprint.
     DOI: 10.26434/chemrxiv.8326202.v1
   for GFN-FF:
   * S. Spicher and S. Grimme, Angew. Chem. Int. Ed., 2020, 59, 15665-15673.
     DOI: 10.1002/anie.202004239
   
   for ALPB and GBSA implicit solvation:
   * S. Ehlert, M. Stahn, S. Spicher, S. Grimme, J. Chem. Theory Comput.,
     2021, 17, 4250-4261. DOI: 10.1021/acs.jctc.1c00471
   
   for DFT-D4:
   * E. Caldeweyher, C. Bannwarth and S. Grimme, J. Chem. Phys., 2017,
     147, 034112. DOI: 10.1063/1.4993215
   * E. Caldeweyher, S. Ehlert, A. Hansen, H. Neugebauer, S. Spicher,
     C. Bannwarth and S. Grimme, J. Chem. Phys., 2019, 150, 154122.
     DOI: 10.1063/1.5090222
   * E. Caldeweyher, J.-M. Mewes, S. Ehlert and S. Grimme, Phys. Chem. Chem. Phys.
     2020, 22, 8499-8512. DOI: 10.1039/D0CP00502A
   
   for sTDA-xTB:
   * S. Grimme and C. Bannwarth, J. Chem. Phys., 2016, 145, 054103.
     DOI: 10.1063/1.4959605
   
   in the mass-spec context:
   * V. Asgeirsson, C. Bauer and S. Grimme, Chem. Sci., 2017, 8, 4879.
     DOI: 10.1039/c7sc00601b
   * J. Koopman and S. Grimme, ACS Omega 2019, 4, 12, 15120-15133.
     DOI: 10.1021/acsomega.9b02011
   
   for metadynamics refer to:
   * S. Grimme, J. Chem. Theory Comput., 2019, 155, 2847-2862
     DOI: 10.1021/acs.jctc.9b00143
   
   for SPH calculations refer to:
   * S. Spicher and S. Grimme, J. Chem. Theory Comput., 2021, 17, 1701-1714
     DOI: 10.1021/acs.jctc.0c01306
   
   with help from (in alphabetical order)
   P. Atkinson, C. Bannwarth, F. Bohle, G. Brandenburg, E. Caldeweyher
   M. Checinski, S. Dohm, S. Ehlert, S. Ehrlich, I. Gerasimov, C. Hölzer
   A. Katbashev, J. Koopman, C. Lavigne, S. Lehtola, F. März, M. Müller,
   F. Musil, H. Neugebauer, J. Pisarek, C. Plett, P. Pracht, F. Pultar,
   J. Seibert, P. Shushkov, S. Spicher, M. Stahn, M. Steiner, T. Strunk,
   J. Stückrath, T. Rose, and J. Unsleber
   
 * started run on 2023/01/24 at 15:10:51.965     

           -------------------------------------------------
          |                Calculation Setup                |
           -------------------------------------------------

          program call               : xtb init.xyz --opt -c 1 -u 0 -P 16 --alpb water
          hostname                   : gpg-woodward
          coordinate file            : init.xyz
          omp threads                :                    16

   ID    Z sym.   atoms
    1    7 N      1
    2    6 C      2-5
    3    1 H      6-15

           -------------------------------------------------
          |                 G F N 2 - x T B                 |
           -------------------------------------------------

        Reference                      10.1021/acs.jctc.8b01176
      * Hamiltonian:
        H0-scaling (s, p, d)           1.850000    2.230000    2.230000
        zeta-weighting                 0.500000
      * Dispersion:
        s8                             2.700000
        a1                             0.520000
        a2                             5.000000
        s9                             5.000000
      * Repulsion:
        kExp                           1.500000    1.000000
        rExp                           1.000000
      * Coulomb:
        alpha                          2.000000
        third order                    shell-resolved
        anisotropic                    true
        a3                             3.000000
        a5                             4.000000
        cn-shift                       1.200000
        cn-exp                         4.000000
        max-rad                        5.000000

      * Solvation model:               ALPB
        Solvent                        water
        Parameter file                 internal GFN2-xTB/ALPB
        Dielectric constant                8.0200E+01
        Reference state                gsolv [1 M gas/solution]
        Free energy shift                  1.0808E-03 Eh       6.7819E-01 kcal/mol
        Temperature                        2.9815E+02 K
        Density                            1.0000E+00 kg/L
        Solvent mass                       1.8000E+01 g/mol
        Interaction kernel             P16
        Born radius scaling (c1)           1.4744E+00
        Born radii integrator          GBOBC
        Born offset                        0.0000E+00 a0       0.0000E+00 AA
        H-bond correction              true
        Ion screening                  false
        Surface tension                    1.0000E-05 Eh       1.5569E+01 dyn/cm
        Grid points                               230 per atom

          ...................................................
          :                      SETUP                      :
          :.................................................:
          :  # basis functions                  30          :
          :  # atomic orbitals                  30          :
          :  # shells                           20          :
          :  # electrons                        30          :
          :  max. iterations                   250          :
          :  Hamiltonian                  GFN2-xTB          :
          :  restarted?                      false          :
          :  GBSA solvation                   true          :
          :  PC potential                    false          :
          :  electronic temp.          300.0000000     K    :
          :  accuracy                    1.0000000          :
          :  -> integral cutoff          0.2500000E+02      :
          :  -> integral neglect         0.1000000E-07      :
          :  -> SCF convergence          0.1000000E-05 Eh   :
          :  -> wf. convergence          0.1000000E-03 e    :
          :  Broyden damping             0.4000000          :
          ...................................................

 iter      E             dE          RMSdq      gap      omega  full diag
   1    -16.3916668 -0.163917E+02  0.340E+00   12.05       0.0  T
   2    -16.4564938 -0.648270E-01  0.180E+00   10.88       1.0  T
   3    -16.4584667 -0.197284E-02  0.101E+00   10.65       1.0  T
   4    -16.4586207 -0.154042E-03  0.148E-01   10.53       1.0  T
   5    -16.4586922 -0.714389E-04  0.625E-02   10.54       1.0  T
   6    -16.4586950 -0.280940E-05  0.294E-02   10.54       1.0  T
   7    -16.4586956 -0.672983E-06  0.346E-03   10.55       7.5  T
   8    -16.4586957 -0.619007E-08  0.154E-03   10.55      16.8  T
   9    -16.4586957 -0.333362E-08  0.165E-04   10.55     156.4  T
  10    -16.4586957 -0.404299E-10  0.848E-05   10.55     304.4  T

   *** convergence criteria satisfied after 10 iterations ***

         #    Occupation            Energy/Eh            Energy/eV
      -------------------------------------------------------------
         1        2.0000           -0.6964825             -18.9523
       ...           ...                  ...                  ...
         9        2.0000           -0.5231941             -14.2368
        10        2.0000           -0.4897747             -13.3274
        11        2.0000           -0.4805231             -13.0757
        12        2.0000           -0.4745061             -12.9120
        13        2.0000           -0.4457112             -12.1284
        14        2.0000           -0.4296101             -11.6903
        15        2.0000           -0.4294503             -11.6859 (HOMO)
        16                         -0.0418326              -1.1383 (LUMO)
        17                          0.0097882               0.2664
        18                          0.0186973               0.5088
        19                          0.0416617               1.1337
        20                          0.0561917               1.5291
       ...                                ...                  ...
        30                          0.3475772               9.4581
      -------------------------------------------------------------
                  HL-Gap            0.3876178 Eh           10.5476 eV
             Fermi-level           -0.2356415 Eh           -6.4121 eV

 SCC (total)                   0 d,  0 h,  0 min,  0.011 sec
 SCC setup                      ...        0 min,  0.000 sec (  2.779%)
 Dispersion                     ...        0 min,  0.000 sec (  1.981%)
 classical contributions        ...        0 min,  0.000 sec (  0.660%)
 integral evaluation            ...        0 min,  0.000 sec (  4.065%)
 iterations                     ...        0 min,  0.008 sec ( 75.985%)
 molecular gradient             ...        0 min,  0.001 sec ( 11.372%)
 printout                       ...        0 min,  0.000 sec (  0.986%)

         :::::::::::::::::::::::::::::::::::::::::::::::::::::
         ::                     SUMMARY                     ::
         :::::::::::::::::::::::::::::::::::::::::::::::::::::
         :: total energy             -16.237305788285 Eh    ::
         :: total w/o Gsasa/hb       -16.226785091875 Eh    ::
         :: gradient norm              0.047590655498 Eh/a0 ::
         :: HOMO-LUMO gap             10.547616045118 eV    ::
         ::.................................................::
         :: SCC energy               -16.458695657725 Eh    ::
         :: -> isotropic ES            0.121076456895 Eh    ::
         :: -> anisotropic ES         -0.013304358415 Eh    ::
         :: -> anisotropic XC          0.013063654765 Eh    ::
         :: -> dispersion             -0.006733043574 Eh    ::
         :: -> Gsolv                  -0.114090289648 Eh    ::
         ::    -> Gelec               -0.103569593238 Eh    ::
         ::    -> Gsasa               -0.000763585173 Eh    ::
         ::    -> Ghb                 -0.010837870936 Eh    ::
         ::    -> Gshift               0.001080759698 Eh    ::
         :: repulsion energy           0.221379117298 Eh    ::
         :: add. restraining           0.000000000000 Eh    ::
         :: total charge               1.000000000000 e     ::
         :::::::::::::::::::::::::::::::::::::::::::::::::::::

      ----------------------------------------------------------- 
     |                   =====================                   |
     |                        A N C O P T                        |
     |                   =====================                   |
     |               Approximate Normal Coordinate               |
     |                Rational Function Optimizer                |
      ----------------------------------------------------------- 

          ...................................................
          :                      SETUP                      :
          :.................................................:
          :   optimization level            normal          :
          :   max. optcycles                   200          :
          :   ANC micro-cycles                  20          :
          :   degrees of freedom                39          :
          :.................................................:
          :   RF solver                   davidson          :
          :   write xtbopt.log                true          :
          :   linear?                        false          :
          :   energy convergence         0.5000000E-05 Eh   :
          :   grad. convergence          0.1000000E-02 Eh/α :
          :   maximium RF displ.         1.0000000          :
          :   Hlow (freq-cutoff)         0.1000000E-01      :
          :   Hmax (freq-cutoff)         5.0000000          :
          :   S6 in model hess.         20.0000000          :
          ...................................................

generating ANC from model Hessian ...
Using Lindh-Hessian (1995)
 Shifting diagonal of input Hessian by    2.1094007839405262E-003
 Lowest  eigenvalues of input Hessian
    0.000000    0.000000    0.000000    0.000000    0.000000    0.000000
    0.010000    0.013364    0.016147    0.024599    0.039504    0.041005
    0.043541    0.045335    0.048555    0.056232    0.056467    0.075102
 Highest eigenvalues
    1.226401    1.243508    1.352532    1.380724    1.436320    1.546407


........................................................................
.............................. CYCLE    1 ..............................
........................................................................
   1    -16.4586957 -0.164587E+02  0.647E-06   10.55       0.0  T
   2    -16.4586957 -0.426326E-13  0.368E-06   10.55    7020.2  T
   3    -16.4586957 -0.355271E-14  0.103E-06   10.55   25024.2  T
     SCC iter.                  ...        0 min,  0.002 sec
     gradient                   ...        0 min,  0.001 sec
 * total energy  :   -16.2373058 Eh     change       -0.1836753E-11 Eh
   gradient norm :     0.0475908 Eh/α   predicted     0.0000000E+00 (-100.00%)
   displ. norm   :     0.3201717 α      lambda       -0.8294199E-02
   maximum displ.:     0.2001458 α      in ANC's #1, #4, #18, ...

........................................................................
.............................. CYCLE    2 ..............................
........................................................................
   1    -16.4701406 -0.164701E+02  0.328E-01   10.36       0.0  T
   2    -16.4701504 -0.981231E-05  0.193E-01   10.36       1.0  T
   3    -16.4701496  0.819957E-06  0.164E-02   10.36       1.6  T
   4    -16.4701523 -0.262277E-05  0.414E-03   10.37       6.2  T
   5    -16.4701523 -0.760513E-08  0.188E-03   10.37      13.8  T
   6    -16.4701523 -0.149119E-08  0.271E-04   10.37      95.3  T
   7    -16.4701523 -0.292363E-09  0.129E-04   10.37     199.5  T
     SCC iter.                  ...        0 min,  0.005 sec
     gradient                   ...        0 min,  0.001 sec
 * total energy  :   -16.2412845 Eh     change       -0.3978699E-02 Eh
   gradient norm :     0.0123476 Eh/α   predicted    -0.4572217E-02 (  14.92%)
   displ. norm   :     0.0935437 α      lambda       -0.3812322E-03
   maximum displ.:     0.0749830 α      in ANC's #1, #17, #3, ...

........................................................................
.............................. CYCLE    3 ..............................
........................................................................
   1    -16.4719158 -0.164719E+02  0.681E-02   10.37       0.0  T
   2    -16.4719161 -0.316834E-06  0.395E-02   10.37       1.0  T
   3    -16.4719162 -0.100173E-06  0.218E-03   10.37      11.8  T
   4    -16.4719162 -0.601338E-08  0.980E-04   10.37      26.3  T
   5    -16.4719162 -0.104738E-08  0.326E-04   10.37      79.3  T
     SCC iter.                  ...        0 min,  0.004 sec
     gradient                   ...        0 min,  0.001 sec
 * total energy  :   -16.2415810 Eh     change       -0.2965389E-03 Eh
   gradient norm :     0.0071328 Eh/α   predicted    -0.1922825E-03 ( -35.16%)
   displ. norm   :     0.2214385 α      lambda       -0.4104285E-03
   maximum displ.:     0.1968279 α      in ANC's #1, #3, #2, ...

........................................................................
.............................. CYCLE    4 ..............................
........................................................................
   1    -16.4724536 -0.164725E+02  0.101E-01   10.32       0.0  T
   2    -16.4724546 -0.966601E-06  0.587E-02   10.33       1.0  T
   3    -16.4724548 -0.207876E-06  0.406E-03   10.33       6.4  T
   4    -16.4724549 -0.515182E-07  0.186E-03   10.33      13.9  T
   5    -16.4724549 -0.449633E-08  0.660E-04   10.33      39.1  T
   6    -16.4724549 -0.346564E-09  0.103E-04   10.33     251.3  T
     SCC iter.                  ...        0 min,  0.004 sec
     gradient                   ...        0 min,  0.001 sec
 * total energy  :   -16.2418534 Eh     change       -0.2724186E-03 Eh
   gradient norm :     0.0038689 Eh/α   predicted    -0.2152766E-03 ( -20.98%)
   displ. norm   :     0.1536918 α      lambda       -0.1372370E-03
   maximum displ.:     0.1387082 α      in ANC's #1, #3, #4, ...

........................................................................
.............................. CYCLE    5 ..............................
........................................................................
   1    -16.4721794 -0.164722E+02  0.529E-02   10.29       0.0  T
   2    -16.4721796 -0.194665E-06  0.311E-02   10.29       1.0  T
   3    -16.4721797 -0.453857E-07  0.167E-03   10.29      15.5  T
   4    -16.4721797 -0.784611E-08  0.826E-04   10.29      31.2  T
   5    -16.4721797 -0.437538E-09  0.276E-04   10.29      93.6  T
     SCC iter.                  ...        0 min,  0.004 sec
     gradient                   ...        0 min,  0.001 sec
 * total energy  :   -16.2419659 Eh     change       -0.1124140E-03 Eh
   gradient norm :     0.0047264 Eh/α   predicted    -0.7023898E-04 ( -37.52%)
   displ. norm   :     0.1288341 α      lambda       -0.1128077E-03
   maximum displ.:     0.1119053 α      in ANC's #1, #3, #4, ...

........................................................................
.............................. CYCLE    6 ..............................
........................................................................
   1    -16.4723043 -0.164723E+02  0.400E-02   10.28       0.0  T
   2    -16.4723044 -0.831561E-07  0.236E-02   10.28       1.1  T
   3    -16.4723044 -0.215868E-07  0.130E-03   10.28      19.9  T
   4    -16.4723044 -0.726256E-08  0.631E-04   10.28      40.9  T
   5    -16.4723044 -0.921112E-10  0.128E-04   10.28     200.9  T
     SCC iter.                  ...        0 min,  0.004 sec
     gradient                   ...        0 min,  0.001 sec
 * total energy  :   -16.2420612 Eh     change       -0.9534476E-04 Eh
   gradient norm :     0.0036635 Eh/α   predicted    -0.5734085E-04 ( -39.86%)
   displ. norm   :     0.1531324 α      lambda       -0.1059045E-03
   maximum displ.:     0.1309066 α      in ANC's #1, #3, #2, ...

........................................................................
.............................. CYCLE    7 ..............................
........................................................................
   1    -16.4722977 -0.164723E+02  0.477E-02   10.28       0.0  T
   2    -16.4722978 -0.138980E-06  0.281E-02   10.27       1.0  T
   3    -16.4722979 -0.404343E-07  0.141E-03   10.27      18.3  T
   4    -16.4722979 -0.371039E-08  0.730E-04   10.27      35.4  T
   5    -16.4722979 -0.406704E-09  0.247E-04   10.27     104.6  T
     SCC iter.                  ...        0 min,  0.004 sec
     gradient                   ...        0 min,  0.001 sec
 * total energy  :   -16.2421468 Eh     change       -0.8558695E-04 Eh
   gradient norm :     0.0022861 Eh/α   predicted    -0.5419243E-04 ( -36.68%)
   displ. norm   :     0.1514702 α      lambda       -0.7111991E-04
   maximum displ.:     0.1305420 α      in ANC's #1, #3, #2, ...

........................................................................
.............................. CYCLE    8 ..............................
........................................................................
   1    -16.4722425 -0.164722E+02  0.476E-02   10.28       0.0  T
   2    -16.4722427 -0.147763E-06  0.280E-02   10.28       1.0  T
   3    -16.4722427 -0.435438E-07  0.133E-03   10.28      19.4  T
   4    -16.4722427 -0.130193E-08  0.656E-04   10.28      39.3  T
   5    -16.4722427 -0.146326E-09  0.181E-04   10.28     142.8  T
     SCC iter.                  ...        0 min,  0.004 sec
     gradient                   ...        0 min,  0.001 sec
 * total energy  :   -16.2422011 Eh     change       -0.5428120E-04 Eh
   gradient norm :     0.0015347 Eh/α   predicted    -0.3637610E-04 ( -32.99%)
   displ. norm   :     0.1701529 α      lambda       -0.3460770E-04
   maximum displ.:     0.1525549 α      in ANC's #1, #3, #2, ...

........................................................................
.............................. CYCLE    9 ..............................
........................................................................
   1    -16.4725470 -0.164725E+02  0.550E-02   10.31       0.0  T
   2    -16.4725471 -0.177224E-06  0.323E-02   10.30       1.0  T
   3    -16.4725472 -0.569083E-07  0.149E-03   10.30      17.3  T
   4    -16.4725472 -0.230056E-08  0.772E-04   10.30      33.4  T
   5    -16.4725472 -0.303622E-09  0.204E-04   10.30     126.8  T
     SCC iter.                  ...        0 min,  0.004 sec
     gradient                   ...        0 min,  0.001 sec
 * total energy  :   -16.2422355 Eh     change       -0.3443682E-04 Eh
   gradient norm :     0.0012456 Eh/α   predicted    -0.1752580E-04 ( -49.11%)
   displ. norm   :     0.0810008 α      lambda       -0.9908357E-05
   maximum displ.:     0.0754824 α      in ANC's #1, #3, #25, ...

........................................................................
.............................. CYCLE   10 ..............................
........................................................................
   1    -16.4728412 -0.164728E+02  0.269E-02   10.31       0.0  T
   2    -16.4728413 -0.465390E-07  0.158E-02   10.31       1.6  T
   3    -16.4728413 -0.120927E-07  0.765E-04   10.31      33.8  T
   4    -16.4728413 -0.174459E-08  0.392E-04   10.31      65.8  T
     SCC iter.                  ...        0 min,  0.003 sec
     gradient                   ...        0 min,  0.001 sec
 * total energy  :   -16.2422470 Eh     change       -0.1153480E-04 Eh
   gradient norm :     0.0006841 Eh/α   predicted    -0.4968210E-05 ( -56.93%)
   displ. norm   :     0.0672882 α      lambda       -0.6686556E-05
   maximum displ.:     0.0653767 α      in ANC's #1, #4, #25, ...

........................................................................
.............................. CYCLE   11 ..............................
........................................................................
   1    -16.4730031 -0.164730E+02  0.238E-02   10.30       0.0  T
   2    -16.4730031 -0.278385E-07  0.140E-02   10.30       1.8  T
   3    -16.4730031 -0.845709E-08  0.656E-04   10.30      39.3  T
   4    -16.4730031 -0.133623E-08  0.335E-04   10.30      77.1  T
     SCC iter.                  ...        0 min,  0.003 sec
     gradient                   ...        0 min,  0.001 sec
 * total energy  :   -16.2422548 Eh     change       -0.7792112E-05 Eh
   gradient norm :     0.0008367 Eh/α   predicted    -0.3349873E-05 ( -57.01%)
   displ. norm   :     0.0543986 α      lambda       -0.5085910E-05
   maximum displ.:     0.0522991 α      in ANC's #1, #4, #11, ...

........................................................................
.............................. CYCLE   12 ..............................
........................................................................
   1    -16.4729810 -0.164730E+02  0.184E-02   10.30       0.0  T
   2    -16.4729811 -0.192728E-07  0.108E-02   10.30       2.4  T
   3    -16.4729811 -0.518908E-08  0.539E-04   10.30      47.9  T
   4    -16.4729811 -0.980709E-09  0.281E-04   10.30      91.8  T
     SCC iter.                  ...        0 min,  0.003 sec
     gradient                   ...        0 min,  0.001 sec
 * total energy  :   -16.2422610 Eh     change       -0.6142057E-05 Eh
   gradient norm :     0.0007716 Eh/α   predicted    -0.2546019E-05 ( -58.55%)
   displ. norm   :     0.0660368 α      lambda       -0.5673496E-05
   maximum displ.:     0.0604305 α      in ANC's #1, #3, #2, ...

........................................................................
.............................. CYCLE   13 ..............................
........................................................................
   1    -16.4730353 -0.164730E+02  0.221E-02   10.30       0.0  T
   2    -16.4730353 -0.198203E-07  0.130E-02   10.30       2.0  T
   3    -16.4730353 -0.645335E-08  0.565E-04   10.30      45.7  T
   4    -16.4730353 -0.954433E-09  0.299E-04   10.30      86.4  T
     SCC iter.                  ...        0 min,  0.003 sec
     gradient                   ...        0 min,  0.001 sec
 * total energy  :   -16.2422680 Eh     change       -0.7049720E-05 Eh
   gradient norm :     0.0009262 Eh/α   predicted    -0.2841330E-05 ( -59.70%)
   displ. norm   :     0.0704425 α      lambda       -0.5138197E-05
   maximum displ.:     0.0625153 α      in ANC's #1, #3, #2, ...

........................................................................
.............................. CYCLE   14 ..............................
........................................................................
   1    -16.4727867 -0.164728E+02  0.234E-02   10.29       0.0  T
   2    -16.4727867 -0.211111E-07  0.138E-02   10.29       1.9  T
   3    -16.4727867 -0.801736E-08  0.541E-04   10.29      47.7  T
   4    -16.4727867 -0.338936E-09  0.283E-04   10.29      91.3  T
     SCC iter.                  ...        0 min,  0.003 sec
     gradient                   ...        0 min,  0.001 sec
 * total energy  :   -16.2422738 Eh     change       -0.5758146E-05 Eh
   gradient norm :     0.0004463 Eh/α   predicted    -0.2576085E-05 ( -55.26%)
   displ. norm   :     0.0905284 α      lambda       -0.3792577E-05
   maximum displ.:     0.0781446 α      in ANC's #1, #3, #2, ...

........................................................................
.............................. CYCLE   15 ..............................
........................................................................
   1    -16.4727539 -0.164728E+02  0.288E-02   10.29       0.0  T
   2    -16.4727540 -0.372937E-07  0.170E-02   10.29       1.5  T
   3    -16.4727540 -0.125209E-07  0.710E-04   10.29      36.4  T
   4    -16.4727540 -0.737693E-09  0.375E-04   10.29      68.9  T
     SCC iter.                  ...        0 min,  0.003 sec
     gradient                   ...        0 min,  0.001 sec
 * total energy  :   -16.2422761 Eh     change       -0.2364507E-05 Eh
   gradient norm :     0.0002780 Eh/α   predicted    -0.1904529E-05 ( -19.45%)
   displ. norm   :     0.0053198 α      lambda       -0.4574204E-06
   maximum displ.:     0.0031536 α      in ANC's #6, #1, #3, ...

   *** GEOMETRY OPTIMIZATION CONVERGED AFTER 15 ITERATIONS ***

------------------------------------------------------------------------
 total energy gain   :        -0.0049704 Eh       -3.1189 kcal/mol
 total RMSD          :         0.4228811 a0        0.2238 Å
 total power (kW/mol):        -0.8699788 (step) -136.3517 (real)
------------------------------------------------------------------------

 ANCopt (total)                0 d,  0 h,  0 min,  0.096 sec
 optimizer setup                ...        0 min,  0.000 sec (  0.117%)
 model hessian                  ...        0 min,  0.006 sec (  6.167%)
 ANC generation                 ...        0 min,  0.001 sec (  0.963%)
 coordinate transformation      ...        0 min,  0.000 sec (  0.470%)
 single point calculation       ...        0 min,  0.082 sec ( 86.164%)
 optimization log               ...        0 min,  0.001 sec (  1.358%)
 hessian update                 ...        0 min,  0.001 sec (  0.633%)
 rational function              ...        0 min,  0.002 sec (  2.014%)

================
 final structure:
================
15
 xtb: 6.5.1 (fef0646)
N            1.05576242027532        0.05665684090896        0.15184191529947
C            2.52668698005744        0.06460322814202       -0.02327314785134
C            3.27717275953437       -1.03259989165769        0.74328033584349
C            4.19354966199592        0.04282059628236        1.35391828045894
C            3.27025538399111        1.13570079564669        0.78553719844217
H            0.64332452154129       -0.77059089652260       -0.29637738121005
H            0.63878438980573        0.90048345506645       -0.25999877509512
H            0.82616794452768        0.03465333897593        1.15356488526215
H            2.75976128222911        0.08636827434439       -1.08704334701476
H            3.77253603444253       -1.78401450794827        0.13536721001874
H            2.66592313701882       -1.53379895090426        1.48880642834147
H            5.18901000569424        0.05369297444038        0.91899378278382
H            4.29155472963950        0.02177957687428        2.43573741607304
H            3.76033883845468        1.91355830825634        0.20731945128693
H            2.65535191079224        1.60347685809502        1.54985574736102

 Bond Distances (Angstroems)
 ---------------------------
N1-C2=1.4813         N1-H6=1.0273         N1-H7=1.0274         N1-H8=1.0279         C2-N1=1.4813         C2-C3=1.5345         
C2-C5=1.5344         C2-H9=1.0892         C3-C2=1.5345         C3-C4=1.5392         C3-H10=1.0861        C3-H11=1.0866        
C4-C3=1.5392         C4-C5=1.5395         C4-H12=1.0864        C4-H13=1.0865        C5-C2=1.5344         C5-C4=1.5395         
C5-H14=1.0861        C5-H15=1.0868        H6-N1=1.0273         H7-N1=1.0274         H8-N1=1.0279         H9-C2=1.0892         
H10-C3=1.0861        H11-C3=1.0866        H12-C4=1.0864        H13-C4=1.0865        H14-C5=1.0861        H15-C5=1.0868        
 C  H  Rav=1.0868 sigma=0.0010  Rmin=1.0861  Rmax=1.0892     7
 C  C  Rav=1.5369 sigma=0.0024  Rmin=1.5344  Rmax=1.5395     4
 N  H  Rav=1.0275 sigma=0.0003  Rmin=1.0273  Rmax=1.0279     3
 N  C  Rav=1.4813 sigma=0.0000  Rmin=1.4813  Rmax=1.4813     1

 selected bond angles (degree)
 --------------------
H6-N1-C2=110.57                H7-N1-C2=110.56                H7-N1-H6=108.88                H8-N1-C2=109.70                
H8-N1-H6=108.56                H8-N1-H7=108.52                C3-C2-N1=115.01                C5-C2-N1=115.00                
C5-C2-C3= 89.93                H9-C2-N1=109.15                H9-C2-C3=113.42                H9-C2-C5=113.40                
C4-C3-C2= 89.41                H10-C3-C2=115.99               H10-C3-C4=115.72               H11-C3-C2=113.42               
H11-C3-C4=112.64               H11-C3-H10=108.75              C5-C4-C3= 89.57                H12-C4-C3=113.18               
H12-C4-C5=113.24               H13-C4-C3=115.80               H13-C4-C5=115.82               H13-C4-H12=108.43              
C4-C5-C2= 89.41                H14-C5-C2=115.98               H14-C5-C4=115.75               H15-C5-C2=113.39               
H15-C5-C4=112.66               H15-C5-H14=108.75              

 selected dihedral angles (degree)
 ---------------------------------
C3-C2-N1-H6=291.43            C3-C2-N1-H7=170.78            C3-C2-N1-H8= 51.13            C5-C2-N1-H6=188.95            
C5-C2-N1-H7= 68.30            C5-C2-N1-H8=308.66            H9-C2-N1-H6= 60.21            H9-C2-N1-H7=299.55            
H9-C2-N1-H8=179.91            C4-C3-C2-N1=232.45            C4-C3-C2-C5=350.21            C4-C3-C2-H9=105.82            
H10-C3-C2-N1=113.91           H10-C3-C2-C5=231.67           H10-C3-C2-H9=347.28           H11-C3-C2-N1=346.97           
H11-C3-C2-C5=104.74           H11-C3-C2-H9=220.35           C5-C4-C3-C2=  9.76            C5-C4-C3-H10=128.54           
C5-C4-C3-H11=254.52           H12-C4-C3-C2=254.54           H12-C4-C3-H10= 13.32          H12-C4-C3-H11=139.30          
H13-C4-C3-C2=128.45           H13-C4-C3-H10=247.23          H13-C4-C3-H11= 13.21          C4-C5-C2-N1=127.56            
C4-C5-C2-C3=  9.79            C4-C5-C2-H9=254.16            H14-C5-C2-N1=246.13           H14-C5-C2-C3=128.36           
H14-C5-C2-H9= 12.73           H15-C5-C2-N1= 13.02           H15-C5-C2-C3=255.25           H15-C5-C2-H9=139.62           
C2-C5-C4-C3=350.24            C2-C5-C4-H12=105.41           C2-C5-C4-H13=231.56           H14-C5-C4-C3=231.47           
H14-C5-C4-H12=346.63          H14-C5-C4-H13=112.79          H15-C5-C4-C3=105.45           H15-C5-C4-H12=220.61          
H15-C5-C4-H13=346.77          
           -------------------------------------------------
          |                Final Singlepoint                |
           -------------------------------------------------

          ...................................................
          :                      SETUP                      :
          :.................................................:
          :  # basis functions                  30          :
          :  # atomic orbitals                  30          :
          :  # shells                           20          :
          :  # electrons                        30          :
          :  max. iterations                   250          :
          :  Hamiltonian                  GFN2-xTB          :
          :  restarted?                      false          :
          :  GBSA solvation                   true          :
          :  PC potential                    false          :
          :  electronic temp.          300.0000000     K    :
          :  accuracy                    1.0000000          :
          :  -> integral cutoff          0.2500000E+02      :
          :  -> integral neglect         0.1000000E-07      :
          :  -> SCF convergence          0.1000000E-05 Eh   :
          :  -> wf. convergence          0.1000000E-03 e    :
          :  Broyden damping             0.4000000          :
          ...................................................

 iter      E             dE          RMSdq      gap      omega  full diag
   1    -16.4727540 -0.164728E+02  0.869E-05   10.29       0.0  T
   2    -16.4727540 -0.818545E-11  0.503E-05   10.29     512.8  T
   3    -16.4727540 -0.888178E-13  0.168E-05   10.29    1541.0  T

   *** convergence criteria satisfied after 3 iterations ***

         #    Occupation            Energy/Eh            Energy/eV
      -------------------------------------------------------------
         1        2.0000           -0.6959822             -18.9386
       ...           ...                  ...                  ...
         9        2.0000           -0.5251607             -14.2904
        10        2.0000           -0.4934026             -13.4262
        11        2.0000           -0.4859617             -13.2237
        12        2.0000           -0.4750938             -12.9280
        13        2.0000           -0.4424569             -12.0399
        14        2.0000           -0.4336496             -11.8002
        15        2.0000           -0.4261881             -11.5972 (HOMO)
        16                         -0.0479784              -1.3056 (LUMO)
        17                          0.0203129               0.5527
        18                          0.0226600               0.6166
        19                          0.0404997               1.1021
        20                          0.0612511               1.6667
       ...                                ...                  ...
        30                          0.3779879              10.2856
      -------------------------------------------------------------
                  HL-Gap            0.3782098 Eh           10.2916 eV
             Fermi-level           -0.2370832 Eh           -6.4514 eV

 SCC (total)                   0 d,  0 h,  0 min,  0.004 sec
 SCC setup                      ...        0 min,  0.000 sec (  3.807%)
 Dispersion                     ...        0 min,  0.000 sec (  2.633%)
 classical contributions        ...        0 min,  0.000 sec (  0.766%)
 integral evaluation            ...        0 min,  0.000 sec (  8.234%)
 iterations                     ...        0 min,  0.002 sec ( 55.119%)
 molecular gradient             ...        0 min,  0.001 sec ( 24.069%)
 printout                       ...        0 min,  0.000 sec (  2.379%)

         :::::::::::::::::::::::::::::::::::::::::::::::::::::
         ::                     SUMMARY                     ::
         :::::::::::::::::::::::::::::::::::::::::::::::::::::
         :: total energy             -16.242276149647 Eh    ::
         :: total w/o Gsasa/hb       -16.231675735181 Eh    ::
         :: gradient norm              0.000278384611 Eh/a0 ::
         :: HOMO-LUMO gap             10.291611180808 eV    ::
         ::.................................................::
         :: SCC energy               -16.472753976060 Eh    ::
         :: -> isotropic ES            0.120469645002 Eh    ::
         :: -> anisotropic ES         -0.013465541022 Eh    ::
         :: -> anisotropic XC          0.012498920577 Eh    ::
         :: -> dispersion             -0.006726532388 Eh    ::
         :: -> Gsolv                  -0.113730054700 Eh    ::
         ::    -> Gelec               -0.103129640233 Eh    ::
         ::    -> Gsasa               -0.000785165809 Eh    ::
         ::    -> Ghb                 -0.010896008355 Eh    ::
         ::    -> Gshift               0.001080759698 Eh    ::
         :: repulsion energy           0.230466784147 Eh    ::
         :: add. restraining           0.000000000000 Eh    ::
         :: total charge               1.000000000000 e     ::
         :::::::::::::::::::::::::::::::::::::::::::::::::::::

           -------------------------------------------------
          |                Property Printout                |
           -------------------------------------------------

    * Orbital Energies and Occupations

         #    Occupation            Energy/Eh            Energy/eV
      -------------------------------------------------------------
         1        2.0000           -0.6959822             -18.9386
       ...           ...                  ...                  ...
         3        2.0000           -0.6253295             -17.0161
         4        2.0000           -0.6108616             -16.6224
         5        2.0000           -0.5920843             -16.1114
         6        2.0000           -0.5747002             -15.6384
         7        2.0000           -0.5667910             -15.4232
         8        2.0000           -0.5437330             -14.7957
         9        2.0000           -0.5251607             -14.2904
        10        2.0000           -0.4934026             -13.4262
        11        2.0000           -0.4859617             -13.2237
        12        2.0000           -0.4750938             -12.9280
        13        2.0000           -0.4424569             -12.0399
        14        2.0000           -0.4336496             -11.8002
        15        2.0000           -0.4261881             -11.5972 (HOMO)
        16                         -0.0479784              -1.3056 (LUMO)
        17                          0.0203129               0.5527
        18                          0.0226600               0.6166
        19                          0.0404997               1.1021
        20                          0.0612511               1.6667
        21                          0.1017423               2.7685
        22                          0.1446860               3.9371
        23                          0.1526374               4.1535
        24                          0.1653337               4.4990
        25                          0.1887275               5.1355
        26                          0.2050897               5.5808
       ...                                ...                  ...
        30                          0.3779879              10.2856
      -------------------------------------------------------------
                  HL-Gap            0.3782098 Eh           10.2916 eV
             Fermi-level           -0.2370832 Eh           -6.4514 eV

     #   Z          covCN         q      C6AA      α(0)
     1   7 N        3.484    -0.170    24.658     7.375
     2   6 C        3.969     0.022    20.127     6.374
     3   6 C        3.980    -0.088    22.094     6.678
     4   6 C        3.988    -0.072    21.789     6.632
     5   6 C        3.980    -0.088    22.094     6.678
     6   1 H        0.859     0.315     0.670     1.283
     7   1 H        0.859     0.315     0.671     1.283
     8   1 H        0.859     0.307     0.693     1.304
     9   1 H        0.925     0.101     1.778     2.085
    10   1 H        0.925     0.059     2.208     2.324
    11   1 H        0.925     0.075     2.034     2.230
    12   1 H        0.925     0.043     2.415     2.430
    13   1 H        0.925     0.046     2.370     2.408
    14   1 H        0.925     0.059     2.208     2.324
    15   1 H        0.925     0.075     2.034     2.230

 Mol. C6AA /au·bohr⁶  :       1309.408352
 Mol. C8AA /au·bohr⁸  :      27927.979471
 Mol. α(0) /au        :         53.637336


Wiberg/Mayer (AO) data.
largest (>0.10) Wiberg bond orders for each atom

 ---------------------------------------------------------------------------
     #   Z sym  total        # sym  WBO       # sym  WBO       # sym  WBO
 ---------------------------------------------------------------------------
     1   7 N    3.650 --     2 C    0.955     8 H    0.888     6 H    0.885
                             7 H    0.885
     2   6 C    3.932 --     5 C    0.997     3 C    0.997     9 H    0.962
                             1 N    0.955
     3   6 C    3.985 --     4 C    1.005     2 C    0.997    10 H    0.980
                            11 H    0.974
     4   6 C    3.991 --     3 C    1.005     5 C    1.004    12 H    0.983
                            13 H    0.982
     5   6 C    3.985 --     4 C    1.004     2 C    0.997    14 H    0.980
                            15 H    0.974
     6   1 H    0.901 --     1 N    0.885
     7   1 H    0.901 --     1 N    0.885
     8   1 H    0.906 --     1 N    0.888
     9   1 H    0.990 --     2 C    0.962
    10   1 H    0.996 --     3 C    0.980
    11   1 H    0.994 --     3 C    0.974
    12   1 H    0.998 --     4 C    0.983
    13   1 H    0.998 --     4 C    0.982
    14   1 H    0.996 --     5 C    0.980
    15   1 H    0.994 --     5 C    0.974
 ---------------------------------------------------------------------------

Topologies differ in total number of bonds
Writing topology from bond orders to xtbtopo.mol

molecular dipole:
                 x           y           z       tot (Debye)
 q only:        2.269       0.106       0.398
   full:        2.178       0.106       0.393       5.632
molecular quadrupole (traceless):
                xx          xy          yy          xz          yz          zz
 q only:        6.356       0.354      -3.143       1.973       0.071      -3.213
  q+dip:        5.116       0.356      -3.406       0.737       0.030      -1.709
   full:        5.614       0.347      -3.265       1.304       0.047      -2.349

           -------------------------------------------------
          |                Geometry Summary                 |
           -------------------------------------------------

      molecular mass/u    :       72.1290543
   center of mass at/Å    :        2.7944488       0.0534031       0.5929217
  moments of inertia/u·Å² :        0.5389611E+02   0.1207294E+03   0.1498506E+03
rotational constants/cm⁻¹ :        0.3127801E+00   0.1396316E+00   0.1124962E+00

 * 15 selected distances

     #   Z          #   Z                                           value/Å
     1   7 N        2   6 C                                       1.4813331
     2   6 C        3   6 C                                       1.5344994
     3   6 C        4   6 C                                       1.5392060
     2   6 C        5   6 C                                       1.5343789
     4   6 C        5   6 C                                       1.5394535 (max)
     1   7 N        6   1 H                                       1.0272997 (min)
     1   7 N        7   1 H                                       1.0273884
     1   7 N        8   1 H                                       1.0279333
     2   6 C        9   1 H                                       1.0892220
     3   6 C       10   1 H                                       1.0860789
     3   6 C       11   1 H                                       1.0865707
     4   6 C       12   1 H                                       1.0863789
     4   6 C       13   1 H                                       1.0864532
     5   6 C       14   1 H                                       1.0860848
     5   6 C       15   1 H                                       1.0867860

 * 4 distinct bonds (by element types)

   Z      Z             #   av. dist./Å        max./Å        min./Å
   1 H    6 C           7     1.0867963     1.0892220     1.0860789
   6 C    6 C           4     1.5368844     1.5394535     1.5343789
   1 H    7 N           3     1.0275405     1.0279333     1.0272997
   6 C    7 N           1     1.4813331     1.4813331     1.4813331


optimized geometry written to: xtbopt.xyz


           -------------------------------------------------
          | TOTAL ENERGY              -16.242276149647 Eh   |
          | GRADIENT NORM               0.000278384611 Eh/α |
          | HOMO-LUMO GAP              10.291611180808 eV   |
           -------------------------------------------------

------------------------------------------------------------------------
 * finished run on 2023/01/24 at 15:10:52.098     
------------------------------------------------------------------------
 total:
 * wall-time:     0 d,  0 h,  0 min,  0.132 sec
 *  cpu-time:     0 d,  0 h,  0 min, 17.850 sec
 * ratio c/w:   134.848 speedup
 SCF:
 * wall-time:     0 d,  0 h,  0 min,  0.011 sec
 *  cpu-time:     0 d,  0 h,  0 min,  1.541 sec
 * ratio c/w:   139.447 speedup
 ANC optimizer:
 * wall-time:     0 d,  0 h,  0 min,  0.101 sec
 *  cpu-time:     0 d,  0 h,  0 min, 13.667 sec
 * ratio c/w:   135.978 speedup

