      -----------------------------------------------------------      
     |                   =====================                   |     
     |                           x T B                           |     
     |                   =====================                   |     
     |                         S. Grimme                         |     
     |          Mulliken Center for Theoretical Chemistry        |     
     |                    University of Bonn                     |     
      -----------------------------------------------------------      

   * xtb version 6.5.1 (fef0646) compiled by 'conda@b96dff2e9fd6' on 2023-01-04

   xtb is free software: you can redistribute it and/or modify it under
   the terms of the GNU Lesser General Public License as published by
   the Free Software Foundation, either version 3 of the License, or
   (at your option) any later version.
   
   xtb is distributed in the hope that it will be useful,
   but WITHOUT ANY WARRANTY; without even the implied warranty of
   MERCHANTABILITY or FITNESS FOR A PARTICULAR PURPOSE.  See the
   GNU Lesser General Public License for more details.
   
   Cite this work as:
   * C. Bannwarth, E. Caldeweyher, S. Ehlert, A. Hansen, P. Pracht,
     J. Seibert, S. Spicher, S. Grimme, WIREs Comput. Mol. Sci., 2020, 11,
     e01493. DOI: 10.1002/wcms.1493
   
   for GFN2-xTB:
   * C. Bannwarth, S. Ehlert and S. Grimme., J. Chem. Theory Comput., 2019,
     15, 1652-1671. DOI: 10.1021/acs.jctc.8b01176
   for GFN1-xTB:
   * S. Grimme, C. Bannwarth, P. Shushkov, J. Chem. Theory Comput., 2017,
     13, 1989-2009. DOI: 10.1021/acs.jctc.7b00118
   for GFN0-xTB:
   * P. Pracht, E. Caldeweyher, S. Ehlert, S. Grimme, ChemRxiv, 2019, preprint.
     DOI: 10.26434/chemrxiv.8326202.v1
   for GFN-FF:
   * S. Spicher and S. Grimme, Angew. Chem. Int. Ed., 2020, 59, 15665-15673.
     DOI: 10.1002/anie.202004239
   
   for ALPB and GBSA implicit solvation:
   * S. Ehlert, M. Stahn, S. Spicher, S. Grimme, J. Chem. Theory Comput.,
     2021, 17, 4250-4261. DOI: 10.1021/acs.jctc.1c00471
   
   for DFT-D4:
   * E. Caldeweyher, C. Bannwarth and S. Grimme, J. Chem. Phys., 2017,
     147, 034112. DOI: 10.1063/1.4993215
   * E. Caldeweyher, S. Ehlert, A. Hansen, H. Neugebauer, S. Spicher,
     C. Bannwarth and S. Grimme, J. Chem. Phys., 2019, 150, 154122.
     DOI: 10.1063/1.5090222
   * E. Caldeweyher, J.-M. Mewes, S. Ehlert and S. Grimme, Phys. Chem. Chem. Phys.
     2020, 22, 8499-8512. DOI: 10.1039/D0CP00502A
   
   for sTDA-xTB:
   * S. Grimme and C. Bannwarth, J. Chem. Phys., 2016, 145, 054103.
     DOI: 10.1063/1.4959605
   
   in the mass-spec context:
   * V. Asgeirsson, C. Bauer and S. Grimme, Chem. Sci., 2017, 8, 4879.
     DOI: 10.1039/c7sc00601b
   * J. Koopman and S. Grimme, ACS Omega 2019, 4, 12, 15120-15133.
     DOI: 10.1021/acsomega.9b02011
   
   for metadynamics refer to:
   * S. Grimme, J. Chem. Theory Comput., 2019, 155, 2847-2862
     DOI: 10.1021/acs.jctc.9b00143
   
   for SPH calculations refer to:
   * S. Spicher and S. Grimme, J. Chem. Theory Comput., 2021, 17, 1701-1714
     DOI: 10.1021/acs.jctc.0c01306
   
   with help from (in alphabetical order)
   P. Atkinson, C. Bannwarth, F. Bohle, G. Brandenburg, E. Caldeweyher
   M. Checinski, S. Dohm, S. Ehlert, S. Ehrlich, I. Gerasimov, C. Hölzer
   A. Katbashev, J. Koopman, C. Lavigne, S. Lehtola, F. März, M. Müller,
   F. Musil, H. Neugebauer, J. Pisarek, C. Plett, P. Pracht, F. Pultar,
   J. Seibert, P. Shushkov, S. Spicher, M. Stahn, M. Steiner, T. Strunk,
   J. Stückrath, T. Rose, and J. Unsleber
   
 * started run on 2023/01/23 at 13:42:46.454     

           -------------------------------------------------
          |                Calculation Setup                |
           -------------------------------------------------

          program call               : xtb init.xyz --opt -c 0 -u 0 -P 16
          hostname                   : gpg-woodward
          coordinate file            : init.xyz
          omp threads                :                    16

   ID    Z sym.   atoms
    1    7 N      1
    2    6 C      2-7
    3   17 Cl     8
    4    1 H      9-22

molecular fragmentation (1/2 indicates fragments):
1111111211111111111111
# atoms in fragment 1/2:    21     1
 fragment masses (1/2) :      100.18       35.45
CMA distance (Bohr)    :   7.077
constraining FC (au)   :  0.0500

           -------------------------------------------------
          |                 G F N 2 - x T B                 |
           -------------------------------------------------

        Reference                      10.1021/acs.jctc.8b01176
      * Hamiltonian:
        H0-scaling (s, p, d)           1.850000    2.230000    2.230000
        zeta-weighting                 0.500000
      * Dispersion:
        s8                             2.700000
        a1                             0.520000
        a2                             5.000000
        s9                             5.000000
      * Repulsion:
        kExp                           1.500000    1.000000
        rExp                           1.000000
      * Coulomb:
        alpha                          2.000000
        third order                    shell-resolved
        anisotropic                    true
        a3                             3.000000
        a5                             4.000000
        cn-shift                       1.200000
        cn-exp                         4.000000
        max-rad                        5.000000


          ...................................................
          :                      SETUP                      :
          :.................................................:
          :  # basis functions                  52          :
          :  # atomic orbitals                  51          :
          :  # shells                           31          :
          :  # electrons                        50          :
          :  max. iterations                   250          :
          :  Hamiltonian                  GFN2-xTB          :
          :  restarted?                      false          :
          :  GBSA solvation                  false          :
          :  PC potential                    false          :
          :  electronic temp.          300.0000000     K    :
          :  accuracy                    1.0000000          :
          :  -> integral cutoff          0.2500000E+02      :
          :  -> integral neglect         0.1000000E-07      :
          :  -> SCF convergence          0.1000000E-05 Eh   :
          :  -> wf. convergence          0.1000000E-03 e    :
          :  Broyden damping             0.4000000          :
          ...................................................

 iter      E             dE          RMSdq      gap      omega  full diag
   1    -27.6273749 -0.276274E+02  0.340E+00   10.95       0.0  T
   2    -27.7692585 -0.141884E+00  0.182E+00    8.27       1.0  T
   3    -27.7725877 -0.332927E-02  0.113E+00    7.58       1.0  T
   4    -27.7742323 -0.164459E-02  0.363E-01    7.01       1.0  T
   5    -27.7747176 -0.485312E-03  0.266E-01    7.05       1.0  T
   6    -27.7751937 -0.476027E-03  0.124E-01    7.14       1.0  T
   7    -27.7753067 -0.113059E-03  0.593E-02    7.18       1.0  T
   8    -27.7753295 -0.228085E-04  0.904E-03    7.17       2.4  T
   9    -27.7753297 -0.142590E-06  0.376E-03    7.17       5.7  T
  10    -27.7753297 -0.452247E-07  0.105E-03    7.17      20.2  T
  11    -27.7753297 -0.279835E-08  0.540E-04    7.17      39.5  T
  12    -27.7753297 -0.175480E-08  0.288E-04    7.17      73.9  T

   *** convergence criteria satisfied after 12 iterations ***

         #    Occupation            Energy/Eh            Energy/eV
      -------------------------------------------------------------
         1        2.0000           -0.9472194             -25.7752
       ...           ...                  ...                  ...
        19        2.0000           -0.4562780             -12.4160
        20        2.0000           -0.4425518             -12.0424
        21        2.0000           -0.4418638             -12.0237
        22        2.0000           -0.4306572             -11.7188
        23        2.0000           -0.3466302              -9.4323
        24        2.0000           -0.3377327              -9.1902
        25        2.0000           -0.3373527              -9.1798 (HOMO)
        26                         -0.0739891              -2.0133 (LUMO)
        27                          0.0310954               0.8461
        28                          0.0332626               0.9051
        29                          0.0553606               1.5064
        30                          0.0670509               1.8245
       ...                                ...                  ...
        51                          0.2944920               8.0135
      -------------------------------------------------------------
                  HL-Gap            0.2633637 Eh            7.1665 eV
             Fermi-level           -0.2056709 Eh           -5.5966 eV

 SCC (total)                   0 d,  0 h,  0 min,  0.028 sec
 SCC setup                      ...        0 min,  0.000 sec (  0.803%)
 Dispersion                     ...        0 min,  0.000 sec (  1.473%)
 classical contributions        ...        0 min,  0.000 sec (  0.366%)
 integral evaluation            ...        0 min,  0.001 sec (  4.884%)
 iterations                     ...        0 min,  0.022 sec ( 80.080%)
 molecular gradient             ...        0 min,  0.003 sec ( 10.554%)
 printout                       ...        0 min,  0.000 sec (  0.686%)

         :::::::::::::::::::::::::::::::::::::::::::::::::::::
         ::                     SUMMARY                     ::
         :::::::::::::::::::::::::::::::::::::::::::::::::::::
         :: total energy             -27.459836836669 Eh    ::
         :: gradient norm              0.045066007920 Eh/a0 ::
         :: HOMO-LUMO gap              7.166489918975 eV    ::
         ::.................................................::
         :: SCC energy               -27.775329716283 Eh    ::
         :: -> isotropic ES            0.090587112658 Eh    ::
         :: -> anisotropic ES         -0.022754556962 Eh    ::
         :: -> anisotropic XC          0.002873430100 Eh    ::
         :: -> dispersion             -0.015891500179 Eh    ::
         :: repulsion energy           0.315353831054 Eh    ::
         :: add. restraining           0.000000000000 Eh    ::
         :: total charge               0.000000000000 e     ::
         :::::::::::::::::::::::::::::::::::::::::::::::::::::

      ----------------------------------------------------------- 
     |                   =====================                   |
     |                        A N C O P T                        |
     |                   =====================                   |
     |               Approximate Normal Coordinate               |
     |                Rational Function Optimizer                |
      ----------------------------------------------------------- 

          ...................................................
          :                      SETUP                      :
          :.................................................:
          :   optimization level            normal          :
          :   max. optcycles                   200          :
          :   ANC micro-cycles                  20          :
          :   degrees of freedom                60          :
          :.................................................:
          :   RF solver                   davidson          :
          :   write xtbopt.log                true          :
          :   linear?                        false          :
          :   energy convergence         0.5000000E-05 Eh   :
          :   grad. convergence          0.1000000E-02 Eh/α :
          :   maximium RF displ.         1.0000000          :
          :   Hlow (freq-cutoff)         0.1000000E-01      :
          :   Hmax (freq-cutoff)         5.0000000          :
          :   S6 in model hess.         20.0000000          :
          ...................................................

generating ANC from model Hessian ...
Using Lindh-Hessian (1995)
 Shifting diagonal of input Hessian by    9.7240695681716262E-003
 Lowest  eigenvalues of input Hessian
    0.000000    0.000000    0.000000    0.000000    0.000000    0.000000
    0.010000    0.011229    0.015144    0.016522    0.021607    0.022124
    0.025501    0.027001    0.031564    0.036302    0.036970    0.058732
 Highest eigenvalues
    1.235380    1.244085    1.286541    1.307797    1.419385    1.578991


........................................................................
.............................. CYCLE    1 ..............................
........................................................................
   1    -27.7753297 -0.277753E+02  0.199E-04    7.17       0.0  T
   2    -27.7753297 -0.121496E-09  0.161E-04    7.17     132.4  T
   3    -27.7753297 -0.141032E-09  0.902E-05    7.17     236.4  T
     SCC iter.                  ...        0 min,  0.005 sec
     gradient                   ...        0 min,  0.002 sec
 * total energy  :   -27.4598368 Eh     change       -0.5518146E-09 Eh
   gradient norm :     0.0450693 Eh/α   predicted     0.0000000E+00 (-100.00%)
   displ. norm   :     0.3470669 α      lambda       -0.9750132E-02
   maximum displ.:     0.1946814 α      in ANC's #10, #5, #26, ...

........................................................................
.............................. CYCLE    2 ..............................
........................................................................
   1    -27.7814477 -0.277814E+02  0.318E-01    7.50       0.0  T
   2    -27.7816960 -0.248266E-03  0.188E-01    7.67       1.0  T
   3    -27.7817166 -0.205659E-04  0.575E-02    7.77       1.0  T
   4    -27.7817218 -0.519922E-05  0.222E-02    7.80       1.0  T
   5    -27.7817239 -0.209849E-05  0.160E-02    7.79       1.3  T
   6    -27.7817253 -0.149690E-05  0.922E-03    7.79       2.3  T
   7    -27.7817261 -0.770733E-06  0.264E-03    7.78       8.1  T
   8    -27.7817262 -0.600604E-07  0.841E-04    7.78      25.3  T
   9    -27.7817262 -0.294295E-08  0.205E-04    7.78     103.8  T
     SCC iter.                  ...        0 min,  0.015 sec
     gradient                   ...        0 min,  0.003 sec
 * total energy  :   -27.4658628 Eh     change       -0.6026008E-02 Eh
   gradient norm :     0.0363117 Eh/α   predicted    -0.5462451E-02 (  -9.35%)
   displ. norm   :     0.4577096 α      lambda       -0.6389255E-02
   maximum displ.:     0.3310041 α      in ANC's #2, #8, #3, ...

........................................................................
.............................. CYCLE    3 ..............................
........................................................................
   1    -27.7853010 -0.277853E+02  0.221E-01    7.71       0.0  T
   2    -27.7853969 -0.959665E-04  0.132E-01    7.84       1.0  T
   3    -27.7854083 -0.113873E-04  0.308E-02    7.93       1.0  T
   4    -27.7854107 -0.238310E-05  0.148E-02    7.94       1.4  T
   5    -27.7854115 -0.801726E-06  0.109E-02    7.94       2.0  T
   6    -27.7854122 -0.675330E-06  0.604E-03    7.94       3.5  T
   7    -27.7854124 -0.236609E-06  0.214E-03    7.94      10.0  T
   8    -27.7854124 -0.274384E-07  0.554E-04    7.94      38.5  T
   9    -27.7854124 -0.759119E-09  0.150E-04    7.94     141.9  T
     SCC iter.                  ...        0 min,  0.015 sec
     gradient                   ...        0 min,  0.002 sec
 * total energy  :   -27.4706592 Eh     change       -0.4796365E-02 Eh
   gradient norm :     0.0298765 Eh/α   predicted    -0.3863904E-02 ( -19.44%)
   displ. norm   :     0.5047824 α      lambda       -0.4847120E-02
   maximum displ.:     0.3704934 α      in ANC's #2, #8, #3, ...

........................................................................
.............................. CYCLE    4 ..............................
........................................................................
   1    -27.7864134 -0.277864E+02  0.263E-01    7.95       0.0  T
   2    -27.7866483 -0.234892E-03  0.154E-01    8.13       1.0  T
   3    -27.7866759 -0.276433E-04  0.536E-02    8.23       1.0  T
   4    -27.7866827 -0.677060E-05  0.275E-02    8.26       1.0  T
   5    -27.7866855 -0.286472E-05  0.207E-02    8.26       1.0  T
   6    -27.7866885 -0.299891E-05  0.103E-02    8.25       2.1  T
   7    -27.7866893 -0.814134E-06  0.269E-03    8.25       7.9  T
   8    -27.7866894 -0.499725E-07  0.110E-03    8.25      19.3  T
   9    -27.7866894 -0.633407E-08  0.640E-04    8.25      33.3  T
  10    -27.7866894 -0.279798E-08  0.373E-04    8.25      57.1  T
     SCC iter.                  ...        0 min,  0.012 sec
     gradient                   ...        0 min,  0.002 sec
 * total energy  :   -27.4739625 Eh     change       -0.3303337E-02 Eh
   gradient norm :     0.0236590 Eh/α   predicted    -0.3041097E-02 (  -7.94%)
   displ. norm   :     0.2607593 α      lambda       -0.1636493E-02
   maximum displ.:     0.1697823 α      in ANC's #2, #8, #5, ...

........................................................................
.............................. CYCLE    5 ..............................
........................................................................
   1    -27.7873405 -0.277873E+02  0.167E-01    8.30       0.0  T
   2    -27.7874679 -0.127360E-03  0.932E-02    8.42       1.0  T
   3    -27.7874808 -0.129054E-04  0.367E-02    8.48       1.0  T
   4    -27.7874837 -0.296028E-05  0.179E-02    8.50       1.2  T
   5    -27.7874850 -0.124841E-05  0.134E-02    8.50       1.6  T
   6    -27.7874863 -0.130297E-05  0.715E-03    8.50       3.0  T
   7    -27.7874868 -0.486232E-06  0.204E-03    8.49      10.5  T
   8    -27.7874868 -0.379313E-07  0.823E-04    8.49      25.9  T
   9    -27.7874868 -0.401944E-08  0.477E-04    8.49      44.7  T
     SCC iter.                  ...        0 min,  0.011 sec
     gradient                   ...        0 min,  0.002 sec
 * total energy  :   -27.4750809 Eh     change       -0.1118350E-02 Eh
   gradient norm :     0.0158857 Eh/α   predicted    -0.8738892E-03 ( -21.86%)
   displ. norm   :     0.1227825 α      lambda       -0.8250509E-03
   maximum displ.:     0.0661748 α      in ANC's #8, #5, #2, ...

........................................................................
.............................. CYCLE    6 ..............................
........................................................................
   1    -27.7887014 -0.277887E+02  0.140E-01    8.56       0.0  T
   2    -27.7888050 -0.103533E-03  0.761E-02    8.66       1.0  T
   3    -27.7888145 -0.957064E-05  0.325E-02    8.70       1.0  T
   4    -27.7888170 -0.242995E-05  0.160E-02    8.71       1.3  T
   5    -27.7888180 -0.102849E-05  0.121E-02    8.71       1.8  T
   6    -27.7888192 -0.120903E-05  0.628E-03    8.71       3.4  T
   7    -27.7888197 -0.466163E-06  0.172E-03    8.71      12.4  T
   8    -27.7888197 -0.318551E-07  0.448E-04    8.70      47.6  T
   9    -27.7888197 -0.883059E-09  0.852E-05    8.70     250.2  T
     SCC iter.                  ...        0 min,  0.011 sec
     gradient                   ...        0 min,  0.002 sec
 * total energy  :   -27.4756788 Eh     change       -0.5978964E-03 Eh
   gradient norm :     0.0112136 Eh/α   predicted    -0.4187591E-03 ( -29.96%)
   displ. norm   :     0.1176849 α      lambda       -0.7677898E-03
   maximum displ.:     0.0553706 α      in ANC's #8, #37, #55, ...

........................................................................
.............................. CYCLE    7 ..............................
........................................................................
   1    -27.7896978 -0.277897E+02  0.151E-01    8.68       0.0  T
   2    -27.7898268 -0.128986E-03  0.820E-02    8.78       1.0  T
   3    -27.7898378 -0.110612E-04  0.342E-02    8.82       1.0  T
   4    -27.7898403 -0.242694E-05  0.155E-02    8.83       1.4  T
   5    -27.7898413 -0.984087E-06  0.115E-02    8.83       1.9  T
   6    -27.7898423 -0.108003E-05  0.627E-03    8.82       3.4  T
   7    -27.7898428 -0.480157E-06  0.223E-03    8.82       9.5  T
   8    -27.7898429 -0.596220E-07  0.488E-04    8.82      43.7  T
   9    -27.7898429 -0.807450E-09  0.140E-04    8.82     151.9  T
     SCC iter.                  ...        0 min,  0.011 sec
     gradient                   ...        0 min,  0.002 sec
 * total energy  :   -27.4762458 Eh     change       -0.5670326E-03 Eh
   gradient norm :     0.0087502 Eh/α   predicted    -0.3892168E-03 ( -31.36%)
   displ. norm   :     0.1578248 α      lambda       -0.7957479E-03
   maximum displ.:     0.0802250 α      in ANC's #37, #55, #40, ...

........................................................................
.............................. CYCLE    8 ..............................
........................................................................
   1    -27.7905656 -0.277906E+02  0.216E-01    8.95       0.0  T
   2    -27.7908230 -0.257362E-03  0.119E-01    9.05       1.0  T
   3    -27.7908481 -0.251823E-04  0.539E-02    9.08       1.0  T
   4    -27.7908560 -0.781369E-05  0.280E-02    9.09       1.0  T
   5    -27.7908594 -0.339089E-05  0.218E-02    9.09       1.0  T
   6    -27.7908642 -0.484037E-05  0.106E-02    9.08       2.0  T
   7    -27.7908656 -0.143672E-05  0.330E-03    9.07       6.5  T
   8    -27.7908657 -0.114587E-06  0.103E-03    9.07      20.6  T
   9    -27.7908657 -0.427868E-08  0.570E-04    9.07      37.4  T
  10    -27.7908657 -0.144259E-08  0.398E-04    9.07      53.5  T
     SCC iter.                  ...        0 min,  0.012 sec
     gradient                   ...        0 min,  0.002 sec
 * total energy  :   -27.4767410 Eh     change       -0.4951370E-03 Eh
   gradient norm :     0.0082692 Eh/α   predicted    -0.4077878E-03 ( -17.64%)
   displ. norm   :     0.1313856 α      lambda       -0.4941486E-03
   maximum displ.:     0.0701075 α      in ANC's #5, #10, #37, ...

........................................................................
.............................. CYCLE    9 ..............................
........................................................................
   1    -27.7906563 -0.277907E+02  0.824E-02    8.93       0.0  T
   2    -27.7906829 -0.266437E-04  0.464E-02    8.96       1.0  T
   3    -27.7906850 -0.208231E-05  0.164E-02    8.98       1.3  T
   4    -27.7906852 -0.192472E-06  0.500E-03    8.98       4.3  T
   5    -27.7906853 -0.819440E-07  0.262E-03    8.98       8.1  T
   6    -27.7906853 -0.251600E-07  0.132E-03    8.98      16.2  T
   7    -27.7906853 -0.108061E-07  0.984E-04    8.98      21.7  T
   8    -27.7906853 -0.132520E-07  0.305E-04    8.98      69.9  T
     SCC iter.                  ...        0 min,  0.010 sec
     gradient                   ...        0 min,  0.002 sec
 * total energy  :   -27.4770403 Eh     change       -0.2992953E-03 Eh
   gradient norm :     0.0062530 Eh/α   predicted    -0.2513407E-03 ( -16.02%)
   displ. norm   :     0.1064008 α      lambda       -0.2521138E-03
   maximum displ.:     0.0482260 α      in ANC's #8, #5, #10, ...

........................................................................
.............................. CYCLE   10 ..............................
........................................................................
   1    -27.7901994 -0.277902E+02  0.584E-02    9.03       0.0  T
   2    -27.7902109 -0.114877E-04  0.338E-02    9.05       1.0  T
   3    -27.7902123 -0.142612E-05  0.138E-02    9.05       1.5  T
   4    -27.7902129 -0.575729E-06  0.789E-03    9.05       2.7  T
   5    -27.7902132 -0.286466E-06  0.613E-03    9.05       3.5  T
   6    -27.7902136 -0.414171E-06  0.287E-03    9.05       7.4  T
   7    -27.7902137 -0.102735E-06  0.128E-03    9.04      16.7  T
   8    -27.7902137 -0.166811E-07  0.307E-04    9.04      69.5  T
   9    -27.7902137 -0.270518E-09  0.202E-04    9.04     105.7  T
     SCC iter.                  ...        0 min,  0.011 sec
     gradient                   ...        0 min,  0.002 sec
 * total energy  :   -27.4772125 Eh     change       -0.1722749E-03 Eh
   gradient norm :     0.0031174 Eh/α   predicted    -0.1274930E-03 ( -25.99%)
   displ. norm   :     0.0855378 α      lambda       -0.1282191E-03
   maximum displ.:     0.0451203 α      in ANC's #8, #5, #10, ...

........................................................................
.............................. CYCLE   11 ..............................
........................................................................
   1    -27.7896186 -0.277896E+02  0.276E-02    9.03       0.0  T
   2    -27.7896198 -0.116242E-05  0.155E-02    9.03       1.4  T
   3    -27.7896199 -0.104074E-06  0.418E-03    9.03       5.1  T
   4    -27.7896199 -0.271238E-07  0.148E-03    9.03      14.4  T
   5    -27.7896199 -0.767221E-08  0.951E-04    9.03      22.4  T
   6    -27.7896199 -0.409649E-08  0.585E-04    9.03      36.5  T
     SCC iter.                  ...        0 min,  0.007 sec
     gradient                   ...        0 min,  0.002 sec
 * total energy  :   -27.4772855 Eh     change       -0.7295720E-04 Eh
   gradient norm :     0.0021662 Eh/α   predicted    -0.6459593E-04 ( -11.46%)
   displ. norm   :     0.0306426 α      lambda       -0.2669834E-04
   maximum displ.:     0.0157113 α      in ANC's #3, #5, #31, ...

........................................................................
.............................. CYCLE   12 ..............................
........................................................................
   1    -27.7897901 -0.277898E+02  0.152E-02    9.06       0.0  T
   2    -27.7897909 -0.806535E-06  0.887E-03    9.06       2.4  T
   3    -27.7897910 -0.150960E-06  0.428E-03    9.06       5.0  T
   4    -27.7897911 -0.735355E-07  0.274E-03    9.06       7.8  T
   5    -27.7897911 -0.405536E-07  0.204E-03    9.06      10.5  T
   6    -27.7897912 -0.489324E-07  0.729E-04    9.06      29.3  T
   7    -27.7897912 -0.545942E-08  0.295E-04    9.06      72.3  T
     SCC iter.                  ...        0 min,  0.009 sec
     gradient                   ...        0 min,  0.002 sec
 * total energy  :   -27.4773034 Eh     change       -0.1793101E-04 Eh
   gradient norm :     0.0014650 Eh/α   predicted    -0.1337627E-04 ( -25.40%)
   displ. norm   :     0.0501286 α      lambda       -0.1818462E-04
   maximum displ.:     0.0376908 α      in ANC's #3, #31, #5, ...

........................................................................
.............................. CYCLE   13 ..............................
........................................................................
   1    -27.7898655 -0.277899E+02  0.169E-02    9.06       0.0  T
   2    -27.7898657 -0.204126E-06  0.980E-03    9.05       2.2  T
   3    -27.7898658 -0.316581E-07  0.218E-03    9.05       9.8  T
   4    -27.7898658 -0.206933E-07  0.133E-03    9.05      16.1  T
   5    -27.7898658 -0.681551E-08  0.933E-04    9.05      22.9  T
   6    -27.7898658 -0.669078E-08  0.354E-04    9.05      60.2  T
     SCC iter.                  ...        0 min,  0.007 sec
     gradient                   ...        0 min,  0.002 sec
 * total energy  :   -27.4773175 Eh     change       -0.1406511E-04 Eh
   gradient norm :     0.0016032 Eh/α   predicted    -0.9104072E-05 ( -35.27%)
   displ. norm   :     0.0275022 α      lambda       -0.6797872E-05
   maximum displ.:     0.0202998 α      in ANC's #3, #8, #10, ...

........................................................................
.............................. CYCLE   14 ..............................
........................................................................
   1    -27.7898697 -0.277899E+02  0.104E-02    9.05       0.0  T
   2    -27.7898701 -0.395813E-06  0.543E-03    9.06       3.9  T
   3    -27.7898701 -0.315480E-07  0.196E-03    9.06      10.9  T
   4    -27.7898701 -0.447268E-08  0.656E-04    9.06      32.5  T
   5    -27.7898701 -0.120841E-08  0.410E-04    9.06      52.0  T
     SCC iter.                  ...        0 min,  0.006 sec
     gradient                   ...        0 min,  0.002 sec
 * total energy  :   -27.4773249 Eh     change       -0.7366644E-05 Eh
   gradient norm :     0.0012808 Eh/α   predicted    -0.3409300E-05 ( -53.72%)
   displ. norm   :     0.0358028 α      lambda       -0.5487642E-05
   maximum displ.:     0.0296112 α      in ANC's #3, #8, #10, ...

........................................................................
.............................. CYCLE   15 ..............................
........................................................................
   1    -27.7898800 -0.277899E+02  0.951E-03    9.04       0.0  T
   2    -27.7898800 -0.375437E-07  0.565E-03    9.04       3.8  T
   3    -27.7898801 -0.151500E-07  0.128E-03    9.04      16.7  T
   4    -27.7898801 -0.102244E-07  0.945E-04    9.04      22.6  T
   5    -27.7898801 -0.713568E-08  0.576E-04    9.04      37.0  T
     SCC iter.                  ...        0 min,  0.006 sec
     gradient                   ...        0 min,  0.002 sec
 * total energy  :   -27.4773290 Eh     change       -0.4178684E-05 Eh
   gradient norm :     0.0004380 Eh/α   predicted    -0.2746448E-05 ( -34.27%)
   displ. norm   :     0.0081846 α      lambda       -0.6932920E-06
   maximum displ.:     0.0051963 α      in ANC's #3, #8, #37, ...

   *** GEOMETRY OPTIMIZATION CONVERGED AFTER 15 ITERATIONS ***

------------------------------------------------------------------------
 total energy gain   :        -0.0174922 Eh      -10.9765 kcal/mol
 total RMSD          :         0.3233356 a0        0.1711 Å
 total power (kW/mol):        -3.0617168 (step) -199.0699 (real)
------------------------------------------------------------------------

 ANCopt (total)                0 d,  0 h,  0 min,  0.231 sec
 optimizer setup                ...        0 min,  0.000 sec (  0.048%)
 model hessian                  ...        0 min,  0.029 sec ( 12.522%)
 ANC generation                 ...        0 min,  0.001 sec (  0.645%)
 coordinate transformation      ...        0 min,  0.000 sec (  0.135%)
 single point calculation       ...        0 min,  0.195 sec ( 84.342%)
 optimization log               ...        0 min,  0.001 sec (  0.594%)
 hessian update                 ...        0 min,  0.000 sec (  0.188%)
 rational function              ...        0 min,  0.002 sec (  0.866%)

================
 final structure:
================
22
 xtb: 6.5.1 (fef0646)
N           -1.74817342741944        0.06814839611240        0.54661870747505
C           -1.01731162288860        0.04439299010390       -0.72808025939234
C           -0.11285145319840        1.27279735255004       -0.84605452478401
C            1.07627160771968        1.21515585532535        0.10767253398596
C            1.87662037547309       -0.06258936242159       -0.11622380574990
C            0.98520495070467       -1.27953758752605        0.10225634943357
C           -0.20473261062117       -1.24614158056956       -0.85161268494644
Cl          -0.61153334806002        0.02191299946196        3.22622163042873
H           -2.30587823042046        0.91361260308774        0.61473006621428
H           -1.04614557365997        0.04018976159841        1.89556334024984
H           -2.36529257421435       -0.73523336351978        0.61117337905049
H           -1.73918350500202        0.07256405049586       -1.56405252994391
H           -0.69950966410626        2.17478171770505       -0.65684070653516
H            0.25285469885865        1.32466737391606       -1.87408313314612
H            0.72551568404901        1.24277940225660        1.13830590013314
H            1.71028159114661        2.08805797539130       -0.05928714254786
H            2.72065272371836       -0.09488773053673        0.57384973496648
H            2.27366038641968       -0.07489338392732       -1.13490942671082
H            0.63316953969577       -1.28598294092179        1.13282585547228
H            1.55391164826115       -2.19562606483165       -0.06857285453631
H           -0.85562462355926       -2.10378320038888       -0.66637436454599
H            0.15649342710352       -1.31996526336126       -1.87987606457083

 Bond Distances (Angstroems)
 ---------------------------
N1-C2=1.4696         N1-H9=1.0151         N1-H11=1.0151        C2-N1=1.4696         C2-C3=1.5300         C2-C7=1.5300         
C2-H12=1.1049        C3-C2=1.5300         C3-C4=1.5254         C3-H13=1.0925        C3-H14=1.0924        C4-C3=1.5254         
C4-C5=1.5242         C4-H15=1.0890        C4-H16=1.0917        C5-C4=1.5242         C5-C6=1.5242         C5-H17=1.0907        
C5-H18=1.0934        C6-C5=1.5242         C6-C7=1.5254         C6-H19=1.0891        C6-H20=1.0917        C7-C2=1.5300         
C7-C6=1.5254         C7-H21=1.0925        C7-H22=1.0924        Cl8-H10=1.4000       H9-N1=1.0151         H10-Cl8=1.4000       
H11-N1=1.0151        H12-C2=1.1049        H13-C3=1.0925        H14-C3=1.0924        H15-C4=1.0890        H16-C4=1.0917        
H17-C5=1.0907        H18-C5=1.0934        H19-C6=1.0891        H20-C6=1.0917        H21-C7=1.0925        H22-C7=1.0924        
 C  H  Rav=1.0927 sigma=0.0041  Rmin=1.0890  Rmax=1.1049    11
 C  C  Rav=1.5266 sigma=0.0025  Rmin=1.5242  Rmax=1.5300     6
 N  H  Rav=1.0151 sigma=0.0000  Rmin=1.0151  Rmax=1.0151     2
 N  C  Rav=1.4696 sigma=0.0000  Rmin=1.4696  Rmax=1.4696     1
 Cl H  Rav=1.4000 sigma=0.0000  Rmin=1.4000  Rmax=1.4000     1

 selected bond angles (degree)
 --------------------
H9-N1-C2=110.18                H11-N1-C2=110.16               H11-N1-H9=108.72               C3-C2-N1=110.36                
C7-C2-N1=110.35                C7-C2-C3=110.92                H12-C2-N1=109.33               H12-C2-C3=107.90               
H12-C2-C7=107.90               C4-C3-C2=112.47                H13-C3-C2=109.39               H13-C3-C4=109.97               
H14-C3-C2=107.97               H14-C3-C4=109.22               H14-C3-H13=107.67              C5-C4-C3=110.44                
H15-C4-C3=109.86               H15-C4-C5=109.23               H16-C4-C3=109.08               H16-C4-C5=110.05               
H16-C4-H15=108.15              C6-C5-C4=109.95                H17-C5-C4=109.77               H17-C5-C6=109.77               
H18-C5-C4=109.69               H18-C5-C6=109.69               H18-C5-H17=107.95              C7-C6-C5=110.43                
H19-C6-C5=109.23               H19-C6-C7=109.86               H20-C6-C5=110.05               H20-C6-C7=109.08               
H20-C6-H19=108.15              C6-C7-C2=112.47                H21-C7-C2=109.39               H21-C7-C6=109.97               
H22-C7-C2=107.98               H22-C7-C6=109.22               H22-C7-H21=107.67              

 selected dihedral angles (degree)
 ---------------------------------
C3-C2-N1-H9= 58.58            C3-C2-N1-H11=178.52           C7-C2-N1-H9=181.53            C7-C2-N1-H11=301.47           
H12-C2-N1-H9=300.05           H12-C2-N1-H11= 59.99          C4-C3-C2-N1= 70.65            C4-C3-C2-C7=308.04            
C4-C3-C2-H12=190.05           H13-C3-C2-N1=308.14           H13-C3-C2-C7=185.53           H13-C3-C2-H12= 67.54          
H14-C3-C2-N1=191.23           H14-C3-C2-C7= 68.62           H14-C3-C2-H12=310.63          C5-C4-C3-C2= 55.95            
C5-C4-C3-H13=178.14           C5-C4-C3-H14=296.09           H15-C4-C3-C2=295.40           H15-C4-C3-H13= 57.59          
H15-C4-C3-H14=175.54          H16-C4-C3-C2=177.02           H16-C4-C3-H13=299.21          H16-C4-C3-H14= 57.16          
C6-C5-C4-C3=301.12            C6-C5-C4-H15= 62.04           C6-C5-C4-H16=180.63           H17-C5-C4-C3=180.27           
H17-C5-C4-H15=301.19          H17-C5-C4-H16= 59.78          H18-C5-C4-C3= 61.82           H18-C5-C4-H15=182.74          
H18-C5-C4-H16=301.33          C7-C6-C5-C4= 58.89            C7-C6-C5-H17=179.73           C7-C6-C5-H18=298.18           
H19-C6-C5-C4=297.96           H19-C6-C5-H17= 58.81          H19-C6-C5-H18=177.26          H20-C6-C5-C4=179.37           
H20-C6-C5-H17=300.22          H20-C6-C5-H18= 58.67          C6-C7-C2-N1=289.35            C6-C7-C2-C3= 51.97            
C6-C7-C2-H12=169.96           H21-C7-C2-N1= 51.86           H21-C7-C2-C3=174.48           H21-C7-C2-H12=292.47          
H22-C7-C2-N1=168.77           H22-C7-C2-C3=291.39           H22-C7-C2-H12= 49.38          C2-C7-C6-C5=304.04            
C2-C7-C6-H19= 64.59           C2-C7-C6-H20=182.97           H21-C7-C6-C5=181.85           H21-C7-C6-H19=302.40          
H21-C7-C6-H20= 60.79          H22-C7-C6-C5= 63.90           H22-C7-C6-H19=184.45          H22-C7-C6-H20=302.84          

 CMA Distance (Angstroems)
 ---------------------------
R(CMA):  3.5172
           -------------------------------------------------
          |                Final Singlepoint                |
           -------------------------------------------------

          ...................................................
          :                      SETUP                      :
          :.................................................:
          :  # basis functions                  52          :
          :  # atomic orbitals                  51          :
          :  # shells                           31          :
          :  # electrons                        50          :
          :  max. iterations                   250          :
          :  Hamiltonian                  GFN2-xTB          :
          :  restarted?                      false          :
          :  GBSA solvation                  false          :
          :  PC potential                    false          :
          :  electronic temp.          300.0000000     K    :
          :  accuracy                    1.0000000          :
          :  -> integral cutoff          0.2500000E+02      :
          :  -> integral neglect         0.1000000E-07      :
          :  -> SCF convergence          0.1000000E-05 Eh   :
          :  -> wf. convergence          0.1000000E-03 e    :
          :  Broyden damping             0.4000000          :
          ...................................................

 iter      E             dE          RMSdq      gap      omega  full diag
   1    -27.7898801 -0.277899E+02  0.255E-04    9.04       0.0  T
   2    -27.7898801 -0.156174E-09  0.196E-04    9.04     108.5  T
   3    -27.7898801 -0.240075E-09  0.113E-04    9.04     187.9  T

   *** convergence criteria satisfied after 3 iterations ***

         #    Occupation            Energy/Eh            Energy/eV
      -------------------------------------------------------------
         1        2.0000           -1.0151994             -27.6250
       ...           ...                  ...                  ...
        19        2.0000           -0.4393615             -11.9556
        20        2.0000           -0.4235447             -11.5252
        21        2.0000           -0.4216532             -11.4738
        22        2.0000           -0.4186183             -11.3912
        23        2.0000           -0.3945652             -10.7367
        24        2.0000           -0.3915692             -10.6551
        25        2.0000           -0.3904611             -10.6250 (HOMO)
        26                         -0.0581136              -1.5814 (LUMO)
        27                          0.0174319               0.4743
        28                          0.0681483               1.8544
        29                          0.0703736               1.9150
        30                          0.0710499               1.9334
       ...                                ...                  ...
        51                          0.3161725               8.6035
      -------------------------------------------------------------
                  HL-Gap            0.3323475 Eh            9.0436 eV
             Fermi-level           -0.2242873 Eh           -6.1032 eV

 SCC (total)                   0 d,  0 h,  0 min,  0.006 sec
 SCC setup                      ...        0 min,  0.000 sec (  1.177%)
 Dispersion                     ...        0 min,  0.000 sec (  2.224%)
 classical contributions        ...        0 min,  0.000 sec (  0.488%)
 integral evaluation            ...        0 min,  0.001 sec ( 11.123%)
 iterations                     ...        0 min,  0.004 sec ( 58.042%)
 molecular gradient             ...        0 min,  0.002 sec ( 23.959%)
 printout                       ...        0 min,  0.000 sec (  1.258%)

         :::::::::::::::::::::::::::::::::::::::::::::::::::::
         ::                     SUMMARY                     ::
         :::::::::::::::::::::::::::::::::::::::::::::::::::::
         :: total energy             -27.477329035362 Eh    ::
         :: gradient norm              0.000433137544 Eh/a0 ::
         :: HOMO-LUMO gap              9.043635591991 eV    ::
         ::.................................................::
         :: SCC energy               -27.789880072196 Eh    ::
         :: -> isotropic ES            0.030028180947 Eh    ::
         :: -> anisotropic ES         -0.005080072080 Eh    ::
         :: -> anisotropic XC          0.008946151677 Eh    ::
         :: -> dispersion             -0.016998602174 Eh    ::
         :: repulsion energy           0.312415182219 Eh    ::
         :: add. restraining           0.000000000000 Eh    ::
         :: total charge              -0.000000000000 e     ::
         :::::::::::::::::::::::::::::::::::::::::::::::::::::

           -------------------------------------------------
          |                Property Printout                |
           -------------------------------------------------

    * Orbital Energies and Occupations

         #    Occupation            Energy/Eh            Energy/eV
      -------------------------------------------------------------
         1        2.0000           -1.0151994             -27.6250
       ...           ...                  ...                  ...
        13        2.0000           -0.4971726             -13.5288
        14        2.0000           -0.4922556             -13.3950
        15        2.0000           -0.4745679             -12.9137
        16        2.0000           -0.4714969             -12.8301
        17        2.0000           -0.4709399             -12.8149
        18        2.0000           -0.4657775             -12.6745
        19        2.0000           -0.4393615             -11.9556
        20        2.0000           -0.4235447             -11.5252
        21        2.0000           -0.4216532             -11.4738
        22        2.0000           -0.4186183             -11.3912
        23        2.0000           -0.3945652             -10.7367
        24        2.0000           -0.3915692             -10.6551
        25        2.0000           -0.3904611             -10.6250 (HOMO)
        26                         -0.0581136              -1.5814 (LUMO)
        27                          0.0174319               0.4743
        28                          0.0681483               1.8544
        29                          0.0703736               1.9150
        30                          0.0710499               1.9334
        31                          0.0746145               2.0304
        32                          0.0757594               2.0615
        33                          0.0764765               2.0810
        34                          0.0879626               2.3936
        35                          0.0998245               2.7164
        36                          0.1050492               2.8585
       ...                                ...                  ...
        51                          0.3161725               8.6035
      -------------------------------------------------------------
                  HL-Gap            0.3323475 Eh            9.0436 eV
             Fermi-level           -0.2242873 Eh           -6.1032 eV

     #   Z          covCN         q      C6AA      α(0)
     1   7 N        2.741    -0.298    27.679     7.814
     2   6 C        3.782     0.052    19.724     6.326
     3   6 C        3.807    -0.065    21.741     6.638
     4   6 C        3.805    -0.068    21.800     6.647
     5   6 C        3.806    -0.058    21.608     6.617
     6   6 C        3.805    -0.068    21.800     6.647
     7   6 C        3.807    -0.065    21.741     6.638
     8  17 Cl       0.833    -0.508   115.948    16.473
     9   1 H        0.860     0.168     1.286     1.776
    10   1 H        0.941     0.333     0.618     1.229
    11   1 H        0.860     0.168     1.286     1.776
    12   1 H        0.922     0.012     2.862     2.646
    13   1 H        0.924     0.032     2.555     2.500
    14   1 H        0.924     0.040     2.451     2.448
    15   1 H        0.925     0.061     2.183     2.310
    16   1 H        0.924     0.033     2.542     2.493
    17   1 H        0.924     0.035     2.513     2.479
    18   1 H        0.924     0.029     2.597     2.520
    19   1 H        0.925     0.061     2.183     2.310
    20   1 H        0.924     0.033     2.542     2.493
    21   1 H        0.924     0.032     2.556     2.500
    22   1 H        0.924     0.040     2.451     2.448

 Mol. C6AA /au·bohr⁶  :       4109.965037
 Mol. C8AA /au·bohr⁸  :      98666.622942
 Mol. α(0) /au        :         95.730328


Wiberg/Mayer (AO) data.
largest (>0.10) Wiberg bond orders for each atom

 ---------------------------------------------------------------------------
     #   Z sym  total        # sym  WBO       # sym  WBO       # sym  WBO
 ---------------------------------------------------------------------------
     1   7 N    3.268 --     2 C    0.986     9 H    0.956    11 H    0.956
                            10 H    0.238
     2   6 C    3.972 --     3 C    0.995     7 C    0.995     1 N    0.986
                            12 H    0.964
     3   6 C    3.996 --     4 C    1.008     2 C    0.995    14 H    0.975
                            13 H    0.975
     4   6 C    3.995 --     5 C    1.009     3 C    1.008    16 H    0.977
                            15 H    0.971
     5   6 C    3.998 --     6 C    1.009     4 C    1.009    18 H    0.977
                            17 H    0.977
     6   6 C    3.995 --     5 C    1.009     7 C    1.008    20 H    0.977
                            19 H    0.971
     7   6 C    3.996 --     6 C    1.008     2 C    0.995    22 H    0.975
                            21 H    0.975
     8  17 Cl   0.750 --    10 H    0.640
     9   1 H    0.972 --     1 N    0.956
    10   1 H    0.889 --     8 Cl   0.640     1 N    0.238
    11   1 H    0.972 --     1 N    0.956
    12   1 H    1.000 --     2 C    0.964
    13   1 H    0.999 --     3 C    0.975
    14   1 H    0.998 --     3 C    0.975
    15   1 H    0.996 --     4 C    0.971
    16   1 H    0.999 --     4 C    0.977
    17   1 H    0.999 --     5 C    0.977
    18   1 H    0.999 --     5 C    0.977
    19   1 H    0.996 --     6 C    0.971
    20   1 H    0.999 --     6 C    0.977
    21   1 H    0.999 --     7 C    0.975
    22   1 H    0.998 --     7 C    0.975
 ---------------------------------------------------------------------------

Topologies differ in total number of bonds
Writing topology from bond orders to xtbtopo.mol

molecular dipole:
                 x           y           z       tot (Debye)
 q only:       -0.531       0.023      -1.866
   full:       -0.763       0.031      -1.614       4.538
molecular quadrupole (traceless):
                xx          xy          yy          xz          yz          zz
 q only:       10.475      -0.162       6.332       1.428      -0.039     -16.808
  q+dip:        8.917      -0.237       2.829       1.594      -0.057     -11.746
   full:        9.015      -0.237       2.929       1.762      -0.062     -11.944

           -------------------------------------------------
          |                Geometry Summary                 |
           -------------------------------------------------

      molecular mass/u    :      135.6352267
   center of mass at/Å    :       -0.1023147       0.0081571       0.6788273
  moments of inertia/u·Å² :        0.2535175E+03   0.4759026E+03   0.5250073E+03
rotational constants/cm⁻¹ :        0.6649495E-01   0.3542245E-01   0.3210933E-01

 * 20 selected distances

     #   Z          #   Z                                           value/Å
     1   7 N        2   6 C                                       1.4695513
     2   6 C        3   6 C                                       1.5300143
     3   6 C        4   6 C                                       1.5254284
     4   6 C        5   6 C                                       1.5242444
     5   6 C        6   6 C                                       1.5242436
     2   6 C        7   6 C                                       1.5300408 (max)
     6   6 C        7   6 C                                       1.5254289
     1   7 N        9   1 H                                       1.0151274
     1   7 N       11   1 H                                       1.0150989 (min)
     2   6 C       12   1 H                                       1.1048722
     3   6 C       13   1 H                                       1.0924952
     3   6 C       14   1 H                                       1.0923711
     4   6 C       15   1 H                                       1.0890354
     4   6 C       16   1 H                                       1.0916971
     5   6 C       17   1 H                                       1.0907041
     5   6 C       18   1 H                                       1.0933951
     6   6 C       19   1 H                                       1.0890566
     6   6 C       20   1 H                                       1.0917089
     7   6 C       21   1 H                                       1.0924848
     7   6 C       22   1 H                                       1.0923644

 * 4 distinct bonds (by element types)

   Z      Z             #   av. dist./Å        max./Å        min./Å
   1 H    6 C          11     1.0927441     1.1048722     1.0890354
   6 C    6 C           6     1.5265667     1.5300408     1.5242436
   1 H    7 N           2     1.0151132     1.0151274     1.0150989
   6 C    7 N           1     1.4695513     1.4695513     1.4695513


optimized geometry written to: xtbopt.xyz


           -------------------------------------------------
          | TOTAL ENERGY              -27.477329035362 Eh   |
          | GRADIENT NORM               0.000433137544 Eh/α |
          | HOMO-LUMO GAP               9.043635591991 eV   |
           -------------------------------------------------

------------------------------------------------------------------------
 * finished run on 2023/01/23 at 13:42:46.746     
------------------------------------------------------------------------
 total:
 * wall-time:     0 d,  0 h,  0 min,  0.291 sec
 *  cpu-time:     0 d,  0 h,  0 min, 28.707 sec
 * ratio c/w:    98.596 speedup
 SCF:
 * wall-time:     0 d,  0 h,  0 min,  0.028 sec
 *  cpu-time:     0 d,  0 h,  0 min,  3.922 sec
 * ratio c/w:   139.875 speedup
 ANC optimizer:
 * wall-time:     0 d,  0 h,  0 min,  0.238 sec
 *  cpu-time:     0 d,  0 h,  0 min, 21.562 sec
 * ratio c/w:    90.540 speedup

