22
 energy: -27.477329035362 gnorm: 0.000433137544 xtb: 6.5.1 (fef0646)
N           -1.74817342741944        0.06814839611240        0.54661870747505
C           -1.01731162288860        0.04439299010390       -0.72808025939234
C           -0.11285145319840        1.27279735255004       -0.84605452478401
C            1.07627160771968        1.21515585532535        0.10767253398596
C            1.87662037547309       -0.06258936242159       -0.11622380574990
C            0.98520495070467       -1.27953758752605        0.10225634943357
C           -0.20473261062117       -1.24614158056956       -0.85161268494644
Cl          -0.61153334806002        0.02191299946196        3.22622163042873
H           -2.30587823042046        0.91361260308774        0.61473006621428
H           -1.04614557365997        0.04018976159841        1.89556334024984
H           -2.36529257421435       -0.73523336351978        0.61117337905049
H           -1.73918350500202        0.07256405049586       -1.56405252994391
H           -0.69950966410626        2.17478171770505       -0.65684070653516
H            0.25285469885865        1.32466737391606       -1.87408313314612
H            0.72551568404901        1.24277940225660        1.13830590013314
H            1.71028159114661        2.08805797539130       -0.05928714254786
H            2.72065272371836       -0.09488773053673        0.57384973496648
H            2.27366038641968       -0.07489338392732       -1.13490942671082
H            0.63316953969577       -1.28598294092179        1.13282585547228
H            1.55391164826115       -2.19562606483165       -0.06857285453631
H           -0.85562462355926       -2.10378320038888       -0.66637436454599
H            0.15649342710352       -1.31996526336126       -1.87987606457083
