 Entering Gaussian System
 *********************************************
 Gaussian 98:
 frequency output generated by the xtb code
 *********************************************
                         Standard orientation:
 --------------------------------------------------------------------
  Center     Atomic     Atomic              Coordinates (Angstroms)
  Number     Number      Type              X           Y           Z
 --------------------------------------------------------------------
    1          7             0       -1.844178    0.000081    0.559246
    2          6             0       -0.813102    0.007933   -0.523557
    3          6             0        0.120725    1.234909   -0.418773
    4          6             0        1.391275    0.765713    0.325224
    5          6             0        1.365807   -0.782557    0.344907
    6          6             0        0.114302   -1.226101   -0.442888
    7          1             0       -2.448214    0.832524    0.509207
    8          1             0       -1.401145   -0.009990    1.487835
    9          1             0       -2.452543   -0.828096    0.492280
   10          1             0       -1.342385    0.018644   -1.492525
   11          1             0       -0.377509    2.056982    0.106408
   12          1             0        0.373484    1.611286   -1.417384
   13          1             0        1.414421    1.166015    1.346443
   14          1             0        2.297576    1.143858   -0.164080
   15          1             0        1.322799   -1.154355    1.375768
   16          1             0        2.281014   -1.205932   -0.088456
   17          1             0       -0.396321   -2.065168    0.042475
   18          1             0        0.390277   -1.565835   -1.448069
 --------------------------------------------------------------------
     1 basis functions        1 primitive gaussians
     1 alpha electrons        1 beta electrons

 Harmonic frequencies (cm**-1), IR intensities (km*mol⁻¹),
 Raman scattering activities (A**4/amu), Raman depolarization ratios,
 reduced masses (AMU), force constants (mDyne/A) and normal coordinates:
                      1                      2                      3
                        a                      a                      a 
 Frequencies --   109.2772               127.0516               181.5107
 Red. masses --     6.0691                 8.0587                 1.1999
 Frc consts  --     0.0000                 0.0000                 0.0000
 IR Inten    --     1.9910                10.8112                 0.1245
 Raman Activ --     0.0000                 0.0000                 0.0000
 Depolar     --     0.0000                 0.0000                 0.0000
 Atom AN      X      Y      Z        X      Y      Z        X      Y      Z
   1   7     0.12   0.16   0.09     0.38  -0.06   0.26     0.00   0.04   0.00
   2   6    -0.01  -0.04  -0.03    -0.03   0.02  -0.11    -0.00   0.03  -0.00
   3   6     0.06  -0.09  -0.23     0.01  -0.02  -0.24     0.00   0.02   0.06
   4   6    -0.29   0.02   0.39    -0.16  -0.00   0.07     0.02  -0.05   0.02
   5   6     0.15  -0.00  -0.27    -0.32  -0.00   0.28    -0.02  -0.05  -0.02
   6   6    -0.04  -0.06   0.03     0.04   0.07  -0.31    -0.00   0.02  -0.06
   7   1     0.04   0.04   0.01     0.10  -0.02   0.15    -0.36  -0.27  -0.34
   8   1     0.07   0.08   0.01     0.21  -0.03   0.02     0.00   0.58   0.01
   9   1     0.02   0.04   0.08     0.10  -0.02   0.12     0.36  -0.28   0.34
  10   1    -0.03  -0.03   0.00    -0.08   0.01   0.01    -0.00   0.00   0.00
  11   1    -0.00   0.06  -0.21    -0.00   0.04  -0.14     0.00  -0.01   0.04
  12   1     0.13  -0.16  -0.09     0.06  -0.07  -0.08    -0.00   0.03   0.03
  13   1    -0.31  -0.11   0.16    -0.08   0.04   0.00     0.02  -0.02   0.01
  14   1    -0.03   0.14   0.33    -0.01  -0.05   0.05     0.00  -0.02  -0.00
  15   1     0.20  -0.13  -0.12    -0.26   0.04   0.09    -0.02  -0.02  -0.01
  16   1     0.03   0.13  -0.24    -0.04  -0.05   0.23    -0.00  -0.02   0.00
  17   1    -0.00   0.02   0.08    -0.00  -0.05  -0.24    -0.00  -0.01  -0.04
  18   1    -0.07  -0.08   0.01     0.12   0.15  -0.10     0.00   0.03  -0.03
                      4                      5                      6
                        a                      a                      a 
 Frequencies --   361.8304               371.8531               640.1537
 Red. masses --     7.9922                 7.7594                 9.9208
 Frc consts  --     0.0000                 0.0000                 0.0000
 IR Inten    --    13.0567                11.4448                 0.5421
 Raman Activ --     0.0000                 0.0000                 0.0000
 Depolar     --     0.0000                 0.0000                 0.0000
 Atom AN      X      Y      Z        X      Y      Z        X      Y      Z
   1   7    -0.03  -0.46   0.00    -0.47   0.03   0.14     0.00   0.02  -0.01
   2   6    -0.01   0.29   0.02    -0.10  -0.02   0.32    -0.03   0.23  -0.03
   3   6     0.29   0.13  -0.20     0.16  -0.16  -0.16    -0.20   0.21  -0.19
   4   6     0.12   0.03   0.01     0.13  -0.01   0.00    -0.29  -0.35  -0.17
   5   6    -0.10   0.03  -0.01     0.13   0.00   0.01     0.30  -0.35   0.20
   6   6    -0.27   0.15   0.18     0.21   0.15  -0.19     0.19   0.27   0.21
   7   1    -0.16  -0.23   0.11    -0.11   0.01  -0.06    -0.05  -0.03   0.08
   8   1    -0.02  -0.18   0.00    -0.26   0.01   0.10     0.02  -0.05  -0.01
   9   1     0.14  -0.22  -0.12    -0.13   0.02  -0.04     0.05  -0.03  -0.06
  10   1    -0.00   0.12   0.01    -0.05  -0.01   0.10    -0.01  -0.05  -0.01
  11   1     0.13   0.13  -0.16     0.11   0.08  -0.19     0.01   0.04   0.05
  12   1     0.13  -0.10  -0.10     0.07  -0.24  -0.12    -0.08   0.13  -0.03
  13   1    -0.01   0.01   0.00    -0.01   0.00  -0.00    -0.13  -0.07  -0.06
  14   1     0.07  -0.02   0.05     0.05   0.01   0.03    -0.07  -0.08  -0.01
  15   1     0.01   0.01   0.00    -0.02   0.00   0.00     0.18  -0.11   0.06
  16   1    -0.06  -0.02  -0.04     0.05  -0.02   0.04     0.06  -0.06  -0.04
  17   1    -0.12   0.12   0.14     0.13  -0.09  -0.21    -0.01   0.04  -0.07
  18   1    -0.12  -0.07   0.08     0.09   0.27  -0.12     0.10   0.17   0.04
                      7                      8                      9
                        a                      a                      a 
 Frequencies --   667.8906               788.5449               824.8082
 Red. masses --     9.1815                 5.8454                 4.0788
 Frc consts  --     0.0000                 0.0000                 0.0000
 IR Inten    --     9.1117                 7.6793                 0.2522
 Raman Activ --     0.0000                 0.0000                 0.0000
 Depolar     --     0.0000                 0.0000                 0.0000
 Atom AN      X      Y      Z        X      Y      Z        X      Y      Z
   1   7     0.05   0.00   0.05    -0.31   0.00   0.26    -0.04  -0.00   0.02
   2   6     0.41   0.02   0.37    -0.10   0.01  -0.29    -0.01   0.18  -0.03
   3   6     0.02   0.40  -0.10     0.13   0.14  -0.15    -0.19   0.05   0.20
   4   6    -0.23   0.04  -0.14     0.13  -0.02  -0.04    -0.16  -0.08   0.07
   5   6    -0.17  -0.10  -0.11     0.14  -0.01  -0.03     0.17  -0.09  -0.03
   6   6     0.06  -0.36  -0.07     0.15  -0.12  -0.12     0.22  -0.02  -0.21
   7   1     0.02  -0.00  -0.16    -0.10  -0.01   0.16     0.01   0.01   0.01
   8   1    -0.27  -0.00   0.15     0.05  -0.00   0.00     0.03   0.03  -0.01
   9   1     0.03   0.00  -0.17    -0.08  -0.00   0.15    -0.03   0.01   0.04
  10   1     0.09  -0.00   0.11    -0.06  -0.01  -0.06     0.00   0.10  -0.01
  11   1    -0.01   0.09  -0.00     0.04  -0.10   0.19    -0.00   0.24  -0.26
  12   1    -0.05   0.11  -0.05    -0.04   0.29   0.03     0.14  -0.33  -0.03
  13   1    -0.13  -0.06  -0.01    -0.22  -0.13   0.05     0.22   0.02  -0.01
  14   1    -0.01   0.01   0.06     0.12   0.12   0.24    -0.16  -0.06  -0.22
  15   1    -0.12   0.04  -0.01    -0.20   0.13   0.03    -0.18  -0.01  -0.01
  16   1     0.01  -0.01   0.08     0.10  -0.11   0.23     0.15  -0.01   0.20
  17   1    -0.01  -0.07  -0.00     0.04   0.08   0.17    -0.00   0.20   0.25
  18   1    -0.04  -0.09  -0.04    -0.03  -0.25   0.02    -0.11  -0.35   0.01
                     10                     11                     12
                        a                      a                      a 
 Frequencies --   844.0216               897.8745               900.2704
 Red. masses --     6.3218                 5.2688                 5.3976
 Frc consts  --     0.0000                 0.0000                 0.0000
 IR Inten    --    13.9164                13.2147                25.2145
 Raman Activ --     0.0000                 0.0000                 0.0000
 Depolar     --     0.0000                 0.0000                 0.0000
 Atom AN      X      Y      Z        X      Y      Z        X      Y      Z
   1   7    -0.26  -0.01   0.11    -0.00  -0.01   0.30    -0.00  -0.34  -0.01
   2   6    -0.02  -0.03  -0.18     0.21  -0.00  -0.22    -0.00  -0.22   0.00
   3   6     0.10   0.36  -0.06     0.05  -0.21  -0.16    -0.01   0.31  -0.04
   4   6     0.01   0.12   0.15    -0.07  -0.07   0.12     0.10  -0.05   0.03
   5   6    -0.05  -0.08   0.15    -0.07   0.08   0.12    -0.08  -0.06  -0.04
   6   6     0.03  -0.37  -0.04     0.04   0.21  -0.16    -0.00   0.30   0.05
   7   1    -0.07   0.00   0.15     0.02  -0.01  -0.16     0.34   0.14  -0.34
   8   1     0.13   0.00  -0.07    -0.37   0.00   0.25     0.00   0.16  -0.00
   9   1    -0.08  -0.00   0.16    -0.00   0.02  -0.15    -0.34   0.13   0.34
  10   1     0.02  -0.01  -0.06    -0.11   0.00   0.03     0.00  -0.15  -0.00
  11   1    -0.03   0.11  -0.09    -0.09  -0.21   0.10     0.04   0.13  -0.04
  12   1     0.12   0.07  -0.01    -0.00   0.17   0.04     0.01   0.01  -0.04
  13   1     0.24   0.18  -0.02     0.09   0.17  -0.05     0.02  -0.06   0.03
  14   1    -0.01  -0.18  -0.16    -0.03  -0.19  -0.12     0.07  -0.05   0.05
  15   1     0.26  -0.19  -0.01     0.09  -0.17  -0.04    -0.03  -0.04  -0.02
  16   1    -0.03   0.19  -0.21    -0.02   0.18  -0.13    -0.07  -0.08  -0.04
  17   1    -0.02  -0.16  -0.15    -0.10   0.21   0.11    -0.05   0.13   0.05
  18   1     0.14   0.00  -0.01    -0.01  -0.18   0.03    -0.01   0.01   0.04
                     13                     14                     15
                        a                      a                      a 
 Frequencies --   942.6422               987.4770              1004.7642
 Red. masses --     8.9235                 6.0653                 8.0668
 Frc consts  --     0.0000                 0.0000                 0.0000
 IR Inten    --     4.2947                20.9713                17.5666
 Raman Activ --     0.0000                 0.0000                 0.0000
 Depolar     --     0.0000                 0.0000                 0.0000
 Atom AN      X      Y      Z        X      Y      Z        X      Y      Z
   1   7     0.11   0.00   0.00    -0.01  -0.16  -0.00    -0.27   0.01   0.13
   2   6    -0.06   0.01  -0.02     0.02   0.19   0.00     0.60  -0.01  -0.10
   3   6    -0.27   0.06  -0.11     0.17  -0.18   0.16    -0.05  -0.18   0.08
   4   6     0.33   0.37   0.15    -0.20   0.06  -0.27    -0.06   0.17  -0.09
   5   6     0.32  -0.37   0.16     0.19   0.04   0.26    -0.08  -0.17  -0.10
   6   6    -0.26  -0.07  -0.13    -0.17  -0.17  -0.16    -0.03   0.19   0.09
   7   1     0.03  -0.01  -0.10     0.15   0.06  -0.15    -0.08  -0.00   0.19
   8   1    -0.13  -0.00   0.08     0.01   0.09  -0.01     0.14  -0.00  -0.07
   9   1     0.04   0.00  -0.11    -0.16   0.06   0.17    -0.07  -0.01   0.17
  10   1    -0.11   0.00   0.04     0.01   0.35   0.00     0.27  -0.02  -0.08
  11   1    -0.20  -0.01  -0.09     0.22   0.01   0.11    -0.20  -0.08  -0.12
  12   1    -0.10  -0.00  -0.04    -0.06  -0.08   0.00     0.02  -0.08   0.01
  13   1     0.02   0.11   0.04    -0.23   0.06  -0.08    -0.02  -0.03   0.00
  14   1     0.06   0.18   0.04    -0.05   0.13   0.03    -0.06   0.15  -0.02
  15   1     0.01  -0.09   0.05     0.21   0.06   0.09    -0.04   0.03  -0.00
  16   1     0.06  -0.19   0.06     0.06   0.12  -0.02    -0.07  -0.15  -0.02
  17   1    -0.20   0.02  -0.09    -0.23   0.02  -0.12    -0.20   0.09  -0.11
  18   1    -0.09  -0.01  -0.05     0.07  -0.08   0.00     0.03   0.08   0.02
                     16                     17                     18
                        a                      a                      a 
 Frequencies --  1030.4329              1061.5498              1116.7871
 Red. masses --     5.2478                 6.3704                 9.5801
 Frc consts  --     0.0000                 0.0000                 0.0000
 IR Inten    --    15.1269                 3.4630                 3.3987
 Raman Activ --     0.0000                 0.0000                 0.0000
 Depolar     --     0.0000                 0.0000                 0.0000
 Atom AN      X      Y      Z        X      Y      Z        X      Y      Z
   1   7    -0.08   0.00  -0.23     0.00  -0.06   0.01    -0.06   0.00  -0.01
   2   6     0.06  -0.01   0.41     0.01  -0.13  -0.02     0.24  -0.01   0.06
   3   6     0.05  -0.10  -0.21     0.31   0.04  -0.07    -0.30   0.08  -0.12
   4   6    -0.02   0.09   0.10    -0.33   0.01   0.11     0.21  -0.45   0.09
   5   6    -0.01  -0.09   0.09     0.34   0.02  -0.11     0.20   0.44   0.10
   6   6     0.03   0.11  -0.20    -0.32   0.03   0.09    -0.29  -0.07  -0.13
   7   1    -0.02   0.02   0.14     0.03   0.01  -0.04    -0.02   0.00   0.05
   8   1     0.28   0.00  -0.20    -0.01   0.00   0.01     0.05  -0.00  -0.03
   9   1    -0.02  -0.02   0.14    -0.03   0.01   0.04    -0.01  -0.01   0.05
  10   1     0.12  -0.01   0.06     0.00  -0.05  -0.00     0.08  -0.01   0.01
  11   1     0.05  -0.13   0.15    -0.06  -0.11   0.04    -0.14   0.02  -0.09
  12   1    -0.25   0.11  -0.07     0.24   0.20   0.09    -0.07  -0.02  -0.05
  13   1    -0.05   0.26  -0.06     0.16   0.09  -0.01     0.03  -0.15   0.04
  14   1     0.06  -0.16   0.00    -0.20  -0.03  -0.21     0.10  -0.15   0.08
  15   1    -0.07  -0.25  -0.06    -0.17   0.12   0.01     0.05   0.13   0.03
  16   1     0.07   0.14   0.02     0.20  -0.03   0.23     0.10   0.18   0.07
  17   1     0.05   0.11   0.15     0.04  -0.11  -0.06    -0.15  -0.01  -0.10
  18   1    -0.27  -0.09  -0.09    -0.22   0.22  -0.09    -0.06   0.02  -0.04
                     19                     20                     21
                        a                      a                      a 
 Frequencies --  1133.4738              1174.2712              1195.2117
 Red. masses --     7.2155                 2.9146                 3.9285
 Frc consts  --     0.0000                 0.0000                 0.0000
 IR Inten    --    18.2380                 0.7888                 7.2634
 Raman Activ --     0.0000                 0.0000                 0.0000
 Depolar     --     0.0000                 0.0000                 0.0000
 Atom AN      X      Y      Z        X      Y      Z        X      Y      Z
   1   7     0.00   0.16   0.00    -0.00   0.01   0.01    -0.01   0.01  -0.14
   2   6    -0.01  -0.45  -0.01     0.02  -0.15  -0.01    -0.13  -0.02   0.34
   3   6     0.16   0.18   0.25     0.04   0.09   0.09     0.12  -0.00  -0.18
   4   6    -0.07   0.02  -0.21     0.02  -0.04  -0.23    -0.05  -0.04   0.05
   5   6     0.06   0.01   0.20    -0.01  -0.03   0.24    -0.04   0.04   0.06
   6   6    -0.14   0.19  -0.24    -0.06   0.09  -0.09     0.11   0.02  -0.19
   7   1    -0.14  -0.06   0.13     0.00   0.00  -0.01    -0.00   0.01   0.03
   8   1    -0.00  -0.09   0.00    -0.00   0.00   0.00     0.10  -0.00  -0.08
   9   1     0.14  -0.05  -0.13    -0.00   0.00   0.01     0.00  -0.01   0.03
  10   1    -0.01  -0.41  -0.00     0.01   0.41   0.00    -0.11   0.02   0.13
  11   1     0.16   0.16  -0.00    -0.41  -0.07  -0.21    -0.24  -0.17  -0.03
  12   1     0.09  -0.10   0.02     0.21   0.03   0.08     0.20   0.20   0.08
  13   1    -0.12  -0.03  -0.04    -0.13  -0.07  -0.03     0.19  -0.24   0.10
  14   1     0.01   0.07   0.05     0.09  -0.01   0.09    -0.16   0.18  -0.11
  15   1     0.11  -0.04   0.04     0.11  -0.09   0.04     0.20   0.24   0.11
  16   1     0.00   0.07  -0.04    -0.08  -0.03  -0.09    -0.16  -0.19  -0.11
  17   1    -0.16   0.15   0.00     0.43  -0.10   0.22    -0.21   0.16  -0.01
  18   1    -0.09  -0.10  -0.02    -0.24   0.04  -0.09     0.20  -0.20   0.07
                     22                     23                     24
                        a                      a                      a 
 Frequencies --  1215.5630              1220.7126              1251.5870
 Red. masses --     2.7887                 2.6417                 4.0076
 Frc consts  --     0.0000                 0.0000                 0.0000
 IR Inten    --     2.8290                 1.6181                 1.5307
 Raman Activ --     0.0000                 0.0000                 0.0000
 Depolar     --     0.0000                 0.0000                 0.0000
 Atom AN      X      Y      Z        X      Y      Z        X      Y      Z
   1   7    -0.02   0.04   0.04     0.02   0.03  -0.04     0.00   0.10   0.00
   2   6     0.11  -0.14  -0.07    -0.12  -0.11   0.08    -0.00  -0.43  -0.01
   3   6    -0.05   0.05  -0.04     0.06   0.04   0.15     0.08   0.13  -0.09
   4   6    -0.12  -0.04   0.23    -0.07   0.04  -0.04    -0.03   0.01   0.04
   5   6     0.12   0.07  -0.00     0.10  -0.02  -0.24     0.03  -0.02  -0.05
   6   6    -0.08   0.04  -0.14     0.05   0.04   0.07    -0.07   0.14   0.10
   7   1    -0.03  -0.01   0.03    -0.03  -0.01   0.01    -0.07  -0.03   0.04
   8   1    -0.01  -0.02   0.01     0.02  -0.01  -0.02    -0.00  -0.05   0.00
   9   1     0.03  -0.02  -0.02     0.02  -0.00  -0.02     0.06  -0.02  -0.04
  10   1     0.06   0.14  -0.03    -0.07   0.13   0.04    -0.01   0.55   0.01
  11   1     0.25   0.09   0.10    -0.27  -0.06  -0.12     0.07   0.03   0.03
  12   1    -0.24  -0.07  -0.10     0.09  -0.02   0.05    -0.30  -0.05  -0.14
  13   1    -0.00   0.22  -0.03    -0.20   0.31  -0.12     0.17  -0.21   0.09
  14   1    -0.03  -0.15  -0.05     0.29  -0.51   0.17    -0.08   0.08  -0.06
  15   1     0.17   0.32   0.11    -0.04   0.15  -0.01    -0.15  -0.18  -0.08
  16   1    -0.29  -0.52  -0.15     0.06  -0.07   0.07     0.11   0.12   0.08
  17   1     0.21  -0.05   0.09    -0.25   0.09  -0.11    -0.07   0.04  -0.03
  18   1    -0.01  -0.04  -0.02     0.25  -0.06   0.11     0.27  -0.04   0.14
                     25                     26                     27
                        a                      a                      a 
 Frequencies --  1298.8369              1301.4529              1318.6841
 Red. masses --     2.9205                 3.8372                 3.0064
 Frc consts  --     0.0000                 0.0000                 0.0000
 IR Inten    --     5.6183                 0.8783                 3.7301
 Raman Activ --     0.0000                 0.0000                 0.0000
 Depolar     --     0.0000                 0.0000                 0.0000
 Atom AN      X      Y      Z        X      Y      Z        X      Y      Z
   1   7    -0.00   0.00   0.12    -0.00  -0.02  -0.00    -0.03   0.00  -0.13
   2   6    -0.11  -0.01   0.16     0.01   0.17   0.00     0.16  -0.01  -0.02
   3   6    -0.20  -0.04  -0.10     0.26   0.08   0.11     0.02   0.07   0.07
   4   6     0.08  -0.05  -0.02     0.05  -0.14   0.06     0.09  -0.22   0.01
   5   6     0.07   0.04  -0.02    -0.05  -0.15  -0.06     0.08   0.22   0.01
   6   6    -0.21   0.05  -0.09    -0.26   0.08  -0.12     0.01  -0.07   0.08
   7   1     0.04   0.02  -0.08     0.02   0.01  -0.01    -0.02  -0.00   0.09
   8   1     0.03  -0.00   0.01     0.00   0.01  -0.00     0.01  -0.00  -0.04
   9   1     0.04  -0.02  -0.09    -0.02   0.01   0.02    -0.02  -0.00   0.09
  10   1     0.48   0.01  -0.23    -0.01  -0.26   0.00    -0.44   0.01   0.25
  11   1     0.13   0.06   0.04    -0.29  -0.10  -0.12    -0.03   0.03  -0.03
  12   1     0.36   0.14   0.14    -0.36  -0.10  -0.13     0.07   0.01   0.03
  13   1    -0.11   0.18  -0.07    -0.08   0.13  -0.05    -0.22   0.30  -0.13
  14   1    -0.05   0.11  -0.03    -0.11   0.15  -0.07    -0.17   0.26  -0.10
  15   1    -0.13  -0.20  -0.09     0.08   0.13   0.05    -0.25  -0.32  -0.14
  16   1    -0.02  -0.07  -0.01     0.12   0.16   0.08    -0.15  -0.21  -0.09
  17   1     0.13  -0.06   0.04     0.30  -0.10   0.12    -0.04  -0.02  -0.04
  18   1     0.37  -0.15   0.15     0.36  -0.11   0.13     0.08  -0.01   0.04
                     28                     29                     30
                        a                      a                      a 
 Frequencies --  1332.8659              1337.8457              1383.7406
 Red. masses --     4.4196                 4.2749                 2.9951
 Frc consts  --     0.0000                 0.0000                 0.0000
 IR Inten    --     0.1454                17.2127               211.8020
 Raman Activ --     0.0000                 0.0000                 0.0000
 Depolar     --     0.0000                 0.0000                 0.0000
 Atom AN      X      Y      Z        X      Y      Z        X      Y      Z
   1   7    -0.00  -0.03  -0.00    -0.08   0.00  -0.11     0.28   0.00  -0.27
   2   6     0.00   0.19   0.00     0.28  -0.00   0.01    -0.05  -0.00   0.03
   3   6     0.11  -0.06   0.05    -0.24  -0.10  -0.06    -0.02  -0.00  -0.02
   4   6    -0.21   0.23  -0.13    -0.03   0.17  -0.04     0.00   0.01   0.00
   5   6     0.22   0.23   0.13    -0.03  -0.17  -0.04     0.00  -0.01   0.00
   6   6    -0.12  -0.05  -0.05    -0.23   0.10  -0.06    -0.02   0.00  -0.03
   7   1     0.02   0.01  -0.00     0.02   0.03   0.08    -0.25  -0.17   0.42
   8   1     0.00   0.03  -0.00     0.03   0.00  -0.05    -0.48  -0.00   0.22
   9   1    -0.02   0.01   0.00     0.02  -0.04   0.08    -0.25   0.16   0.42
  10   1    -0.00  -0.22  -0.00    -0.41  -0.00   0.26     0.14   0.00  -0.07
  11   1    -0.09  -0.07  -0.01     0.26   0.08   0.12     0.02  -0.00   0.02
  12   1    -0.15  -0.07  -0.05     0.28   0.04   0.10     0.04   0.01   0.01
  13   1     0.16  -0.36   0.12     0.09  -0.10   0.04    -0.00  -0.01   0.00
  14   1     0.14  -0.28   0.07     0.12  -0.14   0.09     0.01  -0.01  -0.00
  15   1    -0.18  -0.36  -0.12     0.09   0.10   0.05    -0.00   0.01   0.00
  16   1    -0.14  -0.28  -0.07     0.12   0.13   0.09     0.01   0.01  -0.00
  17   1     0.09  -0.07   0.01     0.25  -0.08   0.12     0.02   0.00   0.02
  18   1     0.16  -0.07   0.06     0.25  -0.04   0.10     0.04  -0.01   0.01
                     31                     32                     33
                        a                      a                      a 
 Frequencies --  1435.8913              1437.9939              1480.3186
 Red. masses --     1.6563                 1.6332                 1.8715
 Frc consts  --     0.0000                 0.0000                 0.0000
 IR Inten    --    79.7342                74.1428                 4.1595
 Raman Activ --     0.0000                 0.0000                 0.0000
 Depolar     --     0.0000                 0.0000                 0.0000
 Atom AN      X      Y      Z        X      Y      Z        X      Y      Z
   1   7    -0.01   0.21  -0.01     0.16   0.02   0.13     0.00  -0.04  -0.00
   2   6    -0.00   0.06  -0.00     0.05   0.00   0.02     0.00   0.02   0.00
   3   6    -0.01   0.02  -0.01    -0.03   0.02  -0.02    -0.03   0.15  -0.06
   4   6     0.00   0.01   0.00    -0.00   0.00  -0.00    -0.03  -0.03  -0.02
   5   6    -0.00   0.01  -0.00    -0.00  -0.00  -0.00     0.03  -0.04   0.02
   6   6     0.01   0.02   0.02    -0.02  -0.01  -0.02     0.03   0.19   0.09
   7   1    -0.06  -0.04  -0.41    -0.48  -0.38  -0.28     0.01   0.01   0.06
   8   1    -0.03  -0.71   0.00     0.28  -0.06  -0.11     0.00   0.12  -0.00
   9   1     0.14  -0.12   0.45    -0.46   0.37  -0.20    -0.03   0.02  -0.07
  10   1     0.01  -0.02  -0.00    -0.06  -0.00   0.04    -0.00   0.01   0.00
  11   1    -0.02  -0.05   0.06     0.02  -0.03   0.06    -0.07  -0.25   0.33
  12   1     0.03  -0.07  -0.02     0.04  -0.05  -0.01     0.16  -0.35  -0.10
  13   1    -0.01  -0.01   0.00     0.01   0.01  -0.00     0.10   0.06  -0.03
  14   1    -0.00  -0.01  -0.01     0.00   0.01   0.01     0.03   0.06   0.10
  15   1     0.00  -0.01  -0.00     0.02  -0.01  -0.00    -0.11   0.08   0.03
  16   1    -0.00  -0.01   0.01     0.00  -0.01   0.01    -0.02   0.07  -0.11
  17   1     0.02  -0.05  -0.07     0.02   0.02   0.05     0.09  -0.29  -0.41
  18   1    -0.04  -0.08   0.01     0.04   0.04  -0.00    -0.19  -0.44   0.10
                     34                     35                     36
                        a                      a                      a 
 Frequencies --  1484.1912              1510.3658              1527.6924
 Red. masses --     1.8804                 1.9024                 1.9193
 Frc consts  --     0.0000                 0.0000                 0.0000
 IR Inten    --     7.2562                 5.7616                 6.4352
 Raman Activ --     0.0000                 0.0000                 0.0000
 Depolar     --     0.0000                 0.0000                 0.0000
 Atom AN      X      Y      Z        X      Y      Z        X      Y      Z
   1   7    -0.03  -0.00   0.00    -0.00  -0.01  -0.00    -0.01  -0.00   0.01
   2   6    -0.01   0.00  -0.02     0.00   0.00  -0.00     0.00   0.00   0.00
   3   6    -0.03   0.19  -0.07    -0.01   0.06  -0.02    -0.01   0.04  -0.01
   4   6    -0.03  -0.03  -0.02     0.14   0.10   0.08     0.14   0.11   0.08
   5   6    -0.02   0.02  -0.01    -0.14   0.11  -0.09     0.13  -0.11   0.09
   6   6    -0.02  -0.16  -0.07     0.01   0.05   0.02    -0.01  -0.04  -0.01
   7   1     0.06   0.05   0.03     0.01   0.01   0.03     0.00   0.00  -0.01
   8   1    -0.02   0.01   0.01    -0.00   0.05   0.00     0.02   0.00  -0.01
   9   1     0.06  -0.05   0.01    -0.01   0.01  -0.03     0.00  -0.00  -0.01
  10   1     0.04   0.00  -0.03     0.00   0.01  -0.00     0.00   0.00  -0.00
  11   1    -0.09  -0.30   0.40    -0.01  -0.07   0.11    -0.01  -0.05   0.08
  12   1     0.19  -0.45  -0.13     0.07  -0.11  -0.02     0.05  -0.08  -0.02
  13   1     0.09   0.07  -0.03    -0.40  -0.19   0.09    -0.41  -0.22   0.10
  14   1     0.02   0.07   0.09    -0.13  -0.19  -0.39    -0.12  -0.23  -0.40
  15   1     0.05  -0.05  -0.02     0.41  -0.21  -0.06    -0.39   0.23   0.07
  16   1     0.01  -0.04   0.06     0.10  -0.20   0.42    -0.09   0.22  -0.40
  17   1    -0.08   0.24   0.34     0.01  -0.06  -0.10    -0.01   0.05   0.08
  18   1     0.16   0.37  -0.09    -0.06  -0.09   0.01     0.05   0.07  -0.01
                     37                     38                     39
                        a                      a                      a 
 Frequencies --  2878.9395              2918.2605              2931.2992
 Red. masses --     1.7778                 1.9461                 1.9791
 Frc consts  --     0.0000                 0.0000                 0.0000
 IR Inten    --     5.7837                 0.2363                 9.9646
 Raman Activ --     0.0000                 0.0000                 0.0000
 Depolar     --     0.0000                 0.0000                 0.0000
 Atom AN      X      Y      Z        X      Y      Z        X      Y      Z
   1   7     0.00   0.00  -0.00    -0.00   0.00   0.00     0.00   0.00   0.00
   2   6    -0.13   0.00  -0.23    -0.00  -0.00  -0.00    -0.00   0.00  -0.01
   3   6    -0.01  -0.00   0.02     0.02  -0.01  -0.05     0.05  -0.03  -0.10
   4   6     0.00   0.00  -0.00    -0.09   0.02   0.18    -0.07   0.02   0.16
   5   6     0.00  -0.00   0.00     0.10   0.00  -0.17    -0.10   0.00   0.16
   6   6    -0.01   0.00   0.01    -0.02  -0.01   0.04     0.04   0.03  -0.08
   7   1     0.00   0.00  -0.00    -0.00  -0.00   0.00    -0.00   0.00   0.00
   8   1    -0.01   0.00  -0.02    -0.00   0.00   0.00     0.00  -0.00  -0.00
   9   1     0.00  -0.00  -0.00     0.00   0.00  -0.00    -0.00  -0.00   0.00
  10   1     0.45  -0.01   0.85     0.00  -0.00   0.00     0.02  -0.00   0.04
  11   1     0.01  -0.01  -0.01    -0.06   0.10   0.06    -0.11   0.19   0.11
  12   1     0.02   0.02  -0.06    -0.03  -0.05   0.13    -0.06  -0.09   0.24
  13   1     0.00  -0.00  -0.00    -0.02  -0.20  -0.50    -0.01  -0.17  -0.44
  14   1    -0.01  -0.00   0.00     0.32   0.14  -0.16     0.25   0.11  -0.12
  15   1     0.00   0.00  -0.00    -0.01  -0.17   0.47     0.01   0.15  -0.43
  16   1    -0.01   0.00   0.00    -0.33   0.16   0.15     0.33  -0.15  -0.15
  17   1     0.01   0.01  -0.00     0.05   0.09  -0.05    -0.11  -0.18   0.10
  18   1     0.02  -0.02  -0.05     0.03  -0.04  -0.11    -0.06   0.08   0.21
                     40                     41                     42
                        a                      a                      a 
 Frequencies --  2943.6562              2948.7389              2951.8800
 Red. masses --     2.0044                 1.8759                 1.6783
 Frc consts  --     0.0000                 0.0000                 0.0000
 IR Inten    --    11.5348                19.6325                15.4204
 Raman Activ --     0.0000                 0.0000                 0.0000
 Depolar     --     0.0000                 0.0000                 0.0000
 Atom AN      X      Y      Z        X      Y      Z        X      Y      Z
   1   7    -0.00   0.00   0.00    -0.00   0.00  -0.00    -0.00   0.00  -0.00
   2   6    -0.00  -0.00  -0.00     0.00  -0.00   0.02     0.00   0.00   0.01
   3   6     0.09  -0.04  -0.18    -0.07   0.03   0.14    -0.04   0.06   0.04
   4   6     0.04  -0.00  -0.06     0.01   0.04   0.10    -0.13  -0.07   0.02
   5   6    -0.04   0.01   0.03    -0.11   0.05   0.05     0.06  -0.08   0.10
   6   6    -0.09  -0.07   0.16    -0.07  -0.08   0.11    -0.05  -0.02   0.10
   7   1     0.00  -0.00   0.00     0.00  -0.00  -0.00     0.00  -0.00  -0.00
   8   1    -0.00  -0.00  -0.00     0.00  -0.00   0.00     0.00  -0.00   0.00
   9   1     0.00  -0.00  -0.00     0.00   0.00  -0.00     0.00   0.00  -0.00
  10   1     0.00  -0.00   0.01    -0.02   0.00  -0.04    -0.01   0.00  -0.02
  11   1    -0.19   0.33   0.20     0.14  -0.24  -0.15     0.14  -0.23  -0.15
  12   1    -0.11  -0.17   0.44     0.09   0.14  -0.36    -0.00   0.01  -0.00
  13   1     0.01   0.06   0.14    -0.00  -0.13  -0.35    -0.02   0.06   0.19
  14   1    -0.13  -0.06   0.07    -0.02  -0.00   0.02     0.46   0.18  -0.27
  15   1    -0.00   0.02  -0.05    -0.02  -0.01   0.06     0.04   0.16  -0.48
  16   1     0.14  -0.06  -0.07     0.41  -0.18  -0.21    -0.25   0.10   0.14
  17   1     0.22   0.38  -0.21     0.22   0.37  -0.21     0.09   0.16  -0.09
  18   1     0.10  -0.14  -0.37     0.04  -0.07  -0.17     0.08  -0.09  -0.27
                     43                     44                     45
                        a                      a                      a 
 Frequencies --  2957.5729              2962.7440              2964.2466
 Red. masses --     1.5374                 1.5312                 1.5191
 Frc consts  --     0.0000                 0.0000                 0.0000
 IR Inten    --    23.2627                 1.5957                24.5234
 Raman Activ --     0.0000                 0.0000                 0.0000
 Depolar     --     0.0000                 0.0000                 0.0000
 Atom AN      X      Y      Z        X      Y      Z        X      Y      Z
   1   7    -0.00   0.00  -0.00     0.00   0.00  -0.00     0.00  -0.00  -0.00
   2   6     0.00  -0.00   0.01     0.01  -0.00   0.01     0.00   0.01   0.00
   3   6     0.00  -0.05   0.03     0.02  -0.14   0.06    -0.03   0.12  -0.03
   4   6     0.12   0.08   0.04    -0.05  -0.03  -0.00     0.03   0.03   0.01
   5   6     0.10  -0.08   0.06    -0.03   0.02   0.00    -0.03   0.02  -0.00
   6   6    -0.01   0.02   0.05     0.01   0.11   0.07     0.02   0.14   0.08
   7   1     0.00  -0.00   0.00    -0.00   0.00   0.00     0.00   0.00  -0.00
   8   1     0.00  -0.00   0.00     0.00  -0.00   0.00     0.00   0.00   0.00
   9   1     0.00   0.00   0.00    -0.00  -0.01  -0.00    -0.00   0.00   0.00
  10   1    -0.02   0.00  -0.03    -0.02   0.00  -0.04    -0.00   0.00  -0.01
  11   1    -0.06   0.10   0.07    -0.23   0.36   0.26     0.20  -0.32  -0.23
  12   1     0.05   0.06  -0.19     0.13   0.15  -0.47    -0.10  -0.10   0.33
  13   1     0.02  -0.14  -0.40    -0.01   0.04   0.13     0.00  -0.04  -0.12
  14   1    -0.42  -0.16   0.25     0.19   0.07  -0.12    -0.12  -0.05   0.07
  15   1     0.04   0.14  -0.42    -0.01  -0.02   0.06    -0.01  -0.03   0.09
  16   1    -0.37   0.16   0.20     0.13  -0.05  -0.07     0.12  -0.05  -0.06
  17   1    -0.01  -0.01   0.01    -0.16  -0.25   0.17    -0.23  -0.36   0.24
  18   1     0.05  -0.06  -0.18     0.13  -0.13  -0.43     0.16  -0.15  -0.52
                     46                     47                     48
                        a                      a                      a 
 Frequencies --  3218.7664              3227.0186              3243.5532
 Red. masses --     2.0370                 1.9356                 1.3722
 Frc consts  --     0.0000                 0.0000                 0.0000
 IR Inten    --    65.8090                65.7732                26.9861
 Raman Activ --     0.0000                 0.0000                 0.0000
 Depolar     --     0.0000                 0.0000                 0.0000
 Atom AN      X      Y      Z        X      Y      Z        X      Y      Z
   1   7     0.01   0.28   0.01    -0.23   0.01  -0.14     0.01  -0.00  -0.17
   2   6     0.00   0.00  -0.00    -0.01   0.00  -0.00     0.00   0.00  -0.01
   3   6    -0.00  -0.00  -0.00     0.00  -0.00  -0.00    -0.00   0.00  -0.00
   4   6     0.00   0.00   0.00    -0.00  -0.00   0.00     0.00   0.00  -0.00
   5   6    -0.00   0.00  -0.00    -0.00   0.00   0.00     0.00  -0.00  -0.00
   6   6     0.00  -0.00   0.00     0.00   0.00   0.00    -0.00  -0.00  -0.00
   7   1     0.39  -0.52   0.05     0.33  -0.50   0.03    -0.22   0.32  -0.04
   8   1    -0.00   0.03  -0.00     0.22  -0.00   0.46     0.38  -0.01   0.73
   9   1    -0.42  -0.56  -0.06     0.31   0.46   0.03    -0.21  -0.30  -0.05
  10   1    -0.00  -0.00  -0.00     0.01  -0.00   0.01     0.01  -0.00   0.01
  11   1     0.00  -0.00  -0.00    -0.00   0.00   0.00     0.00  -0.00  -0.00
  12   1     0.00   0.00  -0.00     0.00   0.00  -0.00    -0.00  -0.00   0.00
  13   1    -0.00  -0.00  -0.00    -0.00  -0.00   0.00    -0.00  -0.00  -0.00
  14   1     0.00  -0.00   0.00     0.00   0.00  -0.00    -0.00  -0.00   0.00
  15   1     0.00  -0.00   0.00    -0.00   0.00   0.00    -0.00   0.00  -0.00
  16   1    -0.00  -0.00  -0.00     0.00  -0.00  -0.00    -0.00   0.00   0.00
  17   1     0.00  -0.00   0.00    -0.00  -0.00   0.00     0.00   0.00  -0.00
  18   1    -0.00   0.00   0.00     0.00  -0.00  -0.00    -0.00   0.00   0.00
