 Entering Gaussian System
 *********************************************
 Gaussian 98:
 frequency output generated by the xtb code
 *********************************************
                         Standard orientation:
 --------------------------------------------------------------------
  Center     Atomic     Atomic              Coordinates (Angstroms)
  Number     Number      Type              X           Y           Z
 --------------------------------------------------------------------
    1          7             0        1.117012    1.567816    1.118063
    2          6             0        0.048729    1.755290    0.084007
    3          6             0        0.658036    2.015334   -1.288466
    4          6             0       -0.899117    0.579445    0.054182
    5          6             0       -2.270846    0.777932    0.126077
    6          6             0       -3.141352   -0.293123    0.083391
    7          6             0       -2.651109   -1.577786   -0.034868
    8          6             0       -1.289390   -1.788254   -0.111672
    9          6             0       -0.420884   -0.715988   -0.068997
   10         17             0        3.059784   -1.129666   -0.035659
   11          1             0        0.710534    1.356610    2.039015
   12          1             0        1.709047    2.404803    1.205780
   13          1             0        1.728787    0.778663    0.852923
   14          1             0       -0.538105    2.640924    0.377127
   15          1             0       -0.113266    2.183597   -2.040924
   16          1             0        1.250841    1.160241   -1.612067
   17          1             0        1.315231    2.885111   -1.275910
   18          1             0       -2.654740    1.780544    0.213676
   19          1             0       -4.204951   -0.125428    0.141245
   20          1             0       -3.330233   -2.414673   -0.068274
   21          1             0       -0.903235   -2.790596   -0.205442
   22          1             0        0.641285   -0.882834   -0.130361
 --------------------------------------------------------------------
     1 basis functions        1 primitive gaussians
     1 alpha electrons        1 beta electrons

 Harmonic frequencies (cm**-1), IR intensities (km*mol⁻¹),
 Raman scattering activities (A**4/amu), Raman depolarization ratios,
 reduced masses (AMU), force constants (mDyne/A) and normal coordinates:
                      1                      2                      3
                        a                      a                      a 
 Frequencies --   -49.3015               -11.7746                64.6956
 Red. masses --    20.1631                13.0335                12.8239
 Frc consts  --     0.0000                 0.0000                 0.0000
 IR Inten    --    79.2810                 6.3417                16.1946
 Raman Activ --     0.0000                 0.0000                 0.0000
 Depolar     --     0.0000                 0.0000                 0.0000
 Atom AN      X      Y      Z        X      Y      Z        X      Y      Z
   1   7     0.29  -0.40  -0.18    -0.09   0.11  -0.06    -0.27   0.08   0.28
   2   6     0.15  -0.18  -0.01    -0.04   0.07  -0.12     0.04  -0.07  -0.08
   3   6    -0.01  -0.09  -0.06     0.02   0.03  -0.09     0.46  -0.41   0.05
   4   6     0.05  -0.10  -0.01    -0.01   0.04  -0.09    -0.01  -0.03  -0.05
   5   6     0.07   0.01   0.08    -0.00  -0.03   0.32    -0.00   0.01   0.03
   6   6    -0.03   0.09   0.08     0.04  -0.07   0.39    -0.04   0.04   0.10
   7   6    -0.14   0.05  -0.01     0.07  -0.03   0.03    -0.08   0.02   0.07
   8   6    -0.17  -0.06  -0.11     0.06   0.05  -0.39    -0.09  -0.02  -0.02
   9   6    -0.08  -0.13  -0.11     0.02   0.09  -0.45    -0.06  -0.04  -0.07
  10  17    -0.11   0.56   0.23    -0.04  -0.18   0.30     0.01   0.29  -0.24
  11   1     0.11  -0.13  -0.04    -0.04   0.06  -0.01    -0.14   0.05   0.05
  12   1     0.09  -0.12  -0.04    -0.01   0.02  -0.03    -0.08   0.02   0.09
  13   1     0.06  -0.11  -0.10    -0.04   0.01   0.02    -0.05   0.02   0.14
  14   1     0.07  -0.05   0.05    -0.02   0.02  -0.05     0.00   0.01  -0.12
  15   1    -0.03   0.01   0.01     0.01  -0.00  -0.04     0.20  -0.17  -0.07
  16   1    -0.03  -0.03  -0.06     0.02   0.01  -0.01     0.16  -0.14   0.13
  17   1     0.01  -0.04  -0.02     0.00   0.01  -0.03     0.14  -0.12   0.01
  18   1     0.05   0.01   0.05    -0.01  -0.02   0.17     0.01   0.01   0.01
  19   1    -0.00   0.05   0.05     0.01  -0.04   0.21    -0.01   0.02   0.05
  20   1    -0.06   0.03  -0.00     0.03  -0.02   0.02    -0.03   0.01   0.03
  21   1    -0.08  -0.03  -0.05     0.03   0.03  -0.19    -0.04  -0.01  -0.01
  22   1    -0.03  -0.06  -0.05     0.00   0.05  -0.21    -0.02  -0.02  -0.03
                      4                      5                      6
                        a                      a                      a 
 Frequencies --   101.4333               124.7955               211.3049
 Red. masses --    28.1619                10.0153                 8.6683
 Frc consts  --     0.0000                 0.0000                 0.0000
 IR Inten    --    43.1113                 9.2307                13.5391
 Raman Activ --     0.0000                 0.0000                 0.0000
 Depolar     --     0.0000                 0.0000                 0.0000
 Atom AN      X      Y      Z        X      Y      Z        X      Y      Z
   1   7     0.06   0.02   0.03    -0.17  -0.31   0.03     0.05   0.38   0.04
   2   6     0.09   0.03  -0.00    -0.02   0.00  -0.07     0.02  -0.08  -0.01
   3   6     0.14   0.07   0.03     0.17   0.38   0.09     0.01   0.28   0.05
   4   6     0.11   0.01  -0.04    -0.04   0.02  -0.32     0.21  -0.26  -0.05
   5   6     0.10  -0.06  -0.07    -0.04   0.02  -0.28     0.23  -0.08  -0.03
   6   6     0.16  -0.11  -0.02    -0.02  -0.01   0.09     0.02   0.09   0.02
   7   6     0.22  -0.10   0.06    -0.01  -0.04   0.41    -0.20   0.01   0.02
   8   6     0.23  -0.03   0.06    -0.02  -0.02   0.16    -0.23  -0.19  -0.03
   9   6     0.16   0.03   0.01    -0.04   0.01  -0.22    -0.01  -0.34  -0.06
  10  17    -0.83   0.08  -0.04     0.12  -0.02   0.00    -0.04   0.00  -0.00
  11   1     0.01   0.00   0.00    -0.08  -0.15  -0.02     0.02   0.16   0.03
  12   1     0.02   0.00   0.01    -0.04  -0.09   0.09    -0.02   0.14  -0.06
  13   1     0.01  -0.00   0.01    -0.04  -0.07  -0.02     0.04   0.10   0.07
  14   1     0.02   0.00  -0.00    -0.01  -0.02   0.03    -0.08  -0.08  -0.00
  15   1     0.05   0.02  -0.00     0.08   0.17   0.01    -0.00  -0.10  -0.02
  16   1     0.05   0.02   0.01     0.06   0.13  -0.02     0.20   0.20   0.05
  17   1     0.04   0.02   0.02     0.05   0.11   0.13    -0.19   0.23   0.03
  18   1     0.01  -0.02  -0.03    -0.01   0.01  -0.13     0.11  -0.01  -0.01
  19   1     0.04  -0.05  -0.01    -0.01  -0.00   0.05     0.02   0.09   0.02
  20   1     0.08  -0.04   0.03     0.00  -0.02   0.24    -0.09   0.03   0.02
  21   1     0.08  -0.00   0.03    -0.01  -0.01   0.09    -0.12  -0.08  -0.01
  22   1     0.05   0.02   0.00    -0.01   0.00  -0.10    -0.01  -0.14  -0.01
                      7                      8                      9
                        a                      a                      a 
 Frequencies --   256.1044               283.9095               296.7883
 Red. masses --     2.5306                 8.9325                 2.8087
 Frc consts  --     0.0000                 0.0000                 0.0000
 IR Inten    --     6.4314                 4.0569                 2.8820
 Raman Activ --     0.0000                 0.0000                 0.0000
 Depolar     --     0.0000                 0.0000                 0.0000
 Atom AN      X      Y      Z        X      Y      Z        X      Y      Z
   1   7    -0.04   0.21   0.04    -0.08  -0.09  -0.24    -0.12  -0.05   0.10
   2   6     0.01  -0.02  -0.05    -0.03   0.04  -0.24     0.00  -0.02  -0.02
   3   6     0.02   0.06  -0.03     0.34   0.27  -0.06    -0.18  -0.10  -0.11
   4   6     0.09  -0.10  -0.02    -0.07   0.03  -0.02     0.08  -0.03  -0.02
   5   6     0.10  -0.05   0.03    -0.07  -0.07   0.32     0.11   0.06  -0.01
   6   6     0.02   0.02   0.03    -0.05  -0.09   0.11     0.07   0.11   0.04
   7   6    -0.07  -0.01  -0.03    -0.05  -0.05  -0.32     0.05   0.11   0.01
   8   6    -0.08  -0.08  -0.00    -0.02  -0.02   0.15     0.04   0.02  -0.03
   9   6     0.01  -0.14   0.02    -0.05  -0.00   0.32     0.09  -0.03  -0.01
  10  17    -0.02   0.01  -0.00     0.01  -0.02   0.01    -0.03  -0.02   0.02
  11   1    -0.02  -0.03  -0.01    -0.02  -0.16  -0.10    -0.07  -0.51  -0.10
  12   1    -0.11   0.12   0.08    -0.08   0.00   0.05    -0.34   0.16   0.43
  13   1     0.07   0.13  -0.00     0.03   0.04  -0.14     0.25   0.28  -0.18
  14   1    -0.03  -0.02  -0.03    -0.01   0.01  -0.07    -0.02  -0.02  -0.01
  15   1     0.02   0.54   0.09     0.17   0.06  -0.09    -0.10  -0.16  -0.02
  16   1    -0.40  -0.17  -0.25     0.18   0.12   0.02     0.02   0.00   0.00
  17   1     0.40  -0.28   0.14     0.05   0.12   0.09    -0.14   0.03  -0.11
  18   1     0.04  -0.01   0.02    -0.04  -0.03   0.16     0.05   0.03  -0.01
  19   1     0.01   0.03   0.02    -0.02  -0.03   0.05     0.02   0.04   0.02
  20   1    -0.03   0.01  -0.02    -0.01  -0.01  -0.22     0.01   0.04   0.01
  21   1    -0.04  -0.03  -0.00     0.01  -0.00   0.07    -0.01  -0.00  -0.01
  22   1     0.00  -0.06   0.02    -0.01  -0.01   0.14     0.03  -0.01   0.01
                     10                     11                     12
                        a                      a                      a 
 Frequencies --   315.9499               363.0654               461.5391
 Red. masses --     8.4117                 8.8648                 9.7053
 Frc consts  --     0.0000                 0.0000                 0.0000
 IR Inten    --    13.0180                 0.1310                10.8401
 Raman Activ --     0.0000                 0.0000                 0.0000
 Depolar     --     0.0000                 0.0000                 0.0000
 Atom AN      X      Y      Z        X      Y      Z        X      Y      Z
   1   7     0.39   0.25  -0.18     0.03   0.03   0.00    -0.20  -0.03  -0.39
   2   6    -0.00   0.03   0.14    -0.00  -0.01   0.01    -0.42  -0.04   0.07
   3   6     0.21  -0.06   0.23    -0.00  -0.02   0.02    -0.00  -0.12   0.33
   4   6    -0.15   0.07   0.07    -0.00  -0.00  -0.01     0.00  -0.20   0.04
   5   6    -0.21  -0.07  -0.15     0.01  -0.03   0.40     0.08   0.08   0.01
   6   6    -0.13  -0.16  -0.04    -0.03   0.03  -0.41     0.02   0.20  -0.01
   7   6    -0.08  -0.16   0.13    -0.00  -0.00   0.01     0.15   0.24   0.04
   8   6    -0.07   0.01  -0.11     0.01  -0.03   0.41     0.12   0.01  -0.03
   9   6    -0.16   0.09  -0.10    -0.03   0.03  -0.45     0.22  -0.11  -0.01
  10  17     0.01  -0.02   0.02     0.00  -0.00   0.00    -0.00  -0.00   0.01
  11   1     0.24  -0.15  -0.04     0.02  -0.03  -0.00     0.09  -0.03  -0.05
  12   1    -0.07   0.19   0.01    -0.02   0.03   0.02    -0.04  -0.01  -0.18
  13   1     0.24   0.22  -0.20     0.03   0.03  -0.02    -0.09  -0.00  -0.20
  14   1     0.01   0.01   0.05    -0.00  -0.00   0.01    -0.16  -0.04   0.03
  15   1     0.12  -0.03   0.00     0.00  -0.01   0.00     0.12  -0.00  -0.03
  16   1     0.07  -0.03   0.13    -0.00  -0.01   0.01     0.00  -0.07   0.19
  17   1     0.07  -0.03   0.09     0.00  -0.01   0.00     0.05  -0.07   0.18
  18   1    -0.10  -0.03  -0.08     0.01  -0.02   0.27     0.09   0.05  -0.01
  19   1    -0.04  -0.06  -0.02    -0.01   0.02  -0.26     0.01   0.04  -0.02
  20   1    -0.00  -0.06   0.10    -0.00  -0.00   0.01     0.03   0.08   0.02
  21   1     0.01   0.02  -0.06     0.01  -0.02   0.27    -0.03  -0.02  -0.02
  22   1    -0.04   0.04  -0.04    -0.01   0.03  -0.26     0.06  -0.02  -0.01
                     13                     14                     15
                        a                      a                      a 
 Frequencies --   507.4632               559.3504               591.6062
 Red. masses --     9.3991                 9.4440                11.1183
 Frc consts  --     0.0000                 0.0000                 0.0000
 IR Inten    --     5.6942                 6.3458                 1.1110
 Raman Activ --     0.0000                 0.0000                 0.0000
 Depolar     --     0.0000                 0.0000                 0.0000
 Atom AN      X      Y      Z        X      Y      Z        X      Y      Z
   1   7     0.13   0.05   0.08    -0.09  -0.04  -0.10     0.05  -0.01   0.06
   2   6    -0.02  -0.05   0.14    -0.07   0.52   0.11     0.04  -0.10  -0.03
   3   6    -0.10  -0.11   0.16    -0.03  -0.04   0.07     0.02   0.01  -0.05
   4   6    -0.05   0.02  -0.57     0.30   0.16  -0.03     0.08  -0.13  -0.01
   5   6    -0.04   0.03  -0.14     0.28  -0.25  -0.05    -0.03  -0.41  -0.02
   6   6    -0.01  -0.00   0.29     0.09  -0.11   0.01    -0.51  -0.04   0.01
   7   6     0.01   0.06  -0.36    -0.26  -0.21  -0.03    -0.10   0.15   0.03
   8   6     0.04  -0.01   0.27    -0.20   0.11   0.04    -0.01   0.46   0.03
   9   6     0.02   0.02  -0.11     0.00   0.02  -0.02     0.44   0.06  -0.00
  10  17    -0.00  -0.00  -0.00     0.01  -0.00   0.00    -0.01   0.00  -0.00
  11   1     0.10   0.04   0.06    -0.01  -0.09  -0.04     0.00   0.02   0.01
  12   1    -0.00   0.05  -0.06     0.11  -0.11   0.07    -0.01   0.02  -0.00
  13   1     0.06   0.03   0.02    -0.14  -0.06  -0.16     0.04   0.00   0.05
  14   1    -0.02  -0.04   0.08    -0.03   0.13   0.05     0.01  -0.03  -0.01
  15   1    -0.05  -0.06   0.06     0.02  -0.09  -0.02    -0.01   0.02   0.00
  16   1    -0.06  -0.06   0.07    -0.07  -0.12   0.18     0.02   0.02  -0.05
  17   1    -0.02  -0.04  -0.02     0.06  -0.07  -0.12    -0.01   0.01   0.01
  18   1     0.00   0.00   0.10     0.04  -0.08   0.00     0.06  -0.09  -0.01
  19   1     0.00  -0.03   0.28     0.04   0.08   0.03    -0.14   0.03  -0.00
  20   1     0.01   0.02  -0.12    -0.07  -0.06  -0.00     0.10  -0.06  -0.01
  21   1     0.01  -0.02   0.27    -0.02   0.04   0.03    -0.07   0.10   0.00
  22   1     0.01   0.00   0.11    -0.02  -0.12   0.00     0.11  -0.02  -0.01
                     16                     17                     18
                        a                      a                      a 
 Frequencies --   664.2225               756.7205               765.4684
 Red. masses --     9.2972                 4.4857                 9.4936
 Frc consts  --     0.0000                 0.0000                 0.0000
 IR Inten    --     5.2389                20.1398                 9.8430
 Raman Activ --     0.0000                 0.0000                 0.0000
 Depolar     --     0.0000                 0.0000                 0.0000
 Atom AN      X      Y      Z        X      Y      Z        X      Y      Z
   1   7     0.03  -0.00   0.03     0.04  -0.00   0.03     0.15   0.05   0.14
   2   6    -0.00   0.00   0.02    -0.01  -0.01   0.01    -0.01   0.41   0.04
   3   6    -0.02  -0.02   0.03    -0.04  -0.02   0.08     0.06   0.10  -0.14
   4   6    -0.02   0.05  -0.49    -0.01   0.04  -0.41    -0.08  -0.12  -0.04
   5   6     0.01  -0.01   0.28     0.03  -0.02   0.23    -0.21   0.00   0.02
   6   6    -0.00   0.02  -0.36     0.03  -0.01   0.10    -0.33   0.07   0.02
   7   6     0.01  -0.03   0.27    -0.01  -0.03   0.20     0.19   0.24   0.02
   8   6    -0.02   0.03  -0.36    -0.01   0.01   0.09     0.13  -0.38  -0.03
   9   6     0.01  -0.01   0.30    -0.00   0.01   0.15     0.08  -0.27  -0.01
  10  17    -0.00   0.00  -0.00    -0.00  -0.00   0.00    -0.00   0.00   0.00
  11   1     0.03   0.02   0.02     0.04   0.02   0.02     0.01  -0.07   0.01
  12   1    -0.01   0.01  -0.03    -0.02   0.03  -0.03     0.19  -0.10   0.16
  13   1     0.02   0.01   0.01     0.03   0.01   0.02    -0.09  -0.05  -0.08
  14   1    -0.01  -0.01   0.03    -0.01  -0.02   0.04     0.00   0.11   0.04
  15   1    -0.02  -0.02   0.02    -0.02  -0.03   0.03     0.03  -0.05  -0.07
  16   1    -0.02  -0.02   0.03    -0.03  -0.03   0.04    -0.05  -0.07   0.09
  17   1     0.00  -0.01  -0.03     0.00  -0.02  -0.03     0.09  -0.02  -0.19
  18   1     0.01  -0.02   0.30    -0.01   0.02  -0.33    -0.01   0.02  -0.02
  19   1     0.00  -0.00   0.05    -0.01   0.04  -0.41    -0.11  -0.09  -0.03
  20   1     0.01  -0.02   0.26    -0.03   0.03  -0.45     0.04   0.07  -0.02
  21   1     0.01  -0.00   0.04    -0.01   0.04  -0.37    -0.08  -0.15  -0.03
  22   1     0.01  -0.03   0.27    -0.01   0.03  -0.21     0.03  -0.04  -0.01
                     19                     20                     21
                        a                      a                      a 
 Frequencies --   876.9885               904.9602               907.2688
 Red. masses --     3.3218                 3.8261                 8.3892
 Frc consts  --     0.0000                 0.0000                 0.0000
 IR Inten    --     0.7610                 0.7129                 9.9664
 Raman Activ --     0.0000                 0.0000                 0.0000
 Depolar     --     0.0000                 0.0000                 0.0000
 Atom AN      X      Y      Z        X      Y      Z        X      Y      Z
   1   7    -0.00   0.01  -0.01    -0.04   0.01  -0.07    -0.21   0.08  -0.39
   2   6     0.02   0.00   0.01     0.08  -0.00   0.02     0.45   0.03   0.09
   3   6     0.00  -0.01   0.01     0.01  -0.01   0.04     0.05  -0.06   0.35
   4   6     0.00  -0.00   0.01     0.01   0.01   0.06     0.06   0.08  -0.02
   5   6    -0.01   0.02  -0.32    -0.02   0.01  -0.25    -0.02  -0.06   0.05
   6   6    -0.01   0.01  -0.15    -0.02  -0.02   0.26    -0.19   0.01  -0.03
   7   6     0.00  -0.01   0.13     0.03  -0.00   0.23     0.07   0.08  -0.04
   8   6     0.01  -0.02   0.23     0.00  -0.01  -0.18     0.05  -0.14   0.00
   9   6     0.01  -0.01   0.12    -0.02   0.01  -0.15    -0.06  -0.02   0.03
  10  17     0.00  -0.00   0.00     0.00   0.00  -0.00     0.00   0.00  -0.00
  11   1    -0.00  -0.01  -0.01    -0.05   0.01  -0.04    -0.30   0.05  -0.20
  12   1     0.00  -0.00   0.01    -0.00  -0.01   0.01    -0.07   0.02   0.04
  13   1    -0.01  -0.00  -0.00    -0.01  -0.00   0.00    -0.02  -0.01   0.05
  14   1     0.00   0.01  -0.01     0.03   0.01  -0.02     0.14   0.04  -0.03
  15   1    -0.01   0.00   0.02    -0.03  -0.00   0.05    -0.22  -0.05   0.32
  16   1     0.00   0.00  -0.01     0.00   0.01  -0.02    -0.04   0.01  -0.08
  17   1    -0.00   0.00   0.00    -0.01   0.01   0.00    -0.05   0.03  -0.08
  18   1     0.02  -0.05   0.60     0.01  -0.03   0.42    -0.00  -0.00  -0.09
  19   1     0.01  -0.02   0.27    -0.03   0.03  -0.50    -0.05  -0.04   0.06
  20   1    -0.01   0.02  -0.21    -0.01   0.03  -0.35     0.03   0.01   0.06
  21   1    -0.02   0.03  -0.49     0.01  -0.03   0.25    -0.01  -0.04  -0.01
  22   1    -0.01   0.03  -0.24     0.01  -0.04   0.35    -0.02   0.01  -0.07
                     22                     23                     24
                        a                      a                      a 
 Frequencies --   928.1409               930.8796               945.4191
 Red. masses --     3.5246                 3.4924                 3.6055
 Frc consts  --     0.0000                 0.0000                 0.0000
 IR Inten    --     3.3440                21.7159                 3.5612
 Raman Activ --     0.0000                 0.0000                 0.0000
 Depolar     --     0.0000                 0.0000                 0.0000
 Atom AN      X      Y      Z        X      Y      Z        X      Y      Z
   1   7    -0.11  -0.01   0.05     0.27  -0.00  -0.12    -0.07  -0.08  -0.02
   2   6     0.02  -0.00   0.06    -0.06   0.01  -0.15     0.03   0.01   0.05
   3   6     0.09   0.01  -0.03    -0.23   0.02   0.08     0.04   0.06  -0.04
   4   6    -0.00   0.01  -0.08    -0.01  -0.01  -0.04     0.01   0.02   0.03
   5   6     0.00  -0.00  -0.08    -0.01   0.02  -0.03     0.00  -0.02   0.10
   6   6     0.00  -0.02   0.26     0.03  -0.01   0.10    -0.02   0.00  -0.05
   7   6    -0.01   0.03  -0.30    -0.02  -0.01  -0.12     0.02   0.02  -0.03
   8   6     0.01  -0.02   0.07    -0.01   0.02   0.05     0.02  -0.04   0.27
   9   6     0.00  -0.01   0.15     0.02  -0.00   0.03    -0.02   0.02  -0.34
  10  17     0.00  -0.00   0.00    -0.00   0.00  -0.00    -0.00   0.00  -0.00
  11   1     0.19  -0.04   0.10    -0.43   0.10  -0.23     0.03   0.04   0.03
  12   1    -0.03   0.02  -0.12     0.03  -0.00   0.26    -0.10   0.05  -0.11
  13   1    -0.04   0.03  -0.12     0.14  -0.06   0.33     0.06   0.03   0.03
  14   1    -0.01   0.01  -0.04     0.02  -0.03   0.14     0.02  -0.00   0.06
  15   1    -0.08  -0.01   0.09     0.18   0.01  -0.22    -0.01  -0.03  -0.00
  16   1    -0.00   0.01  -0.10    -0.01  -0.06   0.27    -0.03  -0.03   0.03
  17   1    -0.00   0.02  -0.10     0.03  -0.07   0.18     0.03  -0.00  -0.09
  18   1     0.01  -0.02   0.21     0.00  -0.00   0.09    -0.00   0.00  -0.08
  19   1    -0.02   0.04  -0.48    -0.00   0.02  -0.20    -0.01  -0.01   0.00
  20   1     0.03  -0.04   0.55     0.01  -0.02   0.24     0.01  -0.00   0.10
  21   1    -0.01   0.01  -0.19    -0.01   0.02  -0.13    -0.02   0.03  -0.49
  22   1    -0.01   0.02  -0.18     0.01   0.01  -0.01     0.02  -0.08   0.67
                     25                     26                     27
                        a                      a                      a 
 Frequencies --   954.0119               984.8369              1064.6899
 Red. masses --     3.5669                10.2783                 6.2130
 Frc consts  --     0.0000                 0.0000                 0.0000
 IR Inten    --    24.8641                 2.5293                45.0485
 Raman Activ --     0.0000                 0.0000                 0.0000
 Depolar     --     0.0000                 0.0000                 0.0000
 Atom AN      X      Y      Z        X      Y      Z        X      Y      Z
   1   7    -0.11  -0.27  -0.06    -0.04   0.02  -0.07     0.06  -0.21   0.08
   2   6     0.02   0.06   0.13     0.08   0.04   0.07    -0.10   0.32  -0.22
   3   6     0.06   0.21  -0.13     0.10   0.09   0.02    -0.09  -0.21   0.13
   4   6     0.03   0.04   0.09    -0.13  -0.18   0.01     0.03   0.18   0.01
   5   6     0.04  -0.07  -0.05    -0.27   0.44   0.04    -0.02   0.06   0.01
   6   6    -0.05   0.01   0.00     0.18  -0.07  -0.01    -0.07   0.01   0.00
   7   6     0.03   0.05   0.02    -0.23  -0.28  -0.01    -0.13  -0.07   0.00
   8   6     0.02  -0.06  -0.08    -0.11   0.17   0.01     0.05  -0.20  -0.02
   9   6    -0.05  -0.00   0.08     0.49  -0.17  -0.03     0.25  -0.08  -0.02
  10  17    -0.00  -0.00  -0.00    -0.00   0.00   0.00    -0.00   0.00  -0.00
  11   1     0.03   0.16   0.06    -0.06   0.01  -0.04     0.09   0.09   0.08
  12   1    -0.38   0.21  -0.30    -0.01   0.00   0.01    -0.19   0.11  -0.16
  13   1     0.27   0.08   0.24    -0.01  -0.00   0.01     0.19   0.05   0.13
  14   1     0.05  -0.02   0.26     0.02  -0.00   0.06     0.23   0.29  -0.19
  15   1     0.06  -0.10  -0.11    -0.07  -0.07   0.08    -0.02   0.10   0.07
  16   1    -0.10  -0.12   0.21    -0.06  -0.05   0.03     0.09   0.11  -0.15
  17   1     0.16  -0.05  -0.29     0.06  -0.00  -0.21    -0.16   0.05   0.29
  18   1     0.02  -0.02   0.03    -0.12   0.11   0.01    -0.03   0.01   0.00
  19   1    -0.01   0.02   0.03     0.03  -0.10  -0.00    -0.01   0.05   0.00
  20   1    -0.00   0.02  -0.05    -0.06  -0.08  -0.01    -0.11   0.03   0.01
  21   1     0.00  -0.03   0.14    -0.10   0.01   0.02    -0.08  -0.10  -0.00
  22   1    -0.02   0.04  -0.17     0.13  -0.08  -0.03     0.08   0.01   0.00
                     28                     29                     30
                        a                      a                      a 
 Frequencies --  1087.8237              1096.0699              1128.4566
 Red. masses --     8.0836                 6.0555                 4.8203
 Frc consts  --     0.0000                 0.0000                 0.0000
 IR Inten    --    43.1665                 8.5323                 5.0183
 Raman Activ --     0.0000                 0.0000                 0.0000
 Depolar     --     0.0000                 0.0000                 0.0000
 Atom AN      X      Y      Z        X      Y      Z        X      Y      Z
   1   7    -0.19   0.08  -0.12    -0.04  -0.01  -0.04    -0.05  -0.04   0.08
   2   6     0.22  -0.04   0.52     0.07   0.06   0.17     0.13   0.03  -0.21
   3   6    -0.12  -0.11  -0.32    -0.04  -0.08  -0.10    -0.15   0.02   0.10
   4   6     0.06   0.08  -0.09    -0.00   0.06  -0.03     0.19   0.01   0.02
   5   6    -0.01   0.12   0.02    -0.08  -0.14  -0.00     0.00   0.27   0.01
   6   6    -0.17   0.04   0.02     0.30  -0.17  -0.02    -0.17  -0.04   0.00
   7   6    -0.10  -0.14  -0.01     0.22   0.33   0.01     0.15  -0.07  -0.01
   8   6     0.08  -0.12  -0.00    -0.22   0.19   0.03    -0.09   0.14   0.01
   9   6     0.09  -0.00   0.01    -0.02  -0.11   0.00    -0.17  -0.11   0.00
  10  17    -0.00  -0.00   0.00    -0.00   0.00  -0.00     0.00   0.00   0.00
  11   1    -0.02  -0.02  -0.02    -0.02   0.02  -0.01     0.11  -0.01   0.07
  12   1    -0.02   0.00  -0.02    -0.05   0.03  -0.02    -0.05   0.03  -0.09
  13   1    -0.08   0.01  -0.08     0.01   0.01   0.01    -0.00   0.02  -0.04
  14   1     0.12   0.02   0.16     0.07   0.05   0.03     0.04   0.02  -0.08
  15   1     0.22   0.13  -0.30     0.06   0.06  -0.08     0.05   0.00  -0.06
  16   1     0.16   0.09  -0.06     0.07   0.05  -0.06    -0.03  -0.03   0.14
  17   1    -0.04  -0.02   0.29    -0.04   0.00   0.13     0.00  -0.03   0.09
  18   1     0.09   0.07  -0.01    -0.33  -0.16  -0.01     0.24   0.17   0.01
  19   1    -0.04   0.05  -0.00     0.05  -0.32  -0.03    -0.11  -0.36  -0.02
  20   1    -0.01  -0.06  -0.01     0.02   0.13   0.01     0.34  -0.26  -0.03
  21   1     0.09  -0.01  -0.02    -0.42  -0.08   0.01     0.07   0.08   0.01
  22   1     0.03   0.01  -0.02    -0.04  -0.21  -0.04    -0.11  -0.38  -0.05
                     31                     32                     33
                        a                      a                      a 
 Frequencies --  1158.9571              1181.4936              1204.6338
 Red. masses --     6.7755                 1.2994                 2.3537
 Frc consts  --     0.0000                 0.0000                 0.0000
 IR Inten    --    33.0724                 0.1931                10.2274
 Raman Activ --     0.0000                 0.0000                 0.0000
 Depolar     --     0.0000                 0.0000                 0.0000
 Atom AN      X      Y      Z        X      Y      Z        X      Y      Z
   1   7    -0.16   0.06   0.10     0.00  -0.00  -0.00     0.06  -0.04  -0.01
   2   6     0.38  -0.18  -0.28    -0.01  -0.00   0.01    -0.10   0.02   0.04
   3   6    -0.27   0.14   0.15     0.01  -0.00  -0.00     0.07  -0.05  -0.04
   4   6     0.12   0.16   0.04    -0.05   0.05   0.01     0.18   0.08  -0.00
   5   6    -0.07  -0.01  -0.00     0.04   0.07   0.00    -0.10   0.07   0.01
   6   6    -0.04   0.00  -0.00    -0.00   0.05   0.00    -0.09   0.11   0.01
   7   6    -0.07   0.01   0.00     0.06  -0.05  -0.01     0.02   0.03   0.00
   8   6     0.06  -0.13  -0.02    -0.01  -0.02  -0.00     0.07  -0.01  -0.01
   9   6     0.15   0.06  -0.01    -0.05  -0.06  -0.00     0.01  -0.12  -0.00
  10  17     0.00  -0.00   0.00     0.00  -0.00  -0.00    -0.00   0.00   0.00
  11   1     0.18  -0.09   0.10    -0.00   0.00  -0.00    -0.05   0.03  -0.02
  12   1     0.06  -0.04  -0.09     0.00  -0.00   0.00    -0.05   0.04   0.01
  13   1    -0.09   0.03  -0.16     0.00  -0.00   0.00     0.02  -0.02   0.04
  14   1    -0.01  -0.12  -0.08    -0.02  -0.01   0.00    -0.17  -0.10   0.03
  15   1     0.12  -0.05  -0.16    -0.00  -0.00   0.00    -0.03   0.02   0.05
  16   1    -0.09  -0.10   0.33     0.00   0.00  -0.01     0.02   0.02  -0.08
  17   1     0.08  -0.08   0.05    -0.00   0.00  -0.00    -0.03   0.02   0.01
  18   1    -0.32  -0.12   0.01    -0.19  -0.06   0.00    -0.52  -0.17   0.01
  19   1     0.00   0.09   0.01     0.08   0.51   0.03     0.01   0.23   0.02
  20   1    -0.16   0.11   0.02     0.54  -0.44  -0.06     0.01   0.00   0.00
  21   1    -0.09  -0.08   0.00    -0.38  -0.15   0.01     0.45   0.16  -0.01
  22   1     0.06   0.08   0.01     0.01   0.10   0.01    -0.07  -0.48  -0.06
                     34                     35                     36
                        a                      a                      a 
 Frequencies --  1223.9010              1286.6265              1297.4181
 Red. masses --     5.9586                 4.6682                 3.6292
 Frc consts  --     0.0000                 0.0000                 0.0000
 IR Inten    --     1.4958                 7.4605                 6.6622
 Raman Activ --     0.0000                 0.0000                 0.0000
 Depolar     --     0.0000                 0.0000                 0.0000
 Atom AN      X      Y      Z        X      Y      Z        X      Y      Z
   1   7     0.07  -0.03  -0.02     0.03   0.08   0.00     0.14  -0.09  -0.04
   2   6    -0.19  -0.08   0.01    -0.18  -0.26  -0.01    -0.08  -0.17   0.35
   3   6     0.12  -0.07  -0.05     0.06   0.06  -0.01    -0.06   0.17   0.00
   4   6     0.39   0.29   0.02    -0.05   0.34   0.02     0.04   0.07  -0.03
   5   6     0.07   0.17   0.01    -0.08  -0.03  -0.00     0.05   0.03   0.01
   6   6    -0.19   0.02   0.01    -0.05  -0.11  -0.00    -0.03   0.01   0.01
   7   6    -0.06  -0.09  -0.00     0.09  -0.10  -0.01    -0.03  -0.01   0.00
   8   6    -0.02  -0.18  -0.01     0.14  -0.06  -0.01     0.02  -0.03   0.00
   9   6     0.08   0.15   0.01     0.09   0.15   0.01     0.01   0.01  -0.00
  10  17    -0.00  -0.00  -0.00    -0.00   0.00   0.00     0.00  -0.00  -0.00
  11   1    -0.05   0.02  -0.03    -0.03  -0.04  -0.03    -0.11   0.07  -0.05
  12   1     0.00  -0.00   0.03     0.03   0.00   0.04    -0.09   0.06   0.03
  13   1     0.02  -0.02   0.05    -0.06  -0.03  -0.00    -0.00  -0.05  -0.00
  14   1    -0.39  -0.28   0.12     0.15   0.04   0.09    -0.11   0.18  -0.79
  15   1    -0.06   0.00   0.08    -0.03  -0.05   0.03     0.06  -0.06  -0.10
  16   1     0.01   0.01  -0.12    -0.05  -0.03   0.01    -0.05  -0.01   0.07
  17   1    -0.03   0.03  -0.02     0.02   0.01  -0.07     0.10  -0.04  -0.13
  18   1    -0.10   0.01   0.01     0.28   0.11  -0.00    -0.03  -0.01  -0.01
  19   1    -0.12  -0.36  -0.02     0.03   0.23   0.02    -0.02  -0.05  -0.00
  20   1    -0.00  -0.04  -0.00    -0.17   0.13   0.02     0.01  -0.01  -0.01
  21   1    -0.25  -0.15   0.00    -0.29  -0.15   0.00    -0.02  -0.02  -0.00
  22   1     0.05   0.16   0.02    -0.07  -0.55  -0.06     0.00  -0.01  -0.00
                     37                     38                     39
                        a                      a                      a 
 Frequencies --  1322.1458              1350.4387              1386.8101
 Red. masses --     7.0527                 9.4472                 2.8170
 Frc consts  --     0.0000                 0.0000                 0.0000
 IR Inten    --     6.4355                 3.9522               261.2963
 Raman Activ --     0.0000                 0.0000                 0.0000
 Depolar     --     0.0000                 0.0000                 0.0000
 Atom AN      X      Y      Z        X      Y      Z        X      Y      Z
   1   7    -0.05   0.13  -0.02     0.05  -0.07   0.03     0.20   0.04   0.29
   2   6    -0.25  -0.28  -0.01     0.18   0.15  -0.02    -0.02  -0.01  -0.03
   3   6     0.05   0.09   0.00    -0.02  -0.05  -0.00    -0.02  -0.02   0.08
   4   6    -0.06   0.22   0.01    -0.31   0.16   0.03    -0.01  -0.00   0.00
   5   6     0.34   0.10  -0.01     0.26   0.14  -0.00     0.01  -0.02  -0.00
   6   6    -0.07  -0.11  -0.00    -0.06  -0.39  -0.03     0.02   0.04   0.00
   7   6    -0.25   0.18   0.03    -0.21   0.17   0.02    -0.02   0.01   0.00
   8   6     0.14  -0.01  -0.01     0.35   0.18  -0.00    -0.03  -0.03  -0.00
   9   6    -0.00  -0.24  -0.02    -0.09  -0.31  -0.02     0.02   0.02  -0.00
  10  17    -0.00   0.00  -0.00     0.00  -0.00   0.00     0.00  -0.00   0.00
  11   1     0.04  -0.10  -0.01    -0.05   0.07  -0.00    -0.48  -0.24  -0.25
  12   1     0.12  -0.07   0.04    -0.07   0.05  -0.02    -0.09   0.15  -0.55
  13   1    -0.02   0.00   0.05    -0.01  -0.01  -0.08    -0.20  -0.04  -0.31
  14   1     0.44   0.22   0.13    -0.36  -0.22  -0.03     0.06   0.01   0.08
  15   1    -0.02  -0.07   0.01     0.00   0.04   0.00     0.08   0.02  -0.06
  16   1    -0.06  -0.03   0.01     0.04   0.02  -0.00     0.00   0.03  -0.09
  17   1     0.03   0.00  -0.08    -0.02  -0.00   0.04    -0.01   0.01  -0.09
  18   1    -0.21  -0.09  -0.00     0.09   0.05   0.00    -0.01  -0.01   0.00
  19   1    -0.05  -0.22  -0.02     0.01   0.09   0.01    -0.00  -0.04  -0.00
  20   1     0.10  -0.09  -0.01    -0.07   0.06   0.01     0.03  -0.02  -0.00
  21   1     0.12   0.03  -0.00    -0.05  -0.01   0.00     0.02   0.00  -0.00
  22   1     0.03   0.10   0.01    -0.02  -0.04   0.00     0.01   0.03   0.01
                     40                     41                     42
                        a                      a                      a 
 Frequencies --  1400.4103              1424.1038              1430.5326
 Red. masses --     1.6815                 2.1241                 2.6909
 Frc consts  --     0.0000                 0.0000                 0.0000
 IR Inten    --    91.9108                78.8664                10.2950
 Raman Activ --     0.0000                 0.0000                 0.0000
 Depolar     --     0.0000                 0.0000                 0.0000
 Atom AN      X      Y      Z        X      Y      Z        X      Y      Z
   1   7     0.14  -0.12   0.02     0.14   0.11  -0.06     0.04   0.07  -0.09
   2   6    -0.01  -0.07  -0.08     0.03   0.02  -0.00     0.02   0.03  -0.05
   3   6    -0.00   0.02   0.02     0.05   0.04  -0.21    -0.14  -0.08   0.32
   4   6    -0.01  -0.00   0.00    -0.05   0.01   0.00     0.01  -0.02   0.01
   5   6     0.02  -0.02  -0.00    -0.01  -0.04  -0.00     0.01   0.01   0.00
   6   6     0.01   0.05   0.00     0.04   0.03   0.00    -0.01  -0.01  -0.00
   7   6    -0.03   0.00   0.00    -0.04   0.03   0.00     0.01  -0.01  -0.00
   8   6    -0.01  -0.04  -0.00    -0.02  -0.04  -0.00     0.01   0.01   0.00
   9   6     0.02   0.04   0.00     0.03   0.01  -0.01    -0.01   0.00  -0.00
  10  17     0.00  -0.00   0.00     0.00   0.00  -0.00     0.00   0.00  -0.00
  11   1    -0.04   0.54   0.11     0.16  -0.29  -0.02     0.21  -0.16   0.04
  12   1    -0.32   0.19   0.36    -0.31   0.24   0.01    -0.17   0.12   0.12
  13   1    -0.28  -0.07  -0.49    -0.41  -0.40   0.26    -0.22  -0.25   0.25
  14   1     0.14   0.02   0.14    -0.02  -0.01  -0.02    -0.01  -0.02   0.05
  15   1    -0.00  -0.05  -0.01    -0.22  -0.02   0.21     0.31   0.07  -0.27
  16   1    -0.01   0.01  -0.03     0.01  -0.10   0.26     0.09   0.22  -0.37
  17   1     0.03  -0.02   0.01     0.01  -0.01   0.26     0.06  -0.06  -0.42
  18   1    -0.03  -0.02   0.00     0.02  -0.00  -0.00    -0.01   0.00   0.00
  19   1    -0.01  -0.05  -0.00     0.01  -0.03  -0.00    -0.00   0.01   0.00
  20   1     0.03  -0.03  -0.00     0.04  -0.03  -0.00    -0.02   0.01   0.00
  21   1     0.01  -0.01  -0.00     0.03   0.00  -0.00    -0.01  -0.00   0.00
  22   1     0.01   0.02   0.00     0.02   0.03   0.01    -0.00  -0.00   0.02
                     43                     44                     45
                        a                      a                      a 
 Frequencies --  1447.7550              1479.4557              1483.8377
 Red. masses --     8.5398                 3.9003                 5.9797
 Frc consts  --     0.0000                 0.0000                 0.0000
 IR Inten    --     3.3711                 6.2808                 2.3987
 Raman Activ --     0.0000                 0.0000                 0.0000
 Depolar     --     0.0000                 0.0000                 0.0000
 Atom AN      X      Y      Z        X      Y      Z        X      Y      Z
   1   7     0.03   0.01   0.01    -0.00  -0.00   0.01    -0.01  -0.00   0.01
   2   6    -0.10   0.00   0.01    -0.05  -0.00  -0.01     0.03   0.10  -0.02
   3   6     0.02   0.02  -0.04    -0.07   0.15   0.01    -0.12   0.06  -0.02
   4   6     0.32  -0.27  -0.04     0.14   0.18   0.01    -0.20  -0.24  -0.01
   5   6     0.06   0.27   0.02    -0.18   0.01   0.01     0.24  -0.03  -0.01
   6   6    -0.26  -0.19  -0.00     0.03  -0.21  -0.02    -0.04   0.29   0.02
   7   6     0.28  -0.22  -0.03     0.09   0.13   0.01    -0.11  -0.17  -0.01
   8   6     0.12   0.29   0.02    -0.21  -0.02   0.01     0.28   0.03  -0.01
   9   6    -0.26  -0.11   0.00     0.06  -0.17  -0.02    -0.07   0.23   0.02
  10  17     0.00  -0.00   0.00    -0.00  -0.00  -0.00    -0.00  -0.00  -0.00
  11   1    -0.02  -0.02  -0.01    -0.02  -0.01  -0.01    -0.01  -0.02  -0.01
  12   1    -0.06   0.04  -0.02     0.02  -0.01  -0.02     0.04  -0.02  -0.04
  13   1    -0.07  -0.05  -0.02     0.01   0.01   0.00     0.05   0.03   0.02
  14   1     0.17   0.12   0.02    -0.04  -0.02   0.03    -0.00   0.01   0.03
  15   1    -0.04  -0.02   0.04    -0.10  -0.52  -0.02    -0.13  -0.22   0.08
  16   1    -0.00  -0.02   0.03     0.05   0.16  -0.28     0.25   0.21  -0.07
  17   1     0.01  -0.00   0.04     0.36  -0.27   0.25     0.34  -0.26   0.10
  18   1    -0.17   0.01   0.01     0.12   0.07   0.00    -0.16  -0.10  -0.00
  19   1    -0.04   0.19   0.02     0.04   0.13   0.01    -0.06  -0.18  -0.01
  20   1    -0.26   0.21   0.03     0.04   0.03   0.00    -0.04  -0.04  -0.00
  21   1    -0.19   0.00   0.01     0.13   0.07  -0.00    -0.17  -0.09   0.00
  22   1    -0.04   0.18   0.02     0.05   0.13   0.01    -0.07  -0.21  -0.01
                     46                     47                     48
                        a                      a                      a 
 Frequencies --  1497.2881              1605.2238              1616.0303
 Red. masses --     2.2793                11.5196                11.5173
 Frc consts  --     0.0000                 0.0000                 0.0000
 IR Inten    --     3.9870                 0.7571                 0.9386
 Raman Activ --     0.0000                 0.0000                 0.0000
 Depolar     --     0.0000                 0.0000                 0.0000
 Atom AN      X      Y      Z        X      Y      Z        X      Y      Z
   1   7     0.00  -0.01   0.01    -0.01  -0.01  -0.00     0.00  -0.00   0.00
   2   6    -0.07  -0.08  -0.02    -0.04   0.01   0.01     0.01   0.03   0.00
   3   6    -0.16  -0.11  -0.07     0.00  -0.00   0.00     0.00   0.00  -0.00
   4   6     0.09   0.11   0.01     0.39  -0.28  -0.04    -0.12  -0.26  -0.01
   5   6    -0.08   0.01   0.00    -0.35   0.02   0.02     0.34   0.26   0.01
   6   6     0.01  -0.11  -0.01     0.18  -0.22  -0.02    -0.15  -0.45  -0.03
   7   6     0.04   0.06   0.00    -0.45   0.32   0.04     0.07   0.20   0.01
   8   6    -0.11  -0.02   0.00     0.37  -0.06  -0.02    -0.33  -0.27  -0.01
   9   6     0.04  -0.07  -0.01    -0.14   0.23   0.02     0.16   0.47   0.03
  10  17    -0.00  -0.00   0.00     0.00  -0.00  -0.00    -0.00   0.00   0.00
  11   1    -0.03   0.04  -0.00    -0.00  -0.00   0.00     0.00  -0.00  -0.00
  12   1     0.03  -0.02   0.01    -0.00   0.00  -0.01     0.00   0.00  -0.00
  13   1     0.02   0.04  -0.05     0.01   0.00   0.00     0.01   0.00   0.01
  14   1     0.03   0.01   0.01     0.06   0.05  -0.00     0.01   0.01  -0.00
  15   1    -0.15   0.41   0.22    -0.00  -0.00   0.00    -0.00  -0.01  -0.00
  16   1     0.54   0.25   0.32     0.00   0.00  -0.00    -0.01  -0.00  -0.00
  17   1     0.23  -0.19  -0.28     0.00  -0.00   0.00    -0.00   0.00   0.01
  18   1     0.05   0.04   0.00     0.06   0.06   0.00    -0.09  -0.00   0.00
  19   1     0.02   0.06   0.00     0.06   0.02  -0.00    -0.00   0.10   0.01
  20   1     0.02   0.01   0.00     0.09  -0.08  -0.01     0.05   0.03   0.00
  21   1     0.06   0.03   0.00    -0.04  -0.07  -0.00     0.09  -0.00  -0.00
  22   1     0.02   0.07   0.01    -0.06  -0.05  -0.00     0.00  -0.12  -0.01
                     49                     50                     51
                        a                      a                      a 
 Frequencies --  2889.1672              3012.7559              3021.8819
 Red. masses --     1.7554                 1.8747                 1.8343
 Frc consts  --     0.0000                 0.0000                 0.0000
 IR Inten    --    20.8281                42.5550                19.9492
 Raman Activ --     0.0000                 0.0000                 0.0000
 Depolar     --     0.0000                 0.0000                 0.0000
 Atom AN      X      Y      Z        X      Y      Z        X      Y      Z
   1   7     0.00   0.00   0.00    -0.00  -0.00   0.00     0.00  -0.00  -0.00
   2   6     0.14  -0.21  -0.07     0.00   0.01   0.00    -0.01   0.01   0.00
   3   6    -0.00   0.01  -0.00     0.16   0.22   0.06    -0.19   0.14  -0.13
   4   6     0.00  -0.01  -0.00    -0.00  -0.00  -0.00     0.00   0.00  -0.00
   5   6    -0.00   0.00   0.00    -0.00  -0.00  -0.00     0.00  -0.00  -0.00
   6   6     0.00  -0.00   0.00     0.00  -0.00  -0.00    -0.00   0.00   0.00
   7   6    -0.00   0.00   0.00     0.00   0.00   0.00     0.00  -0.00  -0.00
   8   6     0.00  -0.00   0.00    -0.00   0.00   0.00    -0.00   0.00   0.00
   9   6    -0.00   0.00  -0.00     0.00  -0.00  -0.00     0.00   0.00  -0.00
  10  17     0.00  -0.00  -0.00    -0.00  -0.00   0.00    -0.00   0.00   0.00
  11   1     0.00   0.00   0.00     0.00   0.00  -0.00     0.00   0.00  -0.00
  12   1     0.00   0.00   0.00     0.00   0.00  -0.00    -0.00  -0.00   0.00
  13   1     0.02  -0.02  -0.01     0.00  -0.00  -0.00    -0.01   0.01   0.01
  14   1    -0.51   0.78   0.25     0.01  -0.01  -0.00     0.01  -0.02  -0.01
  15   1     0.01   0.00   0.01    -0.14   0.07  -0.15     0.63  -0.12   0.61
  16   1     0.02  -0.03  -0.01     0.11  -0.10  -0.04     0.17  -0.27  -0.12
  17   1    -0.01  -0.01  -0.00    -0.55  -0.74  -0.02    -0.12  -0.10  -0.02
  18   1    -0.00  -0.00  -0.00    -0.00   0.00   0.00    -0.00   0.00   0.00
  19   1    -0.00   0.00  -0.00    -0.00   0.00   0.00     0.00  -0.00   0.00
  20   1     0.00   0.00  -0.00    -0.00  -0.00  -0.00    -0.00  -0.00   0.00
  21   1    -0.00   0.00   0.00     0.00  -0.00  -0.00     0.00  -0.00  -0.00
  22   1     0.00   0.00   0.00    -0.01   0.00   0.00    -0.00  -0.00  -0.00
                     52                     53                     54
                        a                      a                      a 
 Frequencies --  3039.8305              3086.6801              3092.4908
 Red. masses --     1.4589                 1.7501                 1.8094
 Frc consts  --     0.0000                 0.0000                 0.0000
 IR Inten    --    24.2947                15.4723               103.4815
 Raman Activ --     0.0000                 0.0000                 0.0000
 Depolar     --     0.0000                 0.0000                 0.0000
 Atom AN      X      Y      Z        X      Y      Z        X      Y      Z
   1   7    -0.00   0.00   0.00    -0.00   0.00   0.00    -0.00   0.00   0.00
   2   6     0.01  -0.01  -0.01    -0.00   0.00  -0.00    -0.00   0.00  -0.00
   3   6     0.10  -0.12  -0.12    -0.00  -0.00  -0.00     0.00  -0.00  -0.00
   4   6     0.00  -0.00  -0.00     0.00   0.00  -0.00     0.00  -0.00  -0.00
   5   6     0.00   0.00   0.00    -0.00   0.02   0.00     0.02  -0.06  -0.01
   6   6     0.00  -0.00   0.00     0.10  -0.02  -0.01    -0.20   0.03   0.01
   7   6     0.00   0.00   0.00    -0.12  -0.15  -0.01     0.01   0.02   0.00
   8   6     0.00  -0.00  -0.00    -0.06   0.14   0.01    -0.06   0.16   0.01
   9   6    -0.00   0.00   0.00     0.01   0.00  -0.00     0.01  -0.00  -0.00
  10  17     0.00  -0.00  -0.00     0.00  -0.00  -0.00     0.00  -0.00  -0.00
  11   1     0.00   0.00  -0.01    -0.00  -0.00   0.00    -0.00  -0.00   0.00
  12   1    -0.00  -0.00  -0.00     0.00   0.00   0.00     0.00   0.00   0.00
  13   1     0.00  -0.01  -0.00     0.00  -0.00  -0.00     0.00  -0.00  -0.00
  14   1    -0.01   0.02   0.01     0.00  -0.00  -0.00    -0.00   0.00   0.00
  15   1     0.25  -0.07   0.21     0.00  -0.00   0.00    -0.00   0.00  -0.00
  16   1    -0.48   0.71   0.25    -0.00   0.00   0.00    -0.00   0.00   0.00
  17   1    -0.13  -0.20  -0.02     0.00   0.00  -0.00     0.00   0.00   0.00
  18   1    -0.00  -0.00   0.00     0.03  -0.07  -0.01    -0.09   0.23   0.02
  19   1    -0.00   0.00   0.00    -0.36   0.06   0.02     0.70  -0.11  -0.04
  20   1    -0.00  -0.00  -0.00     0.44   0.54   0.02    -0.04  -0.06  -0.00
  21   1    -0.00   0.00   0.00     0.20  -0.52  -0.05     0.21  -0.55  -0.05
  22   1     0.01  -0.00   0.00    -0.04   0.01   0.00    -0.06   0.01   0.00
                     55                     56                     57
                        a                      a                      a 
 Frequencies --  3102.8159              3112.3260              3145.5254
 Red. masses --     1.8611                 1.8963                 1.8799
 Frc consts  --     0.0000                 0.0000                 0.0000
 IR Inten    --   181.7526                76.9025               145.4907
 Raman Activ --     0.0000                 0.0000                 0.0000
 Depolar     --     0.0000                 0.0000                 0.0000
 Atom AN      X      Y      Z        X      Y      Z        X      Y      Z
   1   7     0.00   0.00  -0.00    -0.00   0.01   0.00    -0.08   0.13   0.06
   2   6    -0.00   0.00  -0.00    -0.00  -0.00  -0.00    -0.01   0.00  -0.00
   3   6    -0.00  -0.00  -0.00    -0.00  -0.00   0.00    -0.00  -0.00  -0.00
   4   6     0.00   0.01   0.00    -0.00  -0.01  -0.00     0.00   0.01   0.00
   5   6    -0.06   0.14   0.01     0.08  -0.20  -0.02    -0.00   0.00   0.00
   6   6     0.07  -0.01  -0.00     0.14  -0.02  -0.01    -0.00   0.00   0.00
   7   6     0.11   0.13   0.01     0.06   0.08   0.00    -0.00  -0.00   0.00
   8   6    -0.05   0.13   0.01    -0.02   0.06   0.01     0.01  -0.02  -0.00
   9   6     0.01  -0.00  -0.00     0.00   0.00  -0.00     0.21  -0.03  -0.01
  10  17     0.00  -0.00   0.00     0.00  -0.00  -0.00     0.00  -0.00  -0.00
  11   1    -0.00  -0.00   0.00    -0.00   0.00   0.00     0.02   0.02  -0.04
  12   1     0.00   0.00   0.00     0.00   0.00   0.00    -0.05  -0.05   0.00
  13   1     0.00  -0.00  -0.00     0.02  -0.02  -0.01     0.34  -0.45  -0.15
  14   1    -0.00  -0.00  -0.00     0.00   0.00   0.00     0.01  -0.01  -0.00
  15   1     0.00  -0.00   0.00    -0.00  -0.00  -0.00     0.01  -0.00   0.01
  16   1     0.00  -0.00  -0.00    -0.00   0.00   0.00    -0.00   0.00  -0.00
  17   1     0.00   0.00   0.00     0.00   0.00   0.00     0.00   0.00  -0.00
  18   1     0.20  -0.51  -0.04    -0.27   0.69   0.06     0.00  -0.01  -0.00
  19   1    -0.26   0.04   0.01    -0.45   0.07   0.02     0.00  -0.00  -0.00
  20   1    -0.36  -0.45  -0.02    -0.20  -0.25  -0.01     0.01   0.01   0.00
  21   1     0.17  -0.44  -0.04     0.07  -0.19  -0.02    -0.03   0.07   0.01
  22   1    -0.04   0.01   0.00    -0.02   0.00   0.00    -0.75   0.12   0.04
                     58                     59                     60
                        a                      a                      a 
 Frequencies --  3152.8684              3234.0290              3246.8551
 Red. masses --     1.8959                 2.0268                 1.4482
 Frc consts  --     0.0000                 0.0000                 0.0000
 IR Inten    --   381.2692               162.1768                79.2009
 Raman Activ --     0.0000                 0.0000                 0.0000
 Depolar     --     0.0000                 0.0000                 0.0000
 Atom AN      X      Y      Z        X      Y      Z        X      Y      Z
   1   7     0.11  -0.17  -0.08     0.18   0.19  -0.11     0.01   0.03   0.18
   2   6     0.01  -0.01   0.00     0.00   0.00  -0.00     0.00  -0.00   0.00
   3   6     0.00  -0.00   0.00     0.00   0.00   0.00    -0.00  -0.00   0.00
   4   6     0.00   0.00   0.00    -0.00  -0.00  -0.00     0.00   0.00  -0.00
   5   6     0.00  -0.01  -0.00     0.00  -0.00   0.00     0.00  -0.00  -0.00
   6   6     0.00  -0.00  -0.00     0.00   0.00  -0.00     0.00  -0.00   0.00
   7   6    -0.00   0.00   0.00     0.00   0.00  -0.00     0.00   0.00   0.00
   8   6     0.01  -0.02  -0.00    -0.00   0.00   0.00    -0.00   0.00   0.00
   9   6     0.16  -0.03  -0.01    -0.00   0.00   0.00     0.00  -0.00  -0.00
  10  17     0.00   0.00   0.00    -0.00  -0.00   0.00     0.00  -0.00  -0.00
  11   1    -0.03  -0.04   0.08    -0.20  -0.09   0.46     0.34   0.17  -0.72
  12   1     0.07   0.07  -0.00    -0.46  -0.67  -0.07    -0.29  -0.42  -0.02
  13   1    -0.44   0.58   0.20    -0.01   0.06   0.00    -0.10   0.13   0.06
  14   1    -0.01   0.02   0.00    -0.00   0.00   0.00    -0.00   0.00   0.00
  15   1    -0.01   0.00  -0.01    -0.00   0.00  -0.00    -0.01   0.00  -0.01
  16   1    -0.01   0.01   0.01    -0.00   0.00   0.00     0.00  -0.00  -0.00
  17   1     0.00   0.00   0.00    -0.00  -0.01   0.00     0.00   0.00   0.00
  18   1    -0.01   0.02   0.00    -0.00   0.00   0.00    -0.00   0.00   0.00
  19   1    -0.01   0.00   0.00    -0.00   0.00   0.00    -0.00   0.00   0.00
  20   1    -0.00  -0.00  -0.00    -0.00  -0.00   0.00    -0.00  -0.00  -0.00
  21   1    -0.02   0.04   0.00     0.00  -0.00  -0.00     0.00  -0.00  -0.00
  22   1    -0.58   0.09   0.03     0.01  -0.00  -0.00    -0.01   0.00   0.00
