21
 energy: -29.297726638259 gnorm: 0.000273894098 xtb: 6.5.1 (fef0646)
N            3.11152700256778       -0.06060847203790       -0.93939525218209
C            2.56275075688881        0.50999705157941        0.32705025245667
C            3.01598540499127       -0.37908556972998        1.48624144079740
C            4.52205249914735       -0.44676166702774        1.49599363938441
C            5.26919394622383        0.51313494572507        2.17067045568632
C            6.64983469439910        0.49921096177678        2.11912142979940
C            7.30061990930020       -0.47901240509524        1.37707301838843
Br           9.20071708473997       -0.49262259342594        1.28498319190209
C            6.57397100506110       -1.45070917280393        0.70482188311894
C            5.18959465317792       -1.42713991925026        0.76038422096813
H            3.13182743844247        0.62286815430566       -1.70320600043322
H            2.56406079836762       -0.87597839355448       -1.23859244187663
H            4.08135239066767       -0.38562055093040       -0.70788740942729
H            1.47653924256332        0.56874164581181        0.26513033277502
H            2.96723496629170        1.51502049635762        0.45393474479812
H            2.58648819470213       -1.37683649330847        1.38514449962630
H            2.65045440466053        0.04853385508767        2.41857511585223
H            4.76765038120438        1.26992135782188        2.75420615915178
H            7.22315029935018        1.23883964478976        2.65441940614987
H            7.08568570372535       -2.22226151829689        0.15221844636011
H            4.63956922352789       -2.23401135779405        0.29264286670438
