 Entering Gaussian System
 *********************************************
 Gaussian 98:
 frequency output generated by the xtb code
 *********************************************
                         Standard orientation:
 --------------------------------------------------------------------
  Center     Atomic     Atomic              Coordinates (Angstroms)
  Number     Number      Type              X           Y           Z
 --------------------------------------------------------------------
    1          7             0        1.772458    1.468991    0.110391
    2          6             0        2.044109    0.276068   -0.745238
    3          6             0        1.865865   -1.058870   -0.015405
    4          6             0        0.517776   -1.255442    0.698850
    5          6             0       -0.734647   -1.153507   -0.206155
    6          6             0       -1.525600    0.108428    0.020745
    7          8             0       -2.776901    0.116974   -0.467701
    8          8             0       -1.036313    1.046887    0.600252
    9          1             0        0.770189    1.448437    0.372195
   10          1             0        1.952901    2.345269   -0.390681
   11          1             0        2.340171    1.455980    0.963899
   12          1             0        3.063268    0.352272   -1.146161
   13          1             0        1.381716    0.316380   -1.618546
   14          1             0        2.675597   -1.166623    0.717073
   15          1             0        2.013928   -1.882402   -0.725474
   16          1             0        0.418493   -0.523830    1.510370
   17          1             0        0.525073   -2.229711    1.207252
   18          1             0       -1.411661   -1.999273   -0.034942
   19          1             0       -0.455371   -1.218420   -1.262156
   20          1             0       -3.204846    0.955616   -0.285281
 --------------------------------------------------------------------
     1 basis functions        1 primitive gaussians
     1 alpha electrons        1 beta electrons

 Harmonic frequencies (cm**-1), IR intensities (km*mol⁻¹),
 Raman scattering activities (A**4/amu), Raman depolarization ratios,
 reduced masses (AMU), force constants (mDyne/A) and normal coordinates:
                      1                      2                      3
                        a                      a                      a 
 Frequencies --    45.2093               104.1527               159.0500
 Red. masses --    12.3139                11.7888                10.7413
 Frc consts  --     0.0000                 0.0000                 0.0000
 IR Inten    --     7.7832                 7.5192                35.3333
 Raman Activ --     0.0000                 0.0000                 0.0000
 Depolar     --     0.0000                 0.0000                 0.0000
 Atom AN      X      Y      Z        X      Y      Z        X      Y      Z
   1   7    -0.03  -0.03  -0.33    -0.17   0.07  -0.06     0.45  -0.08   0.16
   2   6     0.18  -0.17  -0.05    -0.32   0.06  -0.10     0.05   0.03  -0.12
   3   6     0.09  -0.04   0.16    -0.06   0.06  -0.04    -0.04  -0.03  -0.25
   4   6    -0.02   0.11  -0.02     0.04  -0.11   0.10     0.09   0.22   0.06
   5   6     0.12   0.19  -0.21    -0.04  -0.16   0.22    -0.04   0.01   0.24
   6   6    -0.05   0.04   0.05     0.13  -0.03   0.03    -0.14  -0.01   0.06
   7   8     0.03   0.06  -0.17     0.33   0.27  -0.42    -0.05  -0.18  -0.27
   8   8    -0.31  -0.15   0.59     0.12  -0.19   0.31    -0.38   0.05   0.15
   9   1    -0.00  -0.02  -0.08    -0.02  -0.01   0.08     0.12   0.05   0.04
  10   1    -0.04  -0.03  -0.14    -0.12   0.02  -0.05     0.20  -0.00   0.10
  11   1    -0.01   0.07  -0.09     0.04   0.05  -0.07     0.12  -0.13   0.04
  12   1     0.07  -0.05   0.04    -0.12   0.03  -0.10    -0.00  -0.02  -0.09
  13   1     0.10  -0.10  -0.05    -0.16   0.00   0.02    -0.03   0.08   0.01
  14   1    -0.01   0.03   0.09     0.01   0.05  -0.04     0.03  -0.08  -0.13
  15   1     0.06  -0.05   0.10    -0.01   0.02  -0.01    -0.11   0.00  -0.11
  16   1    -0.02   0.05  -0.02     0.01  -0.05   0.05     0.07   0.12  -0.03
  17   1    -0.05   0.05   0.02     0.05  -0.04   0.01     0.04   0.10   0.09
  18   1     0.05   0.03  -0.14    -0.04  -0.01   0.15     0.01   0.00   0.14
  19   1     0.08   0.13  -0.05    -0.05  -0.14   0.06    -0.06  -0.05   0.06
  20   1    -0.07  -0.06   0.11     0.13   0.11  -0.17    -0.05  -0.05  -0.14
                      4                      5                      6
                        a                      a                      a 
 Frequencies --   194.4951               227.9029               294.0487
 Red. masses --    10.1306                 8.2590                 3.6136
 Frc consts  --     0.0000                 0.0000                 0.0000
 IR Inten    --    42.3607                 4.5416                 6.3367
 Raman Activ --     0.0000                 0.0000                 0.0000
 Depolar     --     0.0000                 0.0000                 0.0000
 Atom AN      X      Y      Z        X      Y      Z        X      Y      Z
   1   7    -0.53  -0.30   0.08    -0.05   0.17  -0.14    -0.04  -0.04  -0.01
   2   6     0.10  -0.07  -0.02     0.47   0.11   0.10    -0.20  -0.01  -0.10
   3   6     0.11  -0.17  -0.21    -0.02   0.04  -0.10    -0.08   0.07   0.05
   4   6     0.21   0.06   0.03    -0.03   0.01  -0.09    -0.04   0.19   0.09
   5   6     0.12   0.15   0.16    -0.25  -0.23   0.17     0.09  -0.04  -0.10
   6   6     0.05   0.12   0.06    -0.12  -0.12   0.05     0.07  -0.07  -0.07
   7   8     0.13  -0.03  -0.06    -0.11   0.22  -0.02     0.06   0.07   0.02
   8   8    -0.10   0.28  -0.00     0.07  -0.23   0.04     0.14  -0.18   0.05
   9   1    -0.18  -0.12  -0.10    -0.05   0.05  -0.19    -0.10   0.24  -0.33
  10   1    -0.10  -0.04   0.10     0.08   0.04  -0.02     0.46  -0.00   0.19
  11   1    -0.26  -0.11   0.10    -0.17   0.06   0.07    -0.34  -0.32   0.21
  12   1     0.06   0.06   0.09     0.21   0.02   0.22    -0.07  -0.01  -0.06
  13   1     0.11  -0.03  -0.07     0.29   0.04  -0.09    -0.08   0.00  -0.01
  14   1     0.07  -0.11  -0.11    -0.03  -0.08  -0.01    -0.01   0.07   0.00
  15   1    -0.05  -0.03  -0.10    -0.03   0.04  -0.07    -0.02  -0.01   0.05
  16   1     0.12   0.03   0.00    -0.00   0.01  -0.03    -0.04   0.12  -0.04
  17   1     0.04   0.03   0.02     0.04   0.01  -0.01    -0.02   0.10   0.10
  18   1     0.04   0.05   0.06    -0.07  -0.05   0.17     0.04  -0.03  -0.05
  19   1     0.01   0.04   0.04    -0.15  -0.16   0.03     0.07  -0.01  -0.02
  20   1     0.01  -0.00  -0.09     0.07   0.11  -0.04     0.00  -0.02   0.16
                      7                      8                      9
                        a                      a                      a 
 Frequencies --   320.3989               351.9795               391.5096
 Red. masses --     8.4625                 8.0172                 3.2053
 Frc consts  --     0.0000                 0.0000                 0.0000
 IR Inten    --    13.8429                12.7130               150.8522
 Raman Activ --     0.0000                 0.0000                 0.0000
 Depolar     --     0.0000                 0.0000                 0.0000
 Atom AN      X      Y      Z        X      Y      Z        X      Y      Z
   1   7    -0.09  -0.25   0.17     0.03  -0.23   0.05     0.02   0.00  -0.04
   2   6     0.04  -0.01  -0.07     0.01  -0.02  -0.18    -0.02  -0.01  -0.03
   3   6     0.05   0.04  -0.02     0.41   0.19   0.19    -0.01   0.00   0.01
   4   6     0.04   0.47   0.05     0.19  -0.13  -0.18     0.02   0.02   0.08
   5   6     0.05  -0.08  -0.07    -0.09  -0.04   0.09     0.10   0.05  -0.04
   6   6    -0.06  -0.13  -0.15    -0.15   0.01   0.00    -0.16  -0.17   0.26
   7   8    -0.16   0.23   0.05    -0.22   0.21  -0.01    -0.12   0.05   0.09
   8   8     0.13  -0.30  -0.08    -0.19   0.05  -0.05     0.03  -0.09  -0.06
   9   1     0.02  -0.23   0.21    -0.00  -0.05  -0.03    -0.00   0.02  -0.03
  10   1    -0.28  -0.02   0.03     0.06  -0.01   0.11     0.04   0.00   0.01
  11   1     0.15   0.02  -0.07    -0.04  -0.17   0.04    -0.02  -0.02   0.00
  12   1     0.00   0.03  -0.04    -0.03   0.05  -0.14    -0.01  -0.01  -0.01
  13   1    -0.01   0.00  -0.00    -0.08  -0.06   0.01    -0.00   0.00  -0.01
  14   1     0.02   0.02  -0.01     0.04   0.26   0.17     0.01   0.00  -0.01
  15   1    -0.03  -0.03   0.03     0.32  -0.02   0.18    -0.02  -0.00   0.00
  16   1     0.01   0.26  -0.10     0.02  -0.12   0.02     0.01   0.02   0.01
  17   1     0.00   0.22   0.19     0.08  -0.08  -0.14    -0.00   0.01   0.03
  18   1     0.07  -0.06   0.02    -0.02   0.00   0.14     0.12  -0.11  -0.28
  19   1     0.03  -0.06  -0.01    -0.12  -0.09   0.00     0.13   0.32  -0.01
  20   1     0.04   0.07   0.15     0.03   0.10  -0.03     0.27   0.31  -0.64
                     10                     11                     12
                        a                      a                      a 
 Frequencies --   433.2194               496.4137               575.1212
 Red. masses --     9.9730                 7.2141                 9.7132
 Frc consts  --     0.0000                 0.0000                 0.0000
 IR Inten    --    35.8873                48.3590               119.2978
 Raman Activ --     0.0000                 0.0000                 0.0000
 Depolar     --     0.0000                 0.0000                 0.0000
 Atom AN      X      Y      Z        X      Y      Z        X      Y      Z
   1   7    -0.01  -0.24   0.03    -0.05   0.16   0.04     0.02  -0.03  -0.01
   2   6     0.14   0.05  -0.22    -0.14  -0.13   0.26     0.03   0.02  -0.04
   3   6    -0.17   0.28   0.07     0.24  -0.27   0.03    -0.13   0.06   0.01
   4   6    -0.28   0.16  -0.14     0.03   0.19  -0.37    -0.04  -0.03   0.08
   5   6    -0.23   0.03  -0.05    -0.15  -0.01  -0.13     0.18  -0.12  -0.16
   6   6     0.10   0.10   0.12     0.04   0.09  -0.00     0.30   0.04  -0.42
   7   8     0.24  -0.35   0.03     0.04  -0.15   0.11     0.03   0.02   0.36
   8   8     0.24   0.05   0.14     0.07   0.02   0.11    -0.40   0.06   0.11
   9   1     0.00  -0.15   0.04    -0.02   0.14  -0.02     0.01  -0.01   0.01
  10   1    -0.07   0.01   0.11     0.06  -0.03  -0.10    -0.00   0.01   0.02
  11   1     0.02  -0.13  -0.01    -0.03   0.12   0.03     0.01  -0.03  -0.01
  12   1     0.07  -0.01   0.02    -0.10   0.03  -0.05     0.03  -0.02   0.04
  13   1     0.11   0.04  -0.11    -0.15  -0.10   0.16     0.05   0.02  -0.04
  14   1    -0.12   0.18   0.11     0.02  -0.09   0.07    -0.01  -0.00  -0.03
  15   1     0.05   0.01   0.12     0.12  -0.05  -0.01    -0.08   0.01   0.00
  16   1    -0.13   0.02  -0.03     0.04   0.21  -0.23    -0.07  -0.03   0.03
  17   1    -0.04   0.04  -0.05    -0.07   0.15   0.08     0.01  -0.02   0.00
  18   1    -0.10   0.04   0.03    -0.06   0.05   0.16    -0.06   0.08   0.14
  19   1    -0.12  -0.01  -0.03    -0.21  -0.14  -0.07     0.05  -0.30  -0.02
  20   1    -0.04  -0.08  -0.26     0.04   0.04  -0.27     0.30   0.22  -0.20
                     13                     14                     15
                        a                      a                      a 
 Frequencies --   608.0925               784.5313               817.3158
 Red. masses --    11.1335                 5.7103                 5.5557
 Frc consts  --     0.0000                 0.0000                 0.0000
 IR Inten    --    49.7960                23.8159                74.0442
 Raman Activ --     0.0000                 0.0000                 0.0000
 Depolar     --     0.0000                 0.0000                 0.0000
 Atom AN      X      Y      Z        X      Y      Z        X      Y      Z
   1   7     0.01   0.00   0.02    -0.03   0.14   0.07     0.03   0.04  -0.04
   2   6    -0.01   0.00  -0.01    -0.04   0.09  -0.18     0.26   0.12  -0.11
   3   6    -0.04  -0.00  -0.02     0.05  -0.21  -0.14     0.27  -0.01   0.12
   4   6    -0.09   0.00  -0.17    -0.00  -0.30   0.14    -0.14  -0.08   0.22
   5   6    -0.06  -0.30  -0.06    -0.05  -0.21   0.04    -0.20  -0.24  -0.14
   6   6     0.10  -0.28   0.36     0.03   0.21  -0.15    -0.00   0.11  -0.03
   7   8     0.40   0.15   0.02    -0.14   0.00   0.01     0.04   0.01   0.03
   8   8    -0.35   0.28  -0.17     0.06   0.09   0.12    -0.01   0.10   0.07
   9   1     0.01   0.01   0.02     0.01   0.06   0.08    -0.02  -0.20  -0.13
  10   1    -0.02  -0.00  -0.01     0.00   0.07   0.07    -0.12   0.11   0.12
  11   1     0.03   0.01  -0.01     0.06  -0.05  -0.03    -0.13   0.02   0.08
  12   1     0.01  -0.00   0.02     0.06   0.03   0.13    -0.07   0.11  -0.37
  13   1     0.02   0.01  -0.01     0.14   0.10  -0.16    -0.22  -0.07   0.18
  14   1    -0.06   0.06   0.06    -0.04   0.22   0.07     0.16  -0.24  -0.11
  15   1     0.07  -0.02   0.03     0.27  -0.12   0.10    -0.17   0.06  -0.10
  16   1    -0.06   0.13  -0.16     0.08   0.20  -0.21    -0.14   0.01   0.01
  17   1     0.00   0.09   0.12    -0.04   0.09   0.37    -0.02   0.01   0.12
  18   1     0.02  -0.14  -0.12    -0.07  -0.04  -0.17    -0.10  -0.06  -0.15
  19   1    -0.04   0.10  -0.04     0.16   0.05   0.05     0.04   0.01  -0.02
  20   1     0.18   0.03   0.25    -0.15  -0.04  -0.08    -0.11  -0.04  -0.06
                     16                     17                     18
                        a                      a                      a 
 Frequencies --   863.4045               891.0721               909.9269
 Red. masses --     8.4053                 4.3865                 7.0632
 Frc consts  --     0.0000                 0.0000                 0.0000
 IR Inten    --    12.3530                42.1026                75.6516
 Raman Activ --     0.0000                 0.0000                 0.0000
 Depolar     --     0.0000                 0.0000                 0.0000
 Atom AN      X      Y      Z        X      Y      Z        X      Y      Z
   1   7    -0.01  -0.20  -0.10    -0.11   0.22  -0.08     0.07   0.21   0.12
   2   6    -0.13  -0.01   0.19    -0.07   0.06  -0.17     0.10  -0.05  -0.20
   3   6    -0.07   0.26   0.08     0.17  -0.19   0.20    -0.23  -0.18   0.01
   4   6     0.17  -0.05  -0.02    -0.04   0.01   0.08    -0.01  -0.08   0.00
   5   6     0.19  -0.37  -0.27     0.00   0.12  -0.16     0.38   0.05  -0.21
   6   6    -0.08   0.14   0.19    -0.04  -0.09   0.14    -0.10  -0.06   0.28
   7   8    -0.16   0.09  -0.06     0.04  -0.00  -0.02    -0.11   0.05  -0.08
   8   8     0.09   0.22   0.08     0.01  -0.03  -0.07     0.07   0.08  -0.02
   9   1     0.02   0.07   0.05     0.04   0.11   0.24    -0.02  -0.19  -0.13
  10   1     0.07  -0.10  -0.09     0.03   0.22   0.28    -0.16   0.14   0.11
  11   1     0.08  -0.08  -0.08     0.22  -0.41  -0.19    -0.16   0.16   0.15
  12   1     0.02  -0.05   0.17     0.05   0.12   0.15    -0.00  -0.11  -0.14
  13   1     0.07  -0.04  -0.03     0.15  -0.15  -0.17    -0.06   0.11   0.02
  14   1     0.07  -0.06  -0.09     0.13  -0.18  -0.06    -0.09   0.09   0.06
  15   1    -0.15   0.15  -0.09    -0.14  -0.03  -0.02     0.01  -0.14   0.13
  16   1    -0.11   0.03  -0.06    -0.06  -0.02   0.04    -0.02   0.01  -0.03
  17   1     0.16   0.02   0.06    -0.12  -0.02  -0.01    -0.05  -0.00   0.04
  18   1     0.09  -0.11   0.05    -0.01   0.07   0.13     0.11   0.06   0.27
  19   1    -0.02  -0.16  -0.09    -0.16  -0.08  -0.07    -0.08  -0.27  -0.08
  20   1    -0.29  -0.08  -0.15     0.04   0.01   0.02    -0.07  -0.01  -0.05
                     19                     20                     21
                        a                      a                      a 
 Frequencies --   972.0739               978.8231              1019.8501
 Red. masses --     7.1792                 5.8763                 9.8321
 Frc consts  --     0.0000                 0.0000                 0.0000
 IR Inten    --    23.2003                16.4940               356.9083
 Raman Activ --     0.0000                 0.0000                 0.0000
 Depolar     --     0.0000                 0.0000                 0.0000
 Atom AN      X      Y      Z        X      Y      Z        X      Y      Z
   1   7     0.08  -0.27  -0.17    -0.04  -0.07   0.22    -0.11  -0.02   0.08
   2   6    -0.04   0.29   0.17    -0.02  -0.01  -0.17     0.13   0.01  -0.09
   3   6     0.04   0.13   0.01     0.22  -0.05  -0.12     0.03  -0.02  -0.02
   4   6    -0.04  -0.34   0.14    -0.04   0.07   0.34    -0.17   0.06  -0.07
   5   6     0.03   0.32  -0.10    -0.17   0.03  -0.29     0.11  -0.12   0.06
   6   6    -0.02  -0.10   0.11    -0.07  -0.06   0.12     0.28   0.00   0.14
   7   8    -0.06  -0.08  -0.08     0.11   0.02   0.02    -0.47  -0.19  -0.27
   8   8     0.03  -0.06  -0.05    -0.02  -0.02  -0.05     0.17   0.23   0.15
   9   1     0.01  -0.09  -0.09    -0.02   0.22   0.02    -0.01   0.17   0.08
  10   1    -0.01  -0.08  -0.07     0.13  -0.26  -0.31     0.09  -0.09  -0.09
  11   1    -0.02  -0.01  -0.02     0.01   0.27   0.05     0.06   0.02  -0.04
  12   1    -0.01   0.01   0.02     0.04   0.10   0.07    -0.01   0.17  -0.10
  13   1    -0.02   0.08   0.05     0.07   0.16  -0.10    -0.04  -0.07   0.03
  14   1     0.06   0.01  -0.05     0.19   0.17  -0.14    -0.04  -0.06   0.04
  15   1     0.08   0.17  -0.14    -0.04  -0.16   0.12    -0.05  -0.05   0.03
  16   1     0.03   0.17  -0.18    -0.08  -0.08   0.17    -0.11  -0.03   0.01
  17   1    -0.15   0.06   0.33    -0.04  -0.05  -0.05     0.01  -0.00  -0.05
  18   1    -0.12   0.21   0.11    -0.10   0.07   0.03    -0.03  -0.00  -0.05
  19   1    -0.16  -0.06  -0.06    -0.08  -0.12  -0.08     0.08  -0.04   0.03
  20   1     0.22   0.08   0.11    -0.03  -0.02  -0.03     0.37   0.15   0.21
                     22                     23                     24
                        a                      a                      a 
 Frequencies --  1028.8634              1075.5696              1103.0512
 Red. masses --     6.5223                 7.7134                 5.6570
 Frc consts  --     0.0000                 0.0000                 0.0000
 IR Inten    --    35.7195                34.5034                14.6643
 Raman Activ --     0.0000                 0.0000                 0.0000
 Depolar     --     0.0000                 0.0000                 0.0000
 Atom AN      X      Y      Z        X      Y      Z        X      Y      Z
   1   7     0.08   0.18   0.11    -0.17   0.08   0.26    -0.08   0.15   0.06
   2   6    -0.15  -0.33  -0.08     0.22  -0.24  -0.28     0.11  -0.38   0.07
   3   6    -0.01   0.15   0.10    -0.09   0.24   0.11     0.01   0.25  -0.24
   4   6     0.32  -0.03   0.05    -0.03  -0.28  -0.12    -0.03   0.01   0.12
   5   6    -0.26  -0.01  -0.11     0.16   0.14   0.16    -0.09   0.08  -0.14
   6   6     0.12   0.04  -0.05    -0.05   0.01  -0.11    -0.08  -0.07   0.17
   7   8    -0.13  -0.13  -0.09     0.09   0.06   0.07     0.03   0.00  -0.02
   8   8     0.04   0.06   0.06    -0.04  -0.12  -0.06     0.01  -0.01  -0.04
   9   1    -0.00  -0.13  -0.06    -0.03   0.24   0.11    -0.00   0.05   0.07
  10   1    -0.13   0.12   0.11     0.11  -0.12  -0.12     0.01   0.07   0.09
  11   1    -0.11   0.09   0.11     0.07   0.10  -0.01     0.05  -0.08  -0.03
  12   1     0.03  -0.30   0.13     0.02   0.07  -0.14     0.00  -0.08  -0.04
  13   1     0.08   0.03  -0.11    -0.03  -0.17  -0.01    -0.04  -0.25   0.07
  14   1     0.16   0.06  -0.15    -0.01  -0.10  -0.02    -0.08   0.04   0.03
  15   1    -0.14   0.04  -0.00    -0.16   0.09  -0.04     0.19   0.17  -0.15
  16   1    -0.01   0.03  -0.03    -0.12   0.11  -0.21     0.15   0.03   0.03
  17   1     0.15   0.02   0.06     0.05   0.04   0.19     0.06   0.01   0.03
  18   1    -0.09   0.00  -0.08     0.07   0.03   0.07    -0.27   0.20  -0.09
  19   1    -0.24   0.18  -0.09    -0.18   0.16  -0.03     0.36  -0.31   0.09
  20   1     0.24   0.08   0.13    -0.10  -0.04  -0.05     0.01   0.00  -0.01
                     25                     26                     27
                        a                      a                      a 
 Frequencies --  1112.9289              1162.4292              1169.4707
 Red. masses --     6.8804                 5.9774                 8.3115
 Frc consts  --     0.0000                 0.0000                 0.0000
 IR Inten    --    11.7528                 2.0753               194.6416
 Raman Activ --     0.0000                 0.0000                 0.0000
 Depolar     --     0.0000                 0.0000                 0.0000
 Atom AN      X      Y      Z        X      Y      Z        X      Y      Z
   1   7    -0.11  -0.03  -0.07    -0.02   0.07  -0.05    -0.00   0.01   0.01
   2   6     0.24   0.13   0.10     0.06  -0.20   0.20     0.01  -0.00  -0.00
   3   6    -0.34  -0.10  -0.06     0.11   0.09  -0.39    -0.01  -0.01  -0.01
   4   6     0.40  -0.00   0.21    -0.28   0.02   0.27    -0.01  -0.06  -0.01
   5   6    -0.19   0.01  -0.24     0.12  -0.05  -0.02    -0.02  -0.04  -0.07
   6   6     0.02   0.01  -0.02     0.08   0.04  -0.09    -0.61   0.33  -0.10
   7   8     0.01  -0.02  -0.00    -0.04  -0.00   0.00     0.25  -0.19   0.02
   8   8    -0.01  -0.00  -0.00     0.00   0.03   0.03     0.10   0.04   0.06
   9   1    -0.01   0.09   0.07     0.01  -0.02   0.04     0.00   0.00   0.01
  10   1     0.08  -0.01   0.01    -0.01   0.07   0.08     0.02  -0.01  -0.02
  11   1     0.10  -0.12  -0.10     0.01  -0.09  -0.02     0.01  -0.01  -0.01
  12   1    -0.03   0.16  -0.18    -0.01  -0.02  -0.01     0.00   0.04   0.00
  13   1    -0.12  -0.09   0.16    -0.03  -0.13   0.09    -0.00  -0.03   0.00
  14   1    -0.24   0.04   0.17     0.01   0.20  -0.05     0.00   0.00  -0.01
  15   1     0.01  -0.14   0.14     0.25   0.06  -0.09    -0.01  -0.02   0.01
  16   1     0.17  -0.01   0.07    -0.13  -0.04   0.11    -0.05  -0.01  -0.02
  17   1     0.25  -0.01   0.03    -0.12  -0.03   0.01     0.08  -0.00   0.03
  18   1    -0.04   0.00  -0.02     0.30  -0.19   0.14     0.26  -0.19   0.09
  19   1    -0.24   0.10  -0.12    -0.38   0.19  -0.13     0.15  -0.12   0.03
  20   1     0.03   0.01   0.01    -0.01  -0.00   0.00     0.40   0.11   0.20
                     28                     29                     30
                        a                      a                      a 
 Frequencies --  1198.4054              1239.9903              1271.9501
 Red. masses --     3.0363                 3.0459                 2.2235
 Frc consts  --     0.0000                 0.0000                 0.0000
 IR Inten    --    12.1370                26.8113                 2.5935
 Raman Activ --     0.0000                 0.0000                 0.0000
 Depolar     --     0.0000                 0.0000                 0.0000
 Atom AN      X      Y      Z        X      Y      Z        X      Y      Z
   1   7    -0.01  -0.03   0.12    -0.26   0.03  -0.06    -0.13   0.01   0.03
   2   6    -0.01   0.04  -0.24     0.25  -0.03   0.12    -0.01   0.05  -0.12
   3   6    -0.07   0.02   0.19    -0.03   0.04   0.06     0.12  -0.15   0.03
   4   6     0.04   0.04   0.09     0.02  -0.03  -0.10    -0.04   0.10   0.11
   5   6    -0.12  -0.08  -0.12    -0.05  -0.02   0.02     0.06  -0.00  -0.01
   6   6     0.07   0.01  -0.01     0.01  -0.00   0.00    -0.05   0.02  -0.01
   7   8    -0.02  -0.02  -0.01    -0.01  -0.00  -0.01     0.02  -0.01   0.00
   8   8     0.01   0.06   0.04     0.00   0.02   0.01     0.01  -0.02  -0.01
   9   1    -0.02   0.05  -0.03    -0.03   0.09   0.12    -0.03   0.04   0.03
  10   1     0.03  -0.07  -0.06     0.12  -0.00   0.03     0.08  -0.04  -0.04
  11   1     0.00   0.11   0.03     0.15  -0.15  -0.16     0.06  -0.02  -0.06
  12   1     0.02  -0.06  -0.02     0.01  -0.44  -0.18     0.02  -0.40  -0.06
  13   1     0.03  -0.03  -0.09    -0.11   0.42   0.18    -0.01   0.38  -0.01
  14   1    -0.11  -0.19   0.12     0.23   0.21  -0.21    -0.19  -0.27   0.22
  15   1     0.18   0.30  -0.25    -0.10  -0.07   0.09     0.28   0.20  -0.23
  16   1     0.52  -0.01   0.10     0.14   0.01  -0.03    -0.30  -0.04   0.05
  17   1    -0.39  -0.03  -0.05    -0.27  -0.01  -0.02     0.34   0.01  -0.00
  18   1     0.22  -0.21   0.04     0.06  -0.06   0.01    -0.08   0.08   0.02
  19   1    -0.05  -0.03  -0.04     0.08  -0.04   0.03    -0.07   0.07  -0.03
  20   1     0.01   0.00   0.00     0.01   0.00   0.00     0.02   0.00   0.01
                     31                     32                     33
                        a                      a                      a 
 Frequencies --  1312.4065              1333.0397              1359.4691
 Red. masses --     5.4012                 3.6808                 4.3029
 Frc consts  --     0.0000                 0.0000                 0.0000
 IR Inten    --    76.3009                44.2700                 7.1027
 Raman Activ --     0.0000                 0.0000                 0.0000
 Depolar     --     0.0000                 0.0000                 0.0000
 Atom AN      X      Y      Z        X      Y      Z        X      Y      Z
   1   7     0.01  -0.02  -0.04    -0.05   0.09   0.18     0.01  -0.03  -0.09
   2   6    -0.01  -0.05   0.01    -0.05   0.35  -0.00    -0.09  -0.15   0.04
   3   6     0.02  -0.02   0.03     0.14   0.07  -0.17     0.31   0.31  -0.19
   4   6    -0.10  -0.12  -0.02     0.01  -0.05   0.01    -0.10  -0.10   0.05
   5   6    -0.35   0.36  -0.08    -0.06   0.07   0.00     0.04  -0.03  -0.04
   6   6     0.28  -0.14   0.04     0.05  -0.03   0.01    -0.02   0.02  -0.01
   7   8    -0.07   0.03  -0.01    -0.02   0.00  -0.00     0.00  -0.01   0.00
   8   8    -0.03   0.02  -0.00    -0.00   0.01   0.01     0.00   0.00   0.00
   9   1     0.01   0.04   0.02    -0.05  -0.17  -0.14     0.02   0.06   0.06
  10   1    -0.03   0.03   0.03     0.08  -0.13  -0.17    -0.04   0.07   0.09
  11   1    -0.02   0.01   0.01     0.10  -0.09  -0.04    -0.05   0.02   0.01
  12   1    -0.00   0.06   0.01     0.02  -0.52  -0.02    -0.00   0.03   0.07
  13   1     0.00   0.11   0.00     0.03  -0.48  -0.05    -0.01   0.32   0.02
  14   1     0.03  -0.03  -0.02    -0.10  -0.09   0.09    -0.30  -0.32   0.30
  15   1     0.01  -0.00   0.00    -0.13  -0.19   0.16    -0.31  -0.23   0.24
  16   1    -0.04   0.01  -0.05    -0.05  -0.01  -0.00     0.26   0.02   0.01
  17   1     0.37   0.03   0.11    -0.05   0.01   0.04    -0.05  -0.00   0.05
  18   1     0.46  -0.31   0.12     0.09  -0.07  -0.02     0.00   0.00   0.03
  19   1     0.22  -0.20   0.08     0.03  -0.06   0.02    -0.05   0.03  -0.03
  20   1    -0.08  -0.02  -0.05    -0.01  -0.00  -0.01     0.01   0.00   0.00
                     34                     35                     36
                        a                      a                      a 
 Frequencies --  1363.1958              1378.2656              1399.1306
 Red. masses --     3.9196                 2.8426                 1.4861
 Frc consts  --     0.0000                 0.0000                 0.0000
 IR Inten    --     3.0288               301.8226                73.4355
 Raman Activ --     0.0000                 0.0000                 0.0000
 Depolar     --     0.0000                 0.0000                 0.0000
 Atom AN      X      Y      Z        X      Y      Z        X      Y      Z
   1   7     0.03  -0.03  -0.05     0.02  -0.31  -0.09     0.16   0.06   0.01
   2   6     0.01  -0.06  -0.01     0.02   0.18  -0.02     0.06   0.05  -0.01
   3   6    -0.04   0.06  -0.11     0.02  -0.04  -0.02    -0.01  -0.01   0.02
   4   6     0.45  -0.01   0.04    -0.05   0.01   0.02    -0.05   0.00   0.00
   5   6    -0.14   0.08   0.05     0.02  -0.01  -0.01     0.01  -0.02  -0.02
   6   6     0.03  -0.03   0.01    -0.02   0.02   0.00    -0.01   0.01   0.00
   7   8    -0.00   0.00   0.00     0.01  -0.00   0.00     0.00  -0.00   0.00
   8   8     0.01   0.02   0.01     0.00  -0.02  -0.01     0.00  -0.01  -0.01
   9   1     0.03   0.11   0.11     0.01   0.55   0.07     0.06   0.34   0.16
  10   1    -0.07   0.03   0.02    -0.18   0.23   0.39    -0.53  -0.09  -0.36
  11   1    -0.10   0.02   0.06    -0.04   0.40   0.03    -0.32  -0.47   0.21
  12   1     0.00   0.04   0.01     0.03  -0.27   0.00     0.01  -0.11  -0.04
  13   1    -0.02   0.05   0.02    -0.02  -0.23   0.01    -0.02  -0.00   0.02
  14   1    -0.17  -0.09   0.13     0.03   0.04  -0.02     0.03  -0.01  -0.03
  15   1     0.03   0.01  -0.02    -0.01  -0.02   0.01     0.02  -0.01   0.01
  16   1    -0.56  -0.03  -0.04     0.02   0.02  -0.01     0.08   0.01   0.00
  17   1    -0.52  -0.01  -0.00     0.06  -0.02  -0.04     0.05  -0.01  -0.01
  18   1     0.08  -0.09  -0.08    -0.01   0.01   0.01    -0.02   0.02   0.03
  19   1     0.08  -0.13   0.05    -0.00   0.01  -0.00     0.00   0.04  -0.00
  20   1    -0.01  -0.00  -0.00     0.01   0.00   0.00     0.00   0.00   0.00
                     37                     38                     39
                        a                      a                      a 
 Frequencies --  1414.5655              1427.4675              1486.3967
 Red. masses --     1.6769                 1.9148                 1.8372
 Frc consts  --     0.0000                 0.0000                 0.0000
 IR Inten    --   128.8906                46.0992                 8.9211
 Raman Activ --     0.0000                 0.0000                 0.0000
 Depolar     --     0.0000                 0.0000                 0.0000
 Atom AN      X      Y      Z        X      Y      Z        X      Y      Z
   1   7    -0.04   0.03  -0.20    -0.00  -0.00   0.03     0.00   0.00  -0.01
   2   6     0.01   0.08  -0.03    -0.01  -0.01   0.04     0.06   0.03  -0.26
   3   6    -0.00  -0.02   0.00    -0.01   0.02  -0.02    -0.04   0.03  -0.00
   4   6    -0.03   0.00  -0.04     0.05  -0.02  -0.00    -0.01   0.00  -0.01
   5   6    -0.00  -0.02  -0.03    -0.12  -0.14  -0.19    -0.01  -0.02  -0.02
   6   6     0.01   0.00   0.01     0.05  -0.00   0.02     0.01  -0.00  -0.00
   7   8    -0.00   0.00  -0.00    -0.02  -0.00  -0.01    -0.00   0.00  -0.00
   8   8    -0.01  -0.01  -0.02    -0.01  -0.02  -0.01    -0.00  -0.00  -0.00
   9   1     0.18  -0.23   0.68    -0.02   0.00  -0.08    -0.00  -0.03  -0.04
  10   1     0.34  -0.05  -0.01    -0.01   0.01   0.01     0.01  -0.01  -0.01
  11   1    -0.39   0.13   0.24     0.05   0.01  -0.03     0.02  -0.02  -0.02
  12   1     0.01  -0.10   0.00    -0.03   0.02  -0.08     0.25  -0.01   0.61
  13   1    -0.01  -0.11  -0.01     0.06  -0.03  -0.05    -0.53  -0.03   0.39
  14   1     0.01   0.01  -0.01    -0.01  -0.01   0.00     0.05  -0.10  -0.07
  15   1     0.00  -0.00  -0.00     0.01  -0.00   0.00     0.11  -0.04   0.06
  16   1     0.05  -0.05   0.05    -0.07  -0.01  -0.01    -0.01  -0.01   0.01
  17   1     0.03   0.04   0.07    -0.08   0.00   0.01     0.00   0.01   0.01
  18   1    -0.01   0.02   0.07    -0.03   0.15   0.66    -0.00   0.02   0.07
  19   1     0.04   0.05   0.00     0.41   0.51   0.07     0.05   0.07   0.01
  20   1    -0.00  -0.00   0.00     0.01   0.00   0.00    -0.00   0.00  -0.00
                     40                     41                     42
                        a                      a                      a 
 Frequencies --  1497.8341              1509.5033              1736.7583
 Red. masses --     1.9067                 1.8722                13.3115
 Frc consts  --     0.0000                 0.0000                 0.0000
 IR Inten    --     4.7125                 2.2878               742.9699
 Raman Activ --     0.0000                 0.0000                 0.0000
 Depolar     --     0.0000                 0.0000                 0.0000
 Atom AN      X      Y      Z        X      Y      Z        X      Y      Z
   1   7     0.00   0.01   0.01    -0.01   0.02  -0.02     0.01  -0.00  -0.00
   2   6     0.03   0.00  -0.05     0.00   0.01  -0.02     0.00   0.00  -0.00
   3   6     0.19  -0.20   0.01     0.04  -0.04   0.01     0.00   0.00   0.00
   4   6     0.01  -0.00  -0.05    -0.02  -0.05   0.26    -0.00  -0.01  -0.01
   5   6    -0.01   0.00  -0.01    -0.02   0.00   0.01    -0.01   0.05   0.01
   6   6     0.01  -0.00   0.00     0.00  -0.02  -0.01    -0.27  -0.64  -0.37
   7   8    -0.00   0.00  -0.00    -0.01   0.00  -0.00     0.03   0.03   0.02
   8   8    -0.00  -0.00  -0.00     0.01   0.02   0.01     0.23   0.47   0.29
   9   1    -0.00   0.01  -0.02     0.02  -0.08   0.06    -0.02   0.02   0.02
  10   1    -0.02  -0.01  -0.02     0.05  -0.02  -0.02     0.00  -0.00   0.00
  11   1     0.01  -0.03  -0.00    -0.03  -0.01   0.02    -0.00   0.00  -0.00
  12   1     0.05  -0.01   0.11     0.02  -0.01   0.04     0.00  -0.00  -0.00
  13   1    -0.10  -0.01   0.08    -0.03  -0.01   0.02     0.00  -0.01  -0.00
  14   1    -0.20   0.54   0.31    -0.04   0.09   0.06     0.00  -0.00  -0.00
  15   1    -0.51   0.20  -0.36    -0.10   0.03  -0.06    -0.00  -0.00   0.00
  16   1    -0.00  -0.09   0.08    -0.00   0.50  -0.45     0.01  -0.02   0.01
  17   1     0.00   0.05   0.11     0.05  -0.30  -0.57     0.01   0.01   0.02
  18   1     0.00   0.00   0.02     0.02  -0.01   0.03    -0.04   0.04   0.03
  19   1     0.03   0.01   0.00     0.03   0.00   0.01    -0.00   0.04  -0.01
  20   1    -0.00   0.00  -0.00    -0.00  -0.00  -0.00    -0.06  -0.02  -0.03
                     43                     44                     45
                        a                      a                      a 
 Frequencies --  2911.4252              2927.4343              2936.6996
 Red. masses --     1.9210                 1.9165                 1.9317
 Frc consts  --     0.0000                 0.0000                 0.0000
 IR Inten    --    20.4005                15.2070                10.8168
 Raman Activ --     0.0000                 0.0000                 0.0000
 Depolar     --     0.0000                 0.0000                 0.0000
 Atom AN      X      Y      Z        X      Y      Z        X      Y      Z
   1   7     0.00   0.00  -0.00    -0.00  -0.00   0.00     0.00   0.00  -0.00
   2   6     0.00  -0.00   0.00     0.05  -0.00   0.02     0.00  -0.00   0.00
   3   6     0.00  -0.02  -0.02    -0.12  -0.10  -0.23     0.02   0.01   0.03
   4   6    -0.01   0.28   0.00    -0.01  -0.02   0.04    -0.00   0.06   0.04
   5   6    -0.03  -0.03   0.02     0.02   0.02  -0.01     0.16   0.15  -0.17
   6   6    -0.00  -0.00  -0.00     0.00   0.00  -0.00     0.01   0.01  -0.00
   7   8    -0.00   0.00  -0.00     0.00   0.00   0.00    -0.00  -0.00  -0.00
   8   8    -0.00  -0.00  -0.00    -0.00   0.00  -0.00    -0.00  -0.00  -0.00
   9   1    -0.00  -0.00   0.00     0.00   0.00  -0.00    -0.01  -0.00   0.00
  10   1     0.00  -0.00  -0.00     0.00   0.00  -0.00     0.00  -0.00  -0.00
  11   1     0.00  -0.00   0.00     0.00   0.00   0.00     0.00  -0.00   0.00
  12   1    -0.00   0.00   0.00    -0.08  -0.01   0.04     0.00   0.00  -0.00
  13   1    -0.01   0.00  -0.01    -0.10   0.01  -0.13    -0.00   0.00   0.00
  14   1     0.01  -0.00   0.00     0.52  -0.08   0.47    -0.08   0.01  -0.08
  15   1    -0.02   0.09   0.08    -0.09   0.44   0.37     0.01  -0.04  -0.03
  16   1     0.04  -0.31  -0.37     0.01  -0.09  -0.09     0.02  -0.18  -0.20
  17   1     0.00  -0.71   0.36    -0.00   0.14  -0.06    -0.00  -0.03   0.02
  18   1     0.11   0.14  -0.03    -0.05  -0.06   0.01    -0.45  -0.59   0.12
  19   1     0.01  -0.01  -0.04    -0.01   0.01   0.05    -0.12   0.05   0.50
  20   1     0.00  -0.00  -0.00    -0.00  -0.00  -0.00    -0.00   0.00   0.00
                     46                     47                     48
                        a                      a                      a 
 Frequencies --  2945.4591              2951.2160              2958.0446
 Red. masses --     1.9255                 1.5768                 1.5758
 Frc consts  --     0.0000                 0.0000                 0.0000
 IR Inten    --    10.2375                40.5674                49.7937
 Raman Activ --     0.0000                 0.0000                 0.0000
 Depolar     --     0.0000                 0.0000                 0.0000
 Atom AN      X      Y      Z        X      Y      Z        X      Y      Z
   1   7    -0.01  -0.00   0.00     0.00   0.00  -0.00     0.01  -0.00  -0.00
   2   6     0.27   0.01   0.04     0.02   0.00  -0.01    -0.08   0.00  -0.02
   3   6    -0.01   0.06   0.04     0.01   0.03   0.05    -0.14   0.15   0.00
   4   6    -0.00   0.01  -0.02    -0.02   0.02   0.21    -0.01   0.03  -0.00
   5   6     0.00  -0.00  -0.01    -0.04  -0.05   0.02     0.01   0.01  -0.01
   6   6    -0.00  -0.00  -0.00    -0.00  -0.00   0.00     0.00   0.00   0.00
   7   8     0.00  -0.00  -0.00     0.00   0.00   0.00    -0.00  -0.00  -0.00
   8   8     0.00   0.00   0.00    -0.00  -0.00  -0.00    -0.00  -0.00  -0.00
   9   1     0.04   0.00  -0.01    -0.01  -0.00   0.00    -0.02  -0.00   0.01
  10   1    -0.00   0.00  -0.00    -0.00  -0.00   0.00     0.00   0.00  -0.00
  11   1     0.01  -0.00   0.01    -0.00  -0.00  -0.00    -0.00   0.00  -0.00
  12   1    -0.68  -0.05   0.27    -0.08  -0.00   0.03     0.19   0.01  -0.08
  13   1    -0.30   0.02  -0.42     0.01   0.00   0.01     0.10  -0.00   0.13
  14   1     0.04   0.00   0.05    -0.07   0.01  -0.06     0.45  -0.04   0.44
  15   1     0.03  -0.22  -0.20     0.02  -0.12  -0.10     0.06  -0.50  -0.46
  16   1    -0.01   0.05   0.05     0.07  -0.54  -0.54     0.00  -0.02  -0.02
  17   1     0.00  -0.07   0.03    -0.00   0.47  -0.20    -0.00  -0.08   0.04
  18   1     0.01   0.01  -0.00     0.15   0.20  -0.04    -0.02  -0.02   0.00
  19   1    -0.01   0.00   0.03    -0.00  -0.01  -0.02    -0.00   0.00   0.02
  20   1    -0.00   0.00  -0.00     0.00  -0.00  -0.00    -0.00   0.00   0.00
                     49                     50                     51
                        a                      a                      a 
 Frequencies --  2965.3771              2973.1357              3087.5490
 Red. masses --     1.5602                 1.5325                 1.8939
 Frc consts  --     0.0000                 0.0000                 0.0000
 IR Inten    --    12.8312                27.4998               726.8505
 Raman Activ --     0.0000                 0.0000                 0.0000
 Depolar     --     0.0000                 0.0000                 0.0000
 Atom AN      X      Y      Z        X      Y      Z        X      Y      Z
   1   7    -0.00  -0.00  -0.00    -0.01  -0.01   0.00     0.25   0.02  -0.06
   2   6     0.01   0.00  -0.01     0.01   0.02  -0.21     0.02  -0.00  -0.01
   3   6     0.00   0.00   0.01    -0.01  -0.01  -0.03     0.00  -0.00  -0.00
   4   6    -0.00   0.02   0.03    -0.00  -0.00  -0.01     0.00  -0.00  -0.00
   5   6     0.03   0.12   0.18     0.00  -0.00  -0.01     0.00  -0.00   0.00
   6   6     0.00   0.01   0.01    -0.00  -0.00  -0.00     0.01   0.01   0.01
   7   8     0.00  -0.00  -0.00     0.00   0.00   0.00    -0.00  -0.00  -0.00
   8   8    -0.00  -0.00  -0.00     0.00   0.00   0.00    -0.01  -0.01  -0.00
   9   1     0.01  -0.00  -0.00     0.05  -0.00  -0.01    -0.93  -0.02   0.24
  10   1     0.00   0.00  -0.00     0.00  -0.00  -0.00     0.01  -0.05   0.03
  11   1     0.00  -0.00   0.00    -0.01  -0.00  -0.02    -0.01   0.01  -0.04
  12   1    -0.07  -0.00   0.02    -0.55  -0.03   0.17    -0.06  -0.00   0.02
  13   1     0.02  -0.00   0.02     0.50  -0.02   0.60     0.01  -0.00   0.01
  14   1    -0.01   0.00  -0.01     0.04  -0.01   0.04    -0.00  -0.00  -0.00
  15   1     0.00  -0.02  -0.01    -0.01   0.05   0.04    -0.00   0.01   0.01
  16   1     0.01  -0.09  -0.09    -0.00   0.03   0.03    -0.00   0.01   0.01
  17   1    -0.00   0.01   0.00     0.00  -0.02   0.01    -0.00  -0.00   0.00
  18   1    -0.32  -0.39   0.12     0.01   0.01  -0.00    -0.00  -0.00   0.00
  19   1     0.23  -0.03  -0.78    -0.02   0.00   0.06     0.00   0.00  -0.00
  20   1    -0.00   0.00   0.00     0.00  -0.00  -0.00    -0.00   0.01   0.00
                     52                     53                     54
                        a                      a                      a 
 Frequencies --  3277.9738              3289.0232              3594.5387
 Red. masses --     2.0649                 1.4747                 1.8602
 Frc consts  --     0.0000                 0.0000                 0.0000
 IR Inten    --   173.0114                78.9753               207.4270
 Raman Activ --     0.0000                 0.0000                 0.0000
 Depolar     --     0.0000                 0.0000                 0.0000
 Atom AN      X      Y      Z        X      Y      Z        X      Y      Z
   1   7     0.06  -0.16   0.23     0.11   0.13   0.08    -0.00   0.00   0.00
   2   6     0.00  -0.00   0.01     0.00   0.00   0.01    -0.00  -0.00  -0.00
   3   6     0.00   0.00   0.00    -0.00   0.00   0.00     0.00  -0.00   0.00
   4   6     0.00   0.00   0.00    -0.00   0.00  -0.00     0.00   0.00   0.00
   5   6     0.00  -0.00   0.00     0.00   0.00   0.00    -0.00   0.00   0.00
   6   6     0.00  -0.00   0.00     0.00   0.00   0.00     0.01  -0.00   0.00
   7   8     0.00  -0.00  -0.00    -0.00   0.00   0.00     0.10  -0.21  -0.05
   8   8    -0.00  -0.00  -0.00    -0.00  -0.00   0.00    -0.00  -0.00  -0.00
   9   1    -0.01  -0.01   0.02     0.09   0.01  -0.02     0.01   0.00  -0.00
  10   1     0.14   0.62  -0.35    -0.11  -0.54   0.33    -0.00  -0.00   0.00
  11   1    -0.36   0.00  -0.52    -0.41   0.03  -0.61     0.00  -0.00   0.00
  12   1     0.00   0.00  -0.00     0.01  -0.00  -0.00     0.00  -0.00   0.00
  13   1    -0.01   0.00  -0.01    -0.01  -0.00  -0.01     0.00  -0.00   0.00
  14   1    -0.00   0.00  -0.00     0.00   0.00   0.00    -0.00   0.00  -0.00
  15   1    -0.00   0.00   0.00     0.00  -0.00  -0.00     0.00   0.00   0.00
  16   1     0.00  -0.00  -0.00     0.00   0.00   0.00     0.00  -0.00  -0.00
  17   1    -0.00  -0.00  -0.00    -0.00  -0.00   0.00     0.00   0.00  -0.00
  18   1     0.00   0.00  -0.00    -0.00  -0.00   0.00     0.00   0.00  -0.00
  19   1    -0.00  -0.00  -0.00     0.00   0.00  -0.00    -0.00  -0.00   0.00
  20   1    -0.00   0.00   0.00     0.00  -0.00  -0.00    -0.45   0.84   0.18
