 Entering Gaussian System
 *********************************************
 Gaussian 98:
 frequency output generated by the xtb code
 *********************************************
                         Standard orientation:
 --------------------------------------------------------------------
  Center     Atomic     Atomic              Coordinates (Angstroms)
  Number     Number      Type              X           Y           Z
 --------------------------------------------------------------------
    1          7             0       -3.505745    1.072359    0.056870
    2          6             0       -3.080573   -0.186455   -0.629459
    3          6             0       -2.250955   -1.117318    0.256190
    4          6             0       -0.866031   -0.572554    0.641424
    5          6             0        0.087986   -0.418151   -0.532160
    6         35             0        1.832071    0.179900    0.038493
    7          1             0       -4.032163    0.859253    0.909433
    8          1             0       -4.105614    1.639101   -0.550669
    9          1             0       -2.698911    1.647625    0.318377
   10          1             0       -2.524235    0.067321   -1.538421
   11          1             0       -3.981187   -0.709891   -0.976335
   12          1             0       -2.121832   -2.085060   -0.244079
   13          1             0       -2.824113   -1.337723    1.164642
   14          1             0       -0.404152   -1.237706    1.385254
   15          1             0       -0.974194    0.389847    1.156643
   16          1             0       -0.275933    0.309979   -1.259890
   17          1             0        0.225729   -1.364753   -1.060489
 --------------------------------------------------------------------
     1 basis functions        1 primitive gaussians
     1 alpha electrons        1 beta electrons

 Harmonic frequencies (cm**-1), IR intensities (km*mol⁻¹),
 Raman scattering activities (A**4/amu), Raman depolarization ratios,
 reduced masses (AMU), force constants (mDyne/A) and normal coordinates:
                      1                      2                      3
                        a                      a                      a 
 Frequencies --  -144.2352               -60.8880                57.6773
 Red. masses --     1.4414                18.1606                12.5731
 Frc consts  --     0.0000                 0.0000                 0.0000
 IR Inten    --     0.4415                 7.4717                22.8043
 Raman Activ --     0.0000                 0.0000                 0.0000
 Depolar     --     0.0000                 0.0000                 0.0000
 Atom AN      X      Y      Z        X      Y      Z        X      Y      Z
   1   7     0.05   0.04  -0.02    -0.28  -0.16  -0.10     0.58   0.12  -0.16
   2   6    -0.06  -0.02  -0.00    -0.08  -0.14   0.01     0.03  -0.16   0.06
   3   6     0.01  -0.01  -0.05     0.05   0.04   0.08    -0.02  -0.18   0.08
   4   6    -0.00  -0.01  -0.02    -0.02   0.26   0.04     0.00  -0.22   0.06
   5   6    -0.01   0.05  -0.01    -0.15   0.61  -0.03    -0.17   0.27  -0.01
   6  35     0.01  -0.02   0.05     0.23  -0.28   0.01    -0.22   0.06  -0.00
   7   1     0.50   0.01   0.29    -0.11  -0.04  -0.05     0.12   0.14  -0.04
   8   1    -0.44  -0.25   0.20    -0.06  -0.06  -0.06     0.24   0.08  -0.07
   9   1    -0.02   0.28  -0.51    -0.10  -0.03   0.01     0.23  -0.07  -0.06
  10   1    -0.06  -0.03  -0.04    -0.03  -0.04  -0.00    -0.02  -0.15  -0.03
  11   1    -0.04  -0.01   0.06    -0.00  -0.08   0.01    -0.05   0.00   0.10
  12   1     0.01   0.00  -0.03     0.06   0.01   0.04    -0.02  -0.06   0.03
  13   1     0.00  -0.02  -0.02     0.03   0.00   0.03    -0.00  -0.04   0.03
  14   1     0.00  -0.02  -0.02     0.05   0.07  -0.03     0.04  -0.13  -0.07
  15   1    -0.01  -0.01   0.01    -0.04   0.05   0.06     0.00  -0.12   0.12
  16   1    -0.00   0.03   0.01    -0.02   0.30   0.11    -0.08   0.17   0.10
  17   1    -0.01   0.02  -0.02    -0.13   0.24  -0.14    -0.07   0.14  -0.13
                      4                      5                      6
                        a                      a                      a 
 Frequencies --   155.1808               217.6647               220.9680
 Red. masses --    12.2480                 9.2370                28.5539
 Frc consts  --     0.0000                 0.0000                 0.0000
 IR Inten    --     3.5235                13.2164                 1.3386
 Raman Activ --     0.0000                 0.0000                 0.0000
 Depolar     --     0.0000                 0.0000                 0.0000
 Atom AN      X      Y      Z        X      Y      Z        X      Y      Z
   1   7     0.12   0.00   0.10    -0.31   0.18  -0.17    -0.13   0.14  -0.07
   2   6    -0.34  -0.18   0.16     0.00   0.06   0.17    -0.47  -0.07   0.06
   3   6     0.05   0.01  -0.01    -0.00   0.09   0.23    -0.27  -0.10  -0.12
   4   6     0.05   0.28  -0.41     0.30  -0.40  -0.16    -0.22  -0.22   0.05
   5   6     0.14  -0.04  -0.39     0.10  -0.03  -0.28    -0.00  -0.06   0.21
   6  35    -0.03  -0.04   0.23    -0.02   0.04   0.10     0.50   0.14  -0.05
   7   1     0.01   0.08   0.03    -0.12   0.09  -0.06    -0.07   0.12  -0.02
   8   1     0.10   0.06   0.02    -0.08  -0.04  -0.13     0.03   0.07  -0.05
   9   1     0.11  -0.10   0.01    -0.14   0.12  -0.05     0.02  -0.04  -0.03
  10   1    -0.21  -0.12  -0.04     0.01  -0.01   0.05    -0.21  -0.08  -0.05
  11   1    -0.15  -0.06   0.20     0.02  -0.02   0.05    -0.18  -0.01   0.13
  12   1     0.01  -0.01   0.02    -0.14  -0.02   0.11    -0.08  -0.00  -0.09
  13   1     0.10   0.01   0.05     0.05   0.13   0.13    -0.06  -0.08  -0.04
  14   1     0.04   0.17  -0.05     0.11  -0.23  -0.16    -0.11  -0.11  -0.00
  15   1     0.01   0.13  -0.21     0.19  -0.17   0.07    -0.07  -0.09   0.06
  16   1     0.09  -0.05  -0.17     0.00   0.06  -0.00    -0.01  -0.02   0.06
  17   1     0.06  -0.04  -0.04     0.05   0.05  -0.17     0.02  -0.01   0.05
                      7                      8                      9
                        a                      a                      a 
 Frequencies --   359.2078               453.7541               671.7202
 Red. masses --    10.6795                 9.4645                14.7894
 Frc consts  --     0.0000                 0.0000                 0.0000
 IR Inten    --    16.6801                 7.4287                30.7988
 Raman Activ --     0.0000                 0.0000                 0.0000
 Depolar     --     0.0000                 0.0000                 0.0000
 Atom AN      X      Y      Z        X      Y      Z        X      Y      Z
   1   7     0.14  -0.25   0.11    -0.03   0.18  -0.01    -0.01   0.04   0.03
   2   6     0.02  -0.02  -0.25     0.26   0.03   0.28    -0.04  -0.02   0.01
   3   6    -0.42   0.13   0.25    -0.16  -0.47   0.11    -0.09  -0.13  -0.02
   4   6    -0.18  -0.05  -0.17    -0.28   0.03  -0.20     0.00  -0.04  -0.15
   5   6    -0.08   0.01  -0.13    -0.13   0.01  -0.15     0.69   0.26   0.37
   6  35     0.21   0.08   0.04     0.14   0.04   0.03    -0.23  -0.08  -0.12
   7   1     0.12  -0.17   0.05    -0.05   0.12  -0.01    -0.01   0.04   0.01
   8   1    -0.01   0.01   0.15    -0.02  -0.09  -0.12     0.00  -0.00  -0.01
   9   1     0.07  -0.11   0.03    -0.08   0.17  -0.03    -0.00   0.02  -0.01
  10   1     0.11   0.01  -0.00     0.25   0.03   0.19     0.04   0.01   0.04
  11   1     0.02   0.04  -0.18     0.09   0.10  -0.11    -0.01   0.04  -0.05
  12   1    -0.25  -0.10   0.30    -0.05  -0.09  -0.05    -0.14  -0.10   0.09
  13   1    -0.13   0.32   0.14    -0.02  -0.19   0.03     0.03   0.11   0.07
  14   1    -0.05  -0.03  -0.06     0.00   0.17   0.04    -0.05   0.05   0.05
  15   1    -0.00  -0.01  -0.04    -0.21   0.07  -0.19    -0.12   0.00  -0.09
  16   1     0.01   0.03  -0.03     0.02   0.01  -0.07     0.18   0.08   0.11
  17   1    -0.00   0.02  -0.06    -0.01  -0.00  -0.02     0.19   0.10   0.04
                     10                     11                     12
                        a                      a                      a 
 Frequencies --   761.2261               795.0007               847.9413
 Red. masses --     2.8508                 3.1249                 6.5570
 Frc consts  --     0.0000                 0.0000                 0.0000
 IR Inten    --    19.5273                39.5252                13.1237
 Raman Activ --     0.0000                 0.0000                 0.0000
 Depolar     --     0.0000                 0.0000                 0.0000
 Atom AN      X      Y      Z        X      Y      Z        X      Y      Z
   1   7     0.02   0.10   0.04    -0.13  -0.01  -0.04    -0.21   0.27   0.11
   2   6     0.09   0.06  -0.11    -0.22  -0.03  -0.05    -0.08  -0.07  -0.27
   3   6     0.13  -0.07  -0.10    -0.07   0.00   0.12     0.23  -0.34  -0.08
   4   6     0.06  -0.17   0.04     0.16  -0.02   0.13     0.17  -0.03   0.08
   5   6    -0.08  -0.21   0.03     0.09  -0.19  -0.07    -0.18   0.14  -0.01
   6  35     0.02   0.04   0.01    -0.01   0.02   0.00     0.02  -0.02   0.02
   7   1    -0.03  -0.13  -0.05     0.08   0.20   0.11     0.01   0.18   0.10
   8   1    -0.04  -0.02   0.02     0.04   0.19   0.09     0.00   0.21   0.11
   9   1    -0.11   0.14   0.12     0.22  -0.28  -0.19     0.11  -0.11  -0.08
  10   1    -0.20  -0.06  -0.18     0.19   0.14   0.18    -0.04   0.14  -0.04
  11   1    -0.06  -0.01   0.23     0.07  -0.00  -0.34     0.02  -0.04  -0.14
  12   1    -0.10  -0.11   0.12     0.10   0.08  -0.10    -0.07  -0.25   0.26
  13   1    -0.01   0.20   0.00    -0.02  -0.19  -0.02     0.05   0.23   0.05
  14   1    -0.03   0.24   0.30    -0.00   0.11   0.17     0.18   0.07   0.01
  15   1    -0.11   0.14  -0.35     0.11   0.11  -0.15    -0.13  -0.03   0.03
  16   1    -0.12   0.20   0.31    -0.01   0.18   0.22    -0.08  -0.14  -0.16
  17   1    -0.09   0.12  -0.32    -0.05   0.10  -0.30     0.01  -0.07   0.21
                     13                     14                     15
                        a                      a                      a 
 Frequencies --   859.2277               951.1412               961.6241
 Red. masses --     4.8254                 6.3310                 7.5441
 Frc consts  --     0.0000                 0.0000                 0.0000
 IR Inten    --    18.5609                23.3860                23.9453
 Raman Activ --     0.0000                 0.0000                 0.0000
 Depolar     --     0.0000                 0.0000                 0.0000
 Atom AN      X      Y      Z        X      Y      Z        X      Y      Z
   1   7     0.01  -0.23   0.15     0.11   0.14   0.29    -0.13   0.32   0.06
   2   6     0.08  -0.04   0.18    -0.10  -0.27  -0.27     0.14  -0.33  -0.06
   3   6     0.14   0.22  -0.27    -0.17  -0.11  -0.04     0.22   0.06   0.02
   4   6    -0.13  -0.02  -0.14     0.10   0.21   0.20    -0.28   0.12  -0.29
   5   6    -0.12  -0.08   0.12     0.13  -0.10  -0.14    -0.03  -0.21   0.19
   6  35     0.01   0.01   0.00    -0.01   0.01   0.00    -0.00   0.03  -0.01
   7   1    -0.10   0.46   0.11    -0.15   0.17  -0.00     0.04  -0.07   0.02
   8   1     0.16  -0.24  -0.28     0.04  -0.27  -0.21    -0.07   0.22   0.18
   9   1     0.09  -0.06  -0.22    -0.17   0.32   0.07     0.01  -0.01   0.07
  10   1    -0.02   0.22   0.09     0.01   0.00  -0.03     0.11  -0.13   0.02
  11   1     0.11  -0.11  -0.02    -0.12   0.13  -0.14     0.05  -0.10  -0.03
  12   1    -0.09  -0.04   0.09     0.17  -0.08   0.13     0.15  -0.01   0.07
  13   1     0.05   0.28  -0.01    -0.18  -0.01  -0.09     0.16   0.01   0.07
  14   1    -0.13  -0.05  -0.02    -0.01  -0.08  -0.04    -0.20  -0.19  -0.20
  15   1    -0.04  -0.01  -0.02     0.19   0.02   0.14     0.08  -0.06   0.11
  16   1    -0.02   0.03   0.08     0.08   0.07   0.03     0.13   0.13   0.16
  17   1    -0.07   0.01  -0.03    -0.07   0.00  -0.11    -0.17   0.01  -0.10
                     16                     17                     18
                        a                      a                      a 
 Frequencies --  1004.1064              1045.1032              1104.1446
 Red. masses --     6.3133                 6.4767                 6.3929
 Frc consts  --     0.0000                 0.0000                 0.0000
 IR Inten    --    10.4845                 4.2228                 2.7053
 Raman Activ --     0.0000                 0.0000                 0.0000
 Depolar     --     0.0000                 0.0000                 0.0000
 Atom AN      X      Y      Z        X      Y      Z        X      Y      Z
   1   7     0.19  -0.10  -0.13    -0.05  -0.17  -0.15    -0.06   0.10   0.01
   2   6    -0.39   0.13   0.11     0.03   0.39   0.09     0.17  -0.30   0.18
   3   6     0.11  -0.10  -0.12     0.04  -0.32   0.01    -0.27   0.11  -0.35
   4   6     0.24   0.11  -0.16    -0.11   0.24   0.12     0.26   0.10   0.16
   5   6    -0.19  -0.09   0.23     0.18  -0.19  -0.11     0.03  -0.04  -0.06
   6  35     0.01   0.01   0.01    -0.01   0.03  -0.00    -0.01   0.02   0.01
   7   1     0.00  -0.19  -0.10     0.03  -0.02  -0.00     0.03  -0.04   0.01
   8   1    -0.03  -0.11  -0.04     0.01   0.04   0.02    -0.02   0.09   0.07
   9   1    -0.10   0.13   0.08     0.07  -0.14  -0.07     0.02  -0.03   0.02
  10   1     0.18  -0.02   0.18    -0.17   0.14  -0.08     0.14  -0.18   0.08
  11   1    -0.13   0.27  -0.26    -0.01   0.03   0.17     0.05  -0.08   0.04
  12   1    -0.10  -0.07   0.03    -0.01  -0.15   0.13    -0.44   0.03  -0.19
  13   1     0.32   0.07   0.17    -0.08   0.06  -0.01    -0.03   0.11  -0.04
  14   1     0.05  -0.02  -0.07     0.06  -0.08  -0.14     0.15   0.07   0.03
  15   1     0.04  -0.00   0.01    -0.03  -0.07   0.26    -0.12  -0.01   0.08
  16   1    -0.03   0.03   0.11     0.31   0.16   0.04     0.15   0.06  -0.01
  17   1    -0.18  -0.03   0.05    -0.33  -0.06  -0.12    -0.31  -0.09   0.04
                     19                     20                     21
                        a                      a                      a 
 Frequencies --  1114.0803              1149.8859              1214.9773
 Red. masses --     7.7209                 5.2580                 3.5013
 Frc consts  --     0.0000                 0.0000                 0.0000
 IR Inten    --     2.9645                 7.9218                 8.3866
 Raman Activ --     0.0000                 0.0000                 0.0000
 Depolar     --     0.0000                 0.0000                 0.0000
 Atom AN      X      Y      Z        X      Y      Z        X      Y      Z
   1   7    -0.06  -0.05   0.10    -0.08   0.00  -0.12    -0.16  -0.10   0.14
   2   6     0.15   0.08  -0.22     0.15   0.01   0.26     0.17   0.15  -0.23
   3   6    -0.22  -0.08   0.22    -0.22  -0.21  -0.25     0.01  -0.08   0.06
   4   6     0.29   0.05  -0.38     0.16   0.27  -0.05    -0.02   0.16   0.08
   5   6    -0.18  -0.04   0.39    -0.07   0.00   0.09     0.08  -0.04  -0.10
   6  35    -0.00   0.01  -0.01     0.01  -0.02   0.00     0.01  -0.01   0.01
   7   1    -0.03   0.15   0.05     0.06  -0.06   0.01    -0.04   0.19   0.08
   8   1     0.05  -0.04  -0.06    -0.03   0.10   0.07     0.07  -0.02  -0.06
   9   1     0.03  -0.03  -0.06     0.04  -0.10   0.00     0.06  -0.09  -0.13
  10   1    -0.14   0.01  -0.17    -0.02  -0.00   0.03     0.08  -0.40  -0.16
  11   1    -0.00  -0.04   0.13     0.01   0.04   0.09    -0.15   0.26   0.10
  12   1    -0.02   0.08  -0.13     0.04  -0.15   0.14    -0.24   0.04  -0.17
  13   1    -0.11  -0.19  -0.03    -0.17   0.10  -0.10     0.37  -0.07   0.22
  14   1     0.29   0.07  -0.18    -0.18  -0.12  -0.05    -0.17  -0.07   0.02
  15   1     0.14   0.03  -0.12     0.44   0.11  -0.01    -0.04  -0.02   0.13
  16   1     0.08   0.04   0.09    -0.34  -0.08   0.10    -0.26  -0.05   0.07
  17   1    -0.16  -0.03   0.11     0.28   0.09  -0.04     0.09   0.02  -0.07
                     22                     23                     24
                        a                      a                      a 
 Frequencies --  1240.9680              1253.1447              1277.6393
 Red. masses --     2.6545                 2.6967                 2.0716
 Frc consts  --     0.0000                 0.0000                 0.0000
 IR Inten    --     9.2708                 8.0046                19.0932
 Raman Activ --     0.0000                 0.0000                 0.0000
 Depolar     --     0.0000                 0.0000                 0.0000
 Atom AN      X      Y      Z        X      Y      Z        X      Y      Z
   1   7     0.14   0.07  -0.03    -0.02  -0.01  -0.01    -0.04  -0.03  -0.01
   2   6    -0.05  -0.09  -0.07     0.04   0.02   0.01    -0.00  -0.01   0.09
   3   6    -0.04  -0.08   0.15    -0.03  -0.00   0.05     0.02   0.14  -0.02
   4   6    -0.00   0.20  -0.04     0.08  -0.15  -0.10    -0.01   0.03  -0.14
   5   6     0.16  -0.06  -0.04     0.22   0.21  -0.08     0.17  -0.11   0.03
   6  35     0.01  -0.00   0.01     0.01   0.01   0.02     0.01  -0.00   0.01
   7   1    -0.01  -0.07  -0.06     0.01   0.01   0.01     0.01   0.01   0.02
   8   1    -0.03  -0.02   0.02     0.00   0.00  -0.00     0.01   0.03   0.01
   9   1    -0.05   0.11   0.07     0.01  -0.02  -0.00     0.01  -0.03  -0.02
  10   1    -0.22   0.44  -0.02    -0.02  -0.01  -0.01     0.10  -0.17   0.04
  11   1     0.20  -0.34  -0.08    -0.03   0.07   0.01    -0.09   0.17  -0.01
  12   1    -0.29   0.05  -0.18     0.16  -0.02   0.08     0.25   0.01   0.12
  13   1     0.12  -0.10   0.10    -0.05  -0.05  -0.03    -0.26   0.06  -0.16
  14   1    -0.03  -0.04  -0.07    -0.35  -0.08   0.17     0.36   0.10  -0.18
  15   1    -0.12  -0.05   0.15     0.10   0.04  -0.15    -0.43  -0.14   0.16
  16   1    -0.43  -0.10   0.13    -0.27  -0.13  -0.04    -0.44  -0.10   0.17
  17   1    -0.04   0.01  -0.08    -0.67  -0.19   0.20    -0.05   0.01  -0.09
                     25                     26                     27
                        a                      a                      a 
 Frequencies --  1317.7363              1349.0693              1355.2128
 Red. masses --     3.5560                 4.2698                 4.4573
 Frc consts  --     0.0000                 0.0000                 0.0000
 IR Inten    --    18.5008                 2.2996                 7.2065
 Raman Activ --     0.0000                 0.0000                 0.0000
 Depolar     --     0.0000                 0.0000                 0.0000
 Atom AN      X      Y      Z        X      Y      Z        X      Y      Z
   1   7     0.03   0.13   0.16     0.03   0.01   0.07     0.00   0.01  -0.00
   2   6    -0.17   0.31  -0.07    -0.18   0.11  -0.04     0.06   0.01   0.02
   3   6    -0.16  -0.05  -0.14     0.38  -0.10   0.21    -0.24   0.02   0.01
   4   6    -0.01  -0.01   0.03     0.12   0.11  -0.13     0.45   0.08  -0.13
   5   6     0.04   0.00  -0.00    -0.06  -0.01   0.00    -0.16  -0.06  -0.04
   6  35     0.00   0.00   0.00    -0.00  -0.00  -0.00    -0.01  -0.00  -0.00
   7   1    -0.04  -0.14  -0.04    -0.05  -0.03  -0.03    -0.01  -0.03  -0.02
   8   1     0.02  -0.17  -0.15     0.00  -0.04  -0.02     0.01   0.01   0.01
   9   1     0.09  -0.05  -0.08     0.01   0.02  -0.05     0.02  -0.01  -0.04
  10   1     0.22  -0.36   0.03     0.16  -0.24   0.05    -0.06   0.08  -0.02
  11   1     0.31  -0.56   0.05     0.05  -0.11  -0.04     0.02  -0.04   0.04
  12   1     0.18  -0.07   0.13    -0.34   0.02  -0.16     0.27  -0.01   0.11
  13   1     0.13  -0.01   0.07    -0.50   0.07  -0.29     0.07  -0.07   0.06
  14   1     0.09   0.03  -0.02    -0.29  -0.11   0.05    -0.41  -0.11   0.18
  15   1     0.05   0.01   0.00    -0.07  -0.02   0.03    -0.50  -0.14   0.15
  16   1    -0.07  -0.02   0.01     0.02   0.04   0.02     0.15   0.10   0.02
  17   1    -0.04  -0.01  -0.00     0.06  -0.01   0.04     0.16  -0.00   0.04
                     28                     29                     30
                        a                      a                      a 
 Frequencies --  1370.7979              1419.5487              1423.3904
 Red. masses --     2.9301                 1.6313                 1.6357
 Frc consts  --     0.0000                 0.0000                 0.0000
 IR Inten    --   211.8380                78.2814                73.4931
 Raman Activ --     0.0000                 0.0000                 0.0000
 Depolar     --     0.0000                 0.0000                 0.0000
 Atom AN      X      Y      Z        X      Y      Z        X      Y      Z
   1   7    -0.12   0.32   0.11     0.19   0.08  -0.06    -0.07   0.04  -0.19
   2   6     0.06  -0.11   0.04     0.03   0.01  -0.00    -0.04   0.05  -0.05
   3   6     0.04   0.03   0.04    -0.01  -0.01   0.00     0.02   0.00   0.01
   4   6    -0.01  -0.01  -0.01    -0.00  -0.01  -0.01     0.02   0.01  -0.01
   5   6    -0.00  -0.00   0.01     0.00  -0.00  -0.00    -0.01  -0.01  -0.03
   6  35    -0.00  -0.00  -0.00    -0.00   0.00  -0.00    -0.00  -0.00  -0.00
   7   1     0.11  -0.46  -0.04    -0.40   0.26  -0.20     0.46   0.26   0.33
   8   1    -0.00  -0.38  -0.38    -0.59  -0.31   0.31    -0.07  -0.21  -0.16
   9   1     0.31  -0.38  -0.10     0.19  -0.29   0.14    -0.09  -0.18   0.65
  10   1    -0.12   0.12  -0.04     0.00  -0.03  -0.02     0.05  -0.05   0.01
  11   1    -0.09   0.19  -0.07    -0.01   0.04   0.01     0.02  -0.07   0.02
  12   1    -0.06   0.01  -0.02     0.02   0.02  -0.03    -0.02  -0.01   0.02
  13   1    -0.02  -0.02  -0.01     0.00   0.04   0.01    -0.00  -0.03  -0.01
  14   1     0.00   0.02   0.01     0.00   0.02   0.02    -0.02   0.00   0.02
  15   1    -0.00  -0.01   0.02     0.01  -0.01   0.02    -0.04  -0.02   0.03
  16   1     0.01  -0.01  -0.01    -0.00   0.00   0.00     0.00   0.04   0.04
  17   1     0.01   0.01  -0.02     0.00  -0.00   0.00     0.03  -0.02   0.04
                     31                     32                     33
                        a                      a                      a 
 Frequencies --  1466.4011              1478.1850              1481.8771
 Red. masses --     1.9674                 1.8331                 1.9061
 Frc consts  --     0.0000                 0.0000                 0.0000
 IR Inten    --     1.9815                23.7508                19.6819
 Raman Activ --     0.0000                 0.0000                 0.0000
 Depolar     --     0.0000                 0.0000                 0.0000
 Atom AN      X      Y      Z        X      Y      Z        X      Y      Z
   1   7    -0.00  -0.00  -0.01     0.00   0.00   0.01     0.02  -0.02   0.00
   2   6    -0.02   0.00  -0.05     0.05   0.04   0.25     0.03   0.04   0.08
   3   6    -0.01  -0.01   0.01    -0.03  -0.08   0.03     0.07   0.24  -0.08
   4   6     0.08   0.03  -0.01     0.01  -0.00   0.02     0.01   0.01   0.01
   5   6    -0.02   0.03   0.27    -0.00   0.00   0.04    -0.01  -0.00   0.03
   6  35     0.01   0.00   0.01     0.00   0.00   0.00     0.00   0.00  -0.00
   7   1     0.03   0.02   0.02     0.02   0.04   0.03    -0.04   0.04  -0.01
   8   1    -0.01  -0.01  -0.01     0.01   0.01   0.01    -0.03   0.01   0.04
   9   1    -0.01  -0.01   0.04    -0.03   0.03   0.05    -0.01   0.01  -0.00
  10   1     0.09   0.03   0.06    -0.42  -0.32  -0.33    -0.16  -0.12  -0.13
  11   1    -0.03  -0.02   0.11     0.22   0.02  -0.59     0.08   0.02  -0.21
  12   1    -0.00   0.01  -0.01     0.13   0.10  -0.17    -0.31  -0.27   0.47
  13   1    -0.01   0.01  -0.00    -0.02   0.24   0.05     0.03  -0.62  -0.15
  14   1    -0.07  -0.01   0.04    -0.01  -0.03  -0.02     0.00  -0.02  -0.02
  15   1    -0.06  -0.02   0.03    -0.03   0.01  -0.03    -0.03   0.01  -0.02
  16   1     0.06  -0.45  -0.48     0.05  -0.06  -0.08     0.02  -0.03  -0.04
  17   1    -0.17   0.30  -0.57    -0.03   0.04  -0.08     0.00   0.03  -0.05
                     34                     35                     36
                        a                      a                      a 
 Frequencies --  1509.1793              2915.2700              2939.1273
 Red. masses --     1.9304                 1.9325                 1.8408
 Frc consts  --     0.0000                 0.0000                 0.0000
 IR Inten    --     5.4365                11.9140                 9.9113
 Raman Activ --     0.0000                 0.0000                 0.0000
 Depolar     --     0.0000                 0.0000                 0.0000
 Atom AN      X      Y      Z        X      Y      Z        X      Y      Z
   1   7    -0.00  -0.01   0.00    -0.00  -0.00   0.00     0.00   0.00   0.00
   2   6     0.00  -0.00   0.02     0.00   0.00  -0.00    -0.02  -0.01   0.01
   3   6     0.01   0.00  -0.01    -0.00   0.02   0.01     0.11  -0.09  -0.21
   4   6    -0.07  -0.07  -0.27     0.10  -0.27   0.04     0.03   0.01   0.09
   5   6    -0.02  -0.00  -0.00    -0.01   0.04  -0.01    -0.01   0.01  -0.00
   6  35     0.00   0.00  -0.00    -0.00   0.00  -0.00    -0.00  -0.00  -0.00
   7   1     0.00   0.00   0.00     0.00   0.00  -0.00    -0.00   0.00   0.00
   8   1     0.02   0.03   0.01     0.00   0.00   0.00    -0.00   0.00  -0.00
   9   1    -0.02   0.04  -0.01     0.00   0.01   0.00    -0.00  -0.00  -0.00
  10   1    -0.03  -0.02  -0.02    -0.00  -0.00   0.01     0.06   0.03  -0.09
  11   1     0.01   0.00  -0.04    -0.00  -0.00  -0.00     0.02   0.02   0.01
  12   1    -0.01  -0.01   0.01     0.01  -0.09  -0.05    -0.06   0.47   0.23
  13   1    -0.01  -0.01  -0.01    -0.00   0.00   0.00    -0.33  -0.14   0.54
  14   1    -0.01   0.50   0.45    -0.28   0.40  -0.47    -0.15   0.23  -0.22
  15   1     0.29  -0.27   0.54    -0.06   0.56   0.31     0.04  -0.27  -0.12
  16   1     0.01   0.00  -0.01     0.04  -0.08   0.08     0.02  -0.03   0.03
  17   1     0.00  -0.00  -0.00     0.01  -0.09  -0.06     0.00  -0.01  -0.01
                     37                     38                     39
                        a                      a                      a 
 Frequencies --  2948.1259              2953.5806              2957.8089
 Red. masses --     1.6203                 1.8827                 2.0157
 Frc consts  --     0.0000                 0.0000                 0.0000
 IR Inten    --    14.3545                 0.5875                 9.3756
 Raman Activ --     0.0000                 0.0000                 0.0000
 Depolar     --     0.0000                 0.0000                 0.0000
 Atom AN      X      Y      Z        X      Y      Z        X      Y      Z
   1   7     0.00   0.00  -0.00    -0.00   0.00   0.00    -0.00  -0.00  -0.00
   2   6    -0.01  -0.00  -0.01     0.24   0.13  -0.02     0.02   0.01  -0.00
   3   6    -0.05   0.05   0.11    -0.01  -0.07   0.00     0.01   0.01  -0.02
   4   6     0.05   0.05   0.18     0.00  -0.00   0.01     0.02  -0.05   0.00
   5   6     0.00  -0.02  -0.03    -0.00   0.02   0.00     0.09  -0.28   0.05
   6  35    -0.00  -0.00  -0.00    -0.00   0.00   0.00     0.00  -0.00   0.00
   7   1     0.00  -0.00  -0.00     0.00   0.00  -0.01    -0.00   0.00  -0.00
   8   1     0.00  -0.00   0.00     0.00  -0.00   0.00    -0.00  -0.00   0.00
   9   1    -0.00  -0.01  -0.00     0.01   0.01   0.01     0.00   0.00   0.00
  10   1    -0.03  -0.01   0.04    -0.18  -0.08   0.32    -0.02  -0.01   0.03
  11   1     0.04   0.03   0.01    -0.67  -0.40  -0.26    -0.06  -0.04  -0.03
  12   1     0.03  -0.25  -0.12    -0.04   0.22   0.13     0.01  -0.03  -0.02
  13   1     0.17   0.07  -0.28     0.08   0.02  -0.13    -0.05  -0.02   0.09
  14   1    -0.24   0.37  -0.36    -0.02   0.03  -0.03    -0.04   0.06  -0.07
  15   1     0.07  -0.56  -0.27     0.00  -0.04  -0.02    -0.01   0.10   0.05
  16   1     0.02  -0.05   0.04     0.01  -0.02   0.02    -0.23   0.47  -0.48
  17   1    -0.02   0.14   0.07     0.01  -0.05  -0.03    -0.08   0.51   0.30
                     40                     41                     42
                        a                      a                      a 
 Frequencies --  2968.0019              2974.3555              2989.7938
 Red. masses --     1.5821                 1.5024                 1.5948
 Frc consts  --     0.0000                 0.0000                 0.0000
 IR Inten    --     6.6975                13.0370                 5.6526
 Raman Activ --     0.0000                 0.0000                 0.0000
 Depolar     --     0.0000                 0.0000                 0.0000
 Atom AN      X      Y      Z        X      Y      Z        X      Y      Z
   1   7     0.00  -0.00  -0.00     0.00  -0.00  -0.00     0.00  -0.00   0.00
   2   6     0.07   0.05   0.01    -0.00  -0.00  -0.02     0.04   0.01  -0.22
   3   6     0.06   0.19  -0.04    -0.00   0.01   0.01     0.02   0.00  -0.04
   4   6    -0.00   0.03  -0.00     0.01   0.01   0.04    -0.00  -0.00  -0.01
   5   6    -0.01   0.03  -0.01     0.02   0.06   0.20    -0.00  -0.00  -0.02
   6  35    -0.00   0.00  -0.00     0.00   0.00   0.00    -0.00  -0.00  -0.00
   7   1    -0.00   0.00   0.00     0.00   0.00  -0.00     0.01   0.00  -0.02
   8   1    -0.00   0.00  -0.00    -0.00   0.00  -0.00    -0.00  -0.00  -0.00
   9   1     0.01   0.00   0.00    -0.00  -0.00  -0.00    -0.01  -0.01  -0.00
  10   1    -0.02  -0.01   0.04    -0.05  -0.02   0.07    -0.47  -0.21   0.71
  11   1    -0.24  -0.14  -0.09     0.06   0.03   0.02     0.33   0.20   0.09
  12   1     0.10  -0.60  -0.34     0.01  -0.05  -0.03    -0.00   0.02   0.00
  13   1    -0.30  -0.09   0.50     0.01   0.00  -0.01    -0.07  -0.02   0.11
  14   1     0.02  -0.03   0.04    -0.04   0.06  -0.06     0.01  -0.02   0.02
  15   1     0.01  -0.07  -0.04     0.01  -0.10  -0.05    -0.00   0.02   0.01
  16   1     0.03  -0.06   0.06    -0.20   0.44  -0.39     0.03  -0.05   0.05
  17   1     0.01  -0.04  -0.03     0.11  -0.65  -0.32    -0.01   0.06   0.03
                     43                     44                     45
                        a                      a                      a 
 Frequencies --  3277.5434              3285.6308              3300.0068
 Red. masses --     2.0251                 2.0492                 1.2903
 Frc consts  --     0.0000                 0.0000                 0.0000
 IR Inten    --   101.9872                87.2943                31.8698
 Raman Activ --     0.0000                 0.0000                 0.0000
 Depolar     --     0.0000                 0.0000                 0.0000
 Atom AN      X      Y      Z        X      Y      Z        X      Y      Z
   1   7    -0.26  -0.08  -0.08     0.03   0.15  -0.24    -0.09   0.10   0.06
   2   6    -0.01  -0.00  -0.00     0.00   0.00  -0.01    -0.00   0.01   0.01
   3   6     0.00   0.00  -0.00     0.00  -0.00   0.00     0.00   0.00  -0.00
   4   6     0.00   0.00   0.00     0.00  -0.00  -0.00     0.00  -0.00  -0.00
   5   6    -0.00   0.00   0.00    -0.00   0.00   0.00     0.00  -0.00  -0.00
   6  35    -0.00  -0.00  -0.00     0.00   0.00   0.00     0.00   0.00   0.00
   7   1     0.07   0.04  -0.16    -0.37  -0.15   0.58     0.32   0.15  -0.53
   8   1     0.21  -0.23   0.24     0.38  -0.33   0.37     0.36  -0.33   0.39
   9   1     0.68   0.48   0.21    -0.11  -0.06  -0.06    -0.35  -0.23  -0.10
  10   1     0.00   0.00  -0.00    -0.01  -0.00   0.01     0.01   0.00  -0.01
  11   1     0.02   0.01   0.00     0.00  -0.00   0.00    -0.01  -0.00  -0.00
  12   1    -0.00   0.00  -0.00    -0.00   0.00   0.00     0.00  -0.00  -0.00
  13   1    -0.00  -0.00   0.00     0.00  -0.00   0.00    -0.00   0.00   0.00
  14   1    -0.00   0.00  -0.00    -0.00   0.00   0.00     0.00  -0.00   0.00
  15   1     0.00  -0.01  -0.00     0.00   0.00   0.00    -0.00   0.00   0.00
  16   1    -0.00   0.00  -0.00    -0.00  -0.00  -0.00    -0.00  -0.00   0.00
  17   1     0.00  -0.00  -0.00     0.00  -0.00   0.00    -0.00   0.00   0.00
