11
 energy: -15.170979198789 gnorm: 0.000227162451 xtb: 6.5.1 (fef0646)
N            1.05478309339646       -0.01699839592431        0.03083598324911
C            2.53666558272080       -0.02763521226797        0.06441474187252
C            3.05236701016706       -1.33606043476087        0.63991735479696
F            2.68239234938916       -1.42158271951422        1.97909879406997
H            0.70595645177523        0.88946042301788       -0.30393247048773
H            0.68563197432786       -0.18221845779487        0.97698937293043
H            0.69759579345483       -0.75648893242179       -0.58747394676843
H            2.88835669549424        0.79548745004644        0.68782905569729
H            2.93553827159524        0.08986052612992       -0.94220995968497
H            4.14164415964488       -1.38182220463216        0.61383136381391
H            2.62539861803424       -2.21660204187804        0.15517971051094
