13
 energy: -15.050535003563 gnorm: 0.000597119805 xtb: 6.5.1 (fef0646)
N            0.91480067792504       -0.06461551601262        0.04043485787032
C            2.39709970350536        0.04292867153954       -0.10421769581808
C            2.93838423665019        0.75920075209271        1.13489439303731
C            2.37989883273594        0.13935294227794        2.32483858264697
C            1.82110842714444       -0.40740568423861        3.23321551869182
H            0.50133431975400       -0.74734316141582       -0.60405329997183
H            0.46231898641300        0.84674895076321       -0.10210933701660
H            0.76076926244510       -0.35279642016659        1.03326104539892
H            2.64794345508881        0.58036638508320       -1.01819957999570
H            2.80700254059462       -0.96700685677780       -0.15819460387752
H            2.67818001635513        1.82053753937539        1.12180725259048
H            4.02625359903608        0.68391847059322        1.16018533821072
H            1.41245594235180       -0.85972607311396        4.08866752823349
