 Entering Gaussian System
 *********************************************
 Gaussian 98:
 frequency output generated by the xtb code
 *********************************************
                         Standard orientation:
 --------------------------------------------------------------------
  Center     Atomic     Atomic              Coordinates (Angstroms)
  Number     Number      Type              X           Y           Z
 --------------------------------------------------------------------
    1          7             0       -1.682350   -1.616822   -0.459671
    2          6             0       -2.557443   -0.828236    0.451590
    3          6             0       -2.742127    0.626134    0.019798
    4          6             0       -1.534811    1.549339    0.267783
    5          6             0       -0.344855    1.339751   -0.659361
    6         53             0        1.025040   -0.087135    0.055187
    7          1             0       -0.700518   -1.225997   -0.481465
    8          1             0       -2.047104   -1.611582   -1.424480
    9          1             0       -1.615154   -2.603402   -0.163330
   10          1             0       -2.155870   -0.866096    1.471329
   11          1             0       -3.533776   -1.329151    0.504035
   12          1             0       -3.616163    1.040100    0.541351
   13          1             0       -3.008100    0.654944   -1.042821
   14          1             0       -1.205908    1.452939    1.311032
   15          1             0       -1.870796    2.593960    0.175042
   16          1             0        0.278579    2.235127   -0.729945
   17          1             0       -0.654910    1.079121   -1.672440
 --------------------------------------------------------------------
     1 basis functions        1 primitive gaussians
     1 alpha electrons        1 beta electrons

 Harmonic frequencies (cm**-1), IR intensities (km*mol⁻¹),
 Raman scattering activities (A**4/amu), Raman depolarization ratios,
 reduced masses (AMU), force constants (mDyne/A) and normal coordinates:
                      1                      2                      3
                        a                      a                      a 
 Frequencies --   -94.8996                71.6375               222.5276
 Red. masses --    15.0366                25.4047                22.0144
 Frc consts  --     0.0000                 0.0000                 0.0000
 IR Inten    --    10.5512                 1.2271                 1.2836
 Raman Activ --     0.0000                 0.0000                 0.0000
 Depolar     --     0.0000                 0.0000                 0.0000
 Atom AN      X      Y      Z        X      Y      Z        X      Y      Z
   1   7    -0.01   0.13  -0.41     0.11  -0.20  -0.01    -0.12   0.26  -0.10
   2   6     0.35  -0.02   0.09     0.40  -0.00   0.11     0.01   0.10   0.14
   3   6     0.04   0.01   0.29     0.24  -0.08  -0.12    -0.33  -0.04  -0.10
   4   6     0.09   0.06  -0.15     0.04   0.18  -0.05    -0.37   0.02  -0.11
   5   6    -0.08  -0.21  -0.31     0.21   0.36   0.16    -0.12  -0.01   0.19
   6  53    -0.14   0.01   0.20    -0.37  -0.09  -0.04     0.33  -0.14   0.00
   7   1    -0.01   0.02  -0.18     0.01  -0.01  -0.16    -0.11   0.23  -0.27
   8   1    -0.11   0.08  -0.07    -0.09  -0.17   0.04    -0.23  -0.13   0.05
   9   1     0.02   0.02  -0.16     0.12  -0.02   0.09     0.22   0.12   0.09
  10   1     0.24  -0.02  -0.03     0.20   0.06  -0.00     0.11   0.11   0.00
  11   1     0.12  -0.03   0.14     0.12  -0.00   0.14     0.05  -0.04   0.16
  12   1     0.07  -0.03   0.20     0.03  -0.04  -0.09    -0.11  -0.01  -0.06
  13   1    -0.12   0.02   0.12     0.12  -0.08  -0.05    -0.08  -0.07  -0.04
  14   1     0.08   0.08  -0.06    -0.02   0.10   0.00    -0.16   0.06  -0.01
  15   1     0.02   0.01  -0.08    -0.04   0.03  -0.06    -0.10   0.00  -0.11
  16   1    -0.03  -0.07  -0.21     0.09   0.09   0.16    -0.05   0.01   0.12
  17   1    -0.08  -0.16  -0.05     0.12   0.20   0.00     0.02   0.03   0.03
                      4                      5                      6
                        a                      a                      a 
 Frequencies --   268.8758               295.8668               335.8979
 Red. masses --     7.6359                16.9647                 7.2543
 Frc consts  --     0.0000                 0.0000                 0.0000
 IR Inten    --    16.4793                12.7059                 6.1034
 Raman Activ --     0.0000                 0.0000                 0.0000
 Depolar     --     0.0000                 0.0000                 0.0000
 Atom AN      X      Y      Z        X      Y      Z        X      Y      Z
   1   7    -0.22  -0.20  -0.06    -0.61  -0.24  -0.15     0.09   0.14   0.04
   2   6    -0.17  -0.03  -0.11    -0.11  -0.10   0.19    -0.27  -0.24  -0.00
   3   6     0.12   0.05   0.01     0.04  -0.15  -0.02    -0.06  -0.11   0.32
   4   6     0.25  -0.15   0.15     0.03  -0.08  -0.13     0.05   0.01  -0.31
   5   6     0.05  -0.06  -0.14     0.17   0.13   0.00     0.28   0.24  -0.11
   6  53     0.00   0.15   0.05     0.20   0.16   0.05    -0.03  -0.04   0.01
   7   1    -0.17   0.17  -0.34    -0.11  -0.19   0.02    -0.03   0.18   0.01
   8   1    -0.29  -0.43   0.07    -0.15   0.14  -0.04     0.02  -0.02   0.01
   9   1     0.26   0.05   0.26    -0.32  -0.12  -0.18     0.18   0.05   0.02
  10   1    -0.07  -0.04  -0.02     0.07  -0.03   0.01    -0.19  -0.17   0.04
  11   1    -0.07   0.03  -0.06    -0.05   0.02   0.16    -0.09  -0.06  -0.16
  12   1     0.05   0.03   0.01     0.02   0.01  -0.04     0.09  -0.01   0.25
  13   1     0.05   0.07   0.00     0.02  -0.09  -0.01    -0.20   0.01   0.14
  14   1     0.12  -0.15   0.02    -0.00   0.00  -0.03     0.04   0.14  -0.08
  15   1     0.10  -0.02   0.16    -0.02  -0.03  -0.06    -0.06  -0.03  -0.19
  16   1    -0.00  -0.01  -0.10     0.04   0.05   0.09     0.09   0.08   0.13
  17   1    -0.04  -0.05  -0.01     0.11   0.09  -0.03     0.18   0.17  -0.09
                      7                      8                      9
                        a                      a                      a 
 Frequencies --   363.5141               480.2957               617.0226
 Red. masses --    12.1295                 6.1671                18.9836
 Frc consts  --     0.0000                 0.0000                 0.0000
 IR Inten    --    12.3057                 1.9221                13.6639
 Raman Activ --     0.0000                 0.0000                 0.0000
 Depolar     --     0.0000                 0.0000                 0.0000
 Atom AN      X      Y      Z        X      Y      Z        X      Y      Z
   1   7    -0.04  -0.47  -0.04     0.07  -0.15   0.05    -0.00  -0.04   0.02
   2   6     0.02   0.02  -0.27     0.15   0.22  -0.13    -0.01  -0.06   0.02
   3   6    -0.07   0.20   0.18    -0.39   0.17  -0.01    -0.03  -0.02  -0.02
   4   6    -0.18   0.41  -0.01    -0.00  -0.34  -0.10    -0.11   0.17   0.07
   5   6    -0.15   0.00   0.15     0.14   0.09  -0.07    -0.33   0.58  -0.45
   6  53     0.17  -0.04  -0.00    -0.02   0.01   0.02     0.16  -0.20   0.11
   7   1     0.01  -0.19  -0.03     0.06  -0.13   0.02    -0.01   0.02   0.03
   8   1     0.02  -0.21  -0.02     0.06  -0.07  -0.00     0.01   0.03  -0.00
   9   1    -0.10  -0.09   0.11    -0.10  -0.03   0.09     0.01  -0.02  -0.03
  10   1    -0.03  -0.04  -0.06     0.15   0.18  -0.07    -0.00  -0.02   0.01
  11   1    -0.02   0.05  -0.11     0.09  -0.01   0.12    -0.00  -0.02   0.01
  12   1     0.02  -0.03   0.19     0.02   0.02   0.24    -0.05  -0.04  -0.04
  13   1    -0.13   0.15   0.08    -0.34   0.15   0.06     0.03  -0.03  -0.01
  14   1    -0.08   0.27   0.02     0.02  -0.31  -0.05     0.09  -0.14  -0.04
  15   1    -0.07   0.10  -0.17     0.09  -0.05   0.18    -0.08   0.06   0.28
  16   1    -0.02  -0.02  -0.02     0.02   0.05   0.15    -0.06   0.13  -0.16
  17   1    -0.07  -0.05   0.06     0.14   0.14  -0.08    -0.14   0.10  -0.10
                     10                     11                     12
                        a                      a                      a 
 Frequencies --   789.3594               831.6210               836.2078
 Red. masses --     4.9816                 7.4213                 3.2288
 Frc consts  --     0.0000                 0.0000                 0.0000
 IR Inten    --    15.4785                 5.8466                47.7100
 Raman Activ --     0.0000                 0.0000                 0.0000
 Depolar     --     0.0000                 0.0000                 0.0000
 Atom AN      X      Y      Z        X      Y      Z        X      Y      Z
   1   7     0.03   0.07   0.03     0.21  -0.18  -0.15     0.07   0.02   0.09
   2   6     0.19   0.21   0.02    -0.08  -0.11   0.24     0.13   0.00   0.13
   3   6     0.22   0.02   0.12    -0.41   0.24   0.16    -0.03  -0.06  -0.17
   4   6    -0.11  -0.17  -0.10     0.03   0.22   0.04    -0.08   0.11  -0.09
   5   6    -0.33  -0.14  -0.11     0.18  -0.15  -0.12     0.20   0.11   0.17
   6  53     0.03  -0.00   0.03    -0.01   0.03  -0.01    -0.02  -0.00  -0.02
   7   1     0.08  -0.19  -0.23     0.07  -0.10  -0.13     0.07  -0.15  -0.28
   8   1    -0.18   0.03   0.08    -0.04   0.00  -0.00    -0.30   0.17   0.14
   9   1    -0.15   0.02   0.04     0.03  -0.07  -0.09    -0.07  -0.05  -0.12
  10   1    -0.23  -0.12   0.10    -0.07  -0.12   0.08    -0.27  -0.07   0.15
  11   1    -0.02   0.15  -0.32     0.01  -0.11  -0.05     0.00   0.02  -0.28
  12   1     0.02  -0.00  -0.03    -0.29   0.13  -0.30     0.08  -0.05   0.14
  13   1     0.11  -0.05   0.02     0.21  -0.13  -0.05    -0.24  -0.05   0.01
  14   1     0.05  -0.02  -0.05     0.08  -0.05  -0.02    -0.13  -0.21  -0.01
  15   1    -0.03  -0.05  -0.04     0.15   0.11   0.11     0.03   0.06   0.17
  16   1    -0.07  -0.02   0.38     0.09  -0.06   0.08     0.03   0.02  -0.29
  17   1     0.09   0.29  -0.17     0.14   0.06  -0.08    -0.05  -0.27   0.15
                     13                     14                     15
                        a                      a                      a 
 Frequencies --   892.3131               941.9707               963.8084
 Red. masses --     5.2786                 4.1638                 8.3712
 Frc consts  --     0.0000                 0.0000                 0.0000
 IR Inten    --    22.3098                26.9068                10.3355
 Raman Activ --     0.0000                 0.0000                 0.0000
 Depolar     --     0.0000                 0.0000                 0.0000
 Atom AN      X      Y      Z        X      Y      Z        X      Y      Z
   1   7    -0.02  -0.18   0.07     0.20  -0.14   0.07     0.17  -0.24  -0.27
   2   6    -0.03  -0.18   0.10    -0.17  -0.03   0.04    -0.13   0.22   0.32
   3   6     0.17   0.14  -0.24    -0.08   0.09  -0.14     0.12   0.23   0.06
   4   6    -0.01   0.27  -0.12     0.21  -0.19   0.17    -0.01  -0.30  -0.22
   5   6    -0.21  -0.25   0.06    -0.10   0.10  -0.07    -0.15   0.19   0.18
   6  53     0.00   0.02  -0.00     0.01  -0.01   0.02     0.00  -0.03   0.00
   7   1    -0.13   0.26   0.10     0.04  -0.06  -0.23    -0.01   0.07   0.07
   8   1    -0.01   0.17   0.02    -0.24   0.23   0.13     0.17  -0.08  -0.11
   9   1     0.28  -0.11  -0.27     0.07  -0.12  -0.27     0.16  -0.06  -0.09
  10   1     0.00   0.01   0.03    -0.08   0.30   0.03    -0.03  -0.12   0.07
  11   1    -0.04   0.03   0.09     0.05  -0.18   0.08    -0.10   0.18   0.01
  12   1     0.16  -0.00   0.15     0.03   0.04   0.04     0.10   0.28  -0.04
  13   1    -0.18   0.10  -0.00     0.00   0.27  -0.03    -0.01  -0.12   0.02
  14   1    -0.00  -0.19  -0.05     0.04   0.30   0.08    -0.10  -0.06  -0.03
  15   1     0.13   0.14   0.20    -0.04  -0.11  -0.30     0.00  -0.08  -0.09
  16   1     0.03  -0.10   0.25    -0.04   0.04   0.01    -0.14   0.11  -0.09
  17   1     0.05   0.18  -0.08    -0.14   0.11  -0.00    -0.09  -0.13   0.11
                     16                     17                     18
                        a                      a                      a 
 Frequencies --  1019.6423              1061.9466              1074.6536
 Red. masses --     5.9647                 9.0381                 4.5505
 Frc consts  --     0.0000                 0.0000                 0.0000
 IR Inten    --    25.2579                 5.3709                 1.3402
 Raman Activ --     0.0000                 0.0000                 0.0000
 Depolar     --     0.0000                 0.0000                 0.0000
 Atom AN      X      Y      Z        X      Y      Z        X      Y      Z
   1   7    -0.17  -0.18   0.15    -0.19   0.12   0.20     0.07   0.05   0.11
   2   6     0.33   0.13  -0.14     0.33  -0.40  -0.15    -0.14  -0.16  -0.16
   3   6    -0.07   0.12   0.14    -0.19   0.29  -0.03     0.19   0.14   0.19
   4   6    -0.23  -0.18   0.12     0.27  -0.12  -0.19    -0.17  -0.02  -0.26
   5   6     0.22   0.01  -0.13    -0.21   0.14   0.17    -0.07   0.04   0.17
   6  53    -0.01  -0.00  -0.01     0.01  -0.01   0.01    -0.01  -0.01  -0.02
   7   1    -0.18   0.30   0.15    -0.05   0.05   0.07     0.05  -0.07  -0.10
   8   1    -0.04   0.19   0.04    -0.06   0.03   0.06    -0.12   0.07   0.08
   9   1     0.25  -0.11  -0.24    -0.05   0.03   0.06    -0.04  -0.01  -0.04
  10   1    -0.07  -0.05   0.02     0.06  -0.26  -0.03     0.09   0.15  -0.08
  11   1    -0.02   0.22  -0.16     0.07  -0.09  -0.09     0.03  -0.15   0.15
  12   1    -0.16  -0.14  -0.07    -0.04   0.19  -0.09    -0.00   0.06  -0.06
  13   1     0.15   0.10  -0.01     0.02  -0.03  -0.03     0.25   0.22   0.00
  14   1    -0.04   0.06   0.04    -0.02   0.01  -0.02     0.22  -0.10  -0.16
  15   1    -0.11  -0.07  -0.06     0.24   0.02  -0.14    -0.13  -0.01   0.18
  16   1    -0.05   0.07  -0.08    -0.10   0.06   0.00    -0.19   0.12   0.00
  17   1     0.14  -0.11  -0.03    -0.16   0.02   0.08     0.37  -0.34   0.01
                     19                     20                     21
                        a                      a                      a 
 Frequencies --  1127.8505              1168.3031              1219.8467
 Red. masses --     7.8156                 4.9418                 3.1344
 Frc consts  --     0.0000                 0.0000                 0.0000
 IR Inten    --     3.8458                 6.5071                 8.3016
 Raman Activ --     0.0000                 0.0000                 0.0000
 Depolar     --     0.0000                 0.0000                 0.0000
 Atom AN      X      Y      Z        X      Y      Z        X      Y      Z
   1   7     0.02   0.11  -0.00    -0.08   0.04  -0.18    -0.10   0.01  -0.15
   2   6    -0.01  -0.30   0.12     0.14  -0.08   0.31     0.13  -0.07   0.19
   3   6     0.22   0.36  -0.12    -0.11   0.03  -0.32    -0.01   0.09   0.01
   4   6    -0.39  -0.11   0.20     0.11   0.03   0.20    -0.08  -0.09  -0.23
   5   6     0.21  -0.05  -0.25    -0.10   0.02  -0.04     0.03   0.01   0.14
   6  53     0.00   0.00   0.00    -0.01  -0.01  -0.01     0.00   0.02   0.00
   7   1     0.06  -0.09  -0.02    -0.00  -0.02   0.14    -0.03   0.01   0.15
   8   1    -0.01  -0.07   0.01     0.10  -0.14  -0.09     0.08  -0.10  -0.07
   9   1    -0.10   0.05   0.10    -0.03   0.06   0.13     0.01   0.04   0.09
  10   1     0.09  -0.20  -0.01    -0.16  -0.07   0.16    -0.22   0.17   0.16
  11   1    -0.00  -0.07   0.07     0.03  -0.04  -0.12     0.09  -0.16  -0.11
  12   1     0.16   0.21   0.05     0.02  -0.13   0.10    -0.07  -0.13   0.01
  13   1     0.00   0.19  -0.01    -0.12   0.21  -0.05     0.19   0.38  -0.03
  14   1    -0.36  -0.04   0.13     0.20   0.18   0.01     0.21  -0.04  -0.13
  15   1    -0.12  -0.04  -0.05     0.00  -0.00  -0.05    -0.24  -0.08   0.10
  16   1     0.07  -0.02  -0.03    -0.24   0.16   0.09     0.33  -0.23  -0.08
  17   1     0.01   0.06  -0.07     0.42  -0.25  -0.07    -0.29   0.14   0.09
                     22                     23                     24
                        a                      a                      a 
 Frequencies --  1240.8744              1253.0216              1280.9145
 Red. masses --     1.8682                 2.0969                 2.9721
 Frc consts  --     0.0000                 0.0000                 0.0000
 IR Inten    --     8.7040                12.6557                33.1951
 Raman Activ --     0.0000                 0.0000                 0.0000
 Depolar     --     0.0000                 0.0000                 0.0000
 Atom AN      X      Y      Z        X      Y      Z        X      Y      Z
   1   7     0.00  -0.02   0.08    -0.14  -0.06  -0.08    -0.02  -0.01   0.04
   2   6     0.07   0.02  -0.07     0.13   0.01  -0.09    -0.01   0.02   0.03
   3   6    -0.13  -0.00  -0.12     0.07  -0.03   0.13    -0.00   0.07  -0.07
   4   6     0.04  -0.01   0.13    -0.04   0.06   0.06     0.01   0.10  -0.05
   5   6    -0.07  -0.01   0.04     0.02  -0.04  -0.06     0.30  -0.24   0.01
   6  53     0.00   0.01  -0.01     0.00  -0.00  -0.00    -0.00  -0.02   0.01
   7   1    -0.01   0.02  -0.03    -0.08   0.09   0.15    -0.03   0.02  -0.09
   8   1    -0.03   0.05   0.03     0.03  -0.01  -0.04     0.09   0.02  -0.03
   9   1     0.03  -0.02  -0.04     0.02   0.01   0.04    -0.03  -0.00   0.00
  10   1     0.09  -0.17  -0.06    -0.26   0.46   0.11     0.04  -0.11  -0.01
  11   1    -0.02   0.07  -0.02     0.24  -0.42  -0.17     0.04  -0.07  -0.02
  12   1     0.17   0.43  -0.04     0.16   0.38  -0.04    -0.01  -0.00  -0.01
  13   1    -0.18  -0.21  -0.00    -0.04  -0.29   0.04    -0.07  -0.04  -0.01
  14   1     0.36   0.17  -0.06    -0.15  -0.03   0.06     0.21   0.03  -0.08
  15   1    -0.49  -0.15   0.13     0.01   0.02   0.02    -0.31  -0.07   0.15
  16   1     0.28  -0.21  -0.01    -0.10   0.07   0.03    -0.53   0.36   0.04
  17   1     0.12  -0.07  -0.01     0.07  -0.02  -0.03    -0.36   0.23   0.06
                     25                     26                     27
                        a                      a                      a 
 Frequencies --  1319.8768              1345.2219              1360.0670
 Red. masses --     3.2679                 3.0752                 3.6988
 Frc consts  --     0.0000                 0.0000                 0.0000
 IR Inten    --    20.8389                16.2411                41.1442
 Raman Activ --     0.0000                 0.0000                 0.0000
 Depolar     --     0.0000                 0.0000                 0.0000
 Atom AN      X      Y      Z        X      Y      Z        X      Y      Z
   1   7     0.19   0.04  -0.18     0.06   0.04  -0.11    -0.17   0.11   0.07
   2   6     0.10  -0.26  -0.05    -0.08  -0.00  -0.04     0.04  -0.27  -0.03
   3   6    -0.10  -0.13   0.03     0.11   0.33  -0.00     0.10   0.25  -0.01
   4   6    -0.08   0.03   0.01     0.19  -0.02  -0.03    -0.16  -0.11   0.07
   5   6     0.08  -0.04  -0.01    -0.03  -0.00  -0.02     0.04   0.03   0.00
   6  53    -0.00  -0.00   0.00     0.00   0.00  -0.00     0.00   0.00   0.00
   7   1     0.05   0.05   0.31     0.09  -0.13   0.40     0.10  -0.30  -0.24
   8   1    -0.36  -0.08   0.12    -0.38  -0.10   0.14     0.29  -0.00  -0.12
   9   1    -0.13   0.03   0.08     0.11   0.01  -0.02     0.27   0.02  -0.05
  10   1    -0.12   0.28   0.05     0.01   0.01  -0.02    -0.10   0.33   0.05
  11   1    -0.25   0.49   0.12     0.03  -0.10   0.04    -0.13   0.23   0.05
  12   1     0.08   0.23  -0.03    -0.18  -0.37   0.01    -0.07  -0.15   0.01
  13   1     0.03   0.06  -0.00    -0.14  -0.34   0.03    -0.15  -0.32   0.03
  14   1     0.11   0.03  -0.03    -0.13  -0.02   0.05     0.23   0.10  -0.05
  15   1     0.08   0.04   0.02    -0.30  -0.11   0.04     0.11   0.02  -0.03
  16   1    -0.10   0.08   0.01     0.02  -0.02   0.09     0.03  -0.01  -0.02
  17   1    -0.10   0.06   0.02     0.01  -0.06   0.01    -0.03   0.00   0.02
                     28                     29                     30
                        a                      a                      a 
 Frequencies --  1364.1272              1369.3453              1449.6934
 Red. masses --     3.7919                 2.6461                 1.9112
 Frc consts  --     0.0000                 0.0000                 0.0000
 IR Inten    --    26.1532                38.1945                23.0558
 Raman Activ --     0.0000                 0.0000                 0.0000
 Depolar     --     0.0000                 0.0000                 0.0000
 Atom AN      X      Y      Z        X      Y      Z        X      Y      Z
   1   7    -0.15   0.07   0.03     0.14  -0.08   0.01    -0.01  -0.10  -0.10
   2   6     0.08  -0.07  -0.00     0.04  -0.19   0.02    -0.01  -0.00  -0.02
   3   6    -0.16  -0.15   0.08     0.01   0.17   0.03    -0.01   0.03  -0.01
   4   6     0.34   0.15  -0.09     0.21   0.01  -0.04     0.03   0.00   0.02
   5   6    -0.06  -0.03  -0.05    -0.07  -0.01   0.01    -0.09  -0.09   0.20
   6  53     0.00  -0.00   0.00    -0.00   0.00  -0.00     0.00  -0.01   0.00
   7   1     0.11  -0.31  -0.06    -0.17   0.41  -0.30     0.02  -0.07   0.04
   8   1     0.14   0.00  -0.06     0.19   0.07  -0.07    -0.05   0.33   0.01
   9   1     0.33   0.02  -0.04    -0.48  -0.01   0.10     0.14   0.10   0.32
  10   1    -0.05   0.09   0.03    -0.11   0.20   0.06    -0.03  -0.04   0.01
  11   1    -0.09   0.20   0.02    -0.09   0.16   0.08    -0.01   0.00   0.06
  12   1     0.02   0.14  -0.03    -0.11  -0.16  -0.02     0.00  -0.03   0.03
  13   1     0.13   0.22  -0.01    -0.05  -0.12   0.01     0.03  -0.03  -0.01
  14   1    -0.42  -0.15   0.12    -0.20  -0.05   0.07    -0.01  -0.06   0.00
  15   1    -0.34  -0.09   0.08    -0.25  -0.09   0.04    -0.04  -0.02  -0.07
  16   1    -0.07   0.04   0.09     0.03  -0.04  -0.01    -0.09   0.01  -0.57
  17   1     0.05  -0.05  -0.01     0.10  -0.03  -0.03     0.29   0.44  -0.19
                     31                     32                     33
                        a                      a                      a 
 Frequencies --  1453.2582              1479.7664              1484.8440
 Red. masses --     1.9415                 1.8825                 1.8847
 Frc consts  --     0.0000                 0.0000                 0.0000
 IR Inten    --    86.6895                18.9088                25.8586
 Raman Activ --     0.0000                 0.0000                 0.0000
 Depolar     --     0.0000                 0.0000                 0.0000
 Atom AN      X      Y      Z        X      Y      Z        X      Y      Z
   1   7     0.01   0.18   0.13    -0.01  -0.01   0.00     0.01  -0.04  -0.03
   2   6     0.02   0.00   0.01    -0.10  -0.11   0.22    -0.04  -0.00   0.01
   3   6    -0.07   0.02  -0.02     0.03  -0.01   0.02    -0.22   0.09  -0.11
   4   6     0.02   0.01   0.01     0.03  -0.06  -0.06    -0.01  -0.04  -0.04
   5   6    -0.05  -0.05   0.12    -0.01  -0.01   0.02     0.02   0.01  -0.04
   6  53     0.00  -0.01   0.00    -0.00  -0.00  -0.00    -0.00   0.00  -0.00
   7   1     0.01   0.01   0.02    -0.01   0.01   0.03    -0.01   0.01  -0.01
   8   1     0.02  -0.57  -0.00    -0.03   0.03   0.02    -0.00   0.13  -0.00
   9   1    -0.15  -0.16  -0.52    -0.00   0.01   0.03     0.02   0.03   0.11
  10   1     0.00   0.04   0.01     0.53   0.28  -0.19     0.06   0.02  -0.03
  11   1     0.00   0.00  -0.05    -0.07   0.06  -0.63    -0.02   0.02  -0.05
  12   1     0.07  -0.01   0.14    -0.06  -0.00  -0.09     0.28  -0.09   0.56
  13   1     0.15  -0.07  -0.04    -0.08   0.06   0.02     0.56  -0.28  -0.16
  14   1    -0.02  -0.04   0.00    -0.09   0.19   0.04    -0.04   0.15   0.02
  15   1    -0.03  -0.02  -0.04     0.03   0.02   0.19     0.02   0.02   0.15
  16   1    -0.06   0.01  -0.33    -0.01  -0.00  -0.06     0.01  -0.00   0.09
  17   1     0.17   0.26  -0.11     0.04   0.05  -0.02    -0.06  -0.07   0.03
                     34                     35                     36
                        a                      a                      a 
 Frequencies --  1494.8768              2617.3596              2903.6533
 Red. masses --     1.8538                 1.8994                 1.8949
 Frc consts  --     0.0000                 0.0000                 0.0000
 IR Inten    --    13.0743              1860.2704                 2.3782
 Raman Activ --     0.0000                 0.0000                 0.0000
 Depolar     --     0.0000                 0.0000                 0.0000
 Atom AN      X      Y      Z        X      Y      Z        X      Y      Z
   1   7    -0.00   0.01   0.01    -0.24  -0.11  -0.00     0.00   0.00  -0.00
   2   6     0.04   0.05  -0.07     0.00   0.01   0.01    -0.00   0.00  -0.00
   3   6     0.04  -0.03   0.01     0.00   0.00  -0.00    -0.02   0.00   0.01
   4   6     0.01  -0.18  -0.17     0.00  -0.00  -0.00     0.10  -0.23   0.12
   5   6    -0.01  -0.03   0.01    -0.00  -0.01   0.00     0.01   0.00  -0.00
   6  53     0.00   0.00  -0.00     0.00   0.00   0.00    -0.00   0.00  -0.00
   7   1     0.01  -0.02  -0.01     0.88   0.39  -0.04    -0.00  -0.00   0.00
   8   1     0.01  -0.04  -0.00    -0.00  -0.01   0.02    -0.00   0.00   0.00
   9   1     0.00  -0.01  -0.04    -0.02   0.02  -0.01    -0.00  -0.00   0.00
  10   1    -0.19  -0.11   0.07     0.00   0.00  -0.00     0.01   0.00   0.01
  11   1     0.03  -0.03   0.22    -0.02  -0.02  -0.01     0.00   0.00  -0.00
  12   1    -0.05   0.01  -0.10    -0.00  -0.00   0.00     0.06  -0.03  -0.04
  13   1    -0.09   0.05   0.03    -0.00   0.00   0.00     0.01   0.00   0.04
  14   1    -0.20   0.60   0.11     0.00  -0.00  -0.00    -0.11   0.01  -0.37
  15   1     0.13   0.09   0.58    -0.00   0.00   0.00    -0.27   0.83  -0.08
  16   1    -0.00  -0.01  -0.07     0.01   0.02  -0.00    -0.03  -0.04   0.00
  17   1     0.04   0.07  -0.03    -0.00   0.01   0.00     0.00   0.00   0.01
                     37                     38                     39
                        a                      a                      a 
 Frequencies --  2931.0012              2942.3520              2942.8141
 Red. masses --     1.8718                 1.9277                 1.6268
 Frc consts  --     0.0000                 0.0000                 0.0000
 IR Inten    --     0.6784                 1.1566                 7.5815
 Raman Activ --     0.0000                 0.0000                 0.0000
 Depolar     --     0.0000                 0.0000                 0.0000
 Atom AN      X      Y      Z        X      Y      Z        X      Y      Z
   1   7     0.00   0.00  -0.00     0.01   0.00  -0.00    -0.00   0.00   0.00
   2   6     0.03   0.02   0.00     0.24   0.10   0.11    -0.02  -0.01  -0.00
   3   6    -0.14   0.08   0.21     0.00  -0.00  -0.06     0.06  -0.04  -0.06
   4   6    -0.02  -0.01  -0.08    -0.00  -0.01  -0.02    -0.03  -0.07  -0.19
   5   6     0.00   0.00  -0.00     0.00   0.00   0.00     0.03   0.04   0.03
   6  53     0.00  -0.00   0.00    -0.00   0.00  -0.00     0.00   0.00   0.00
   7   1    -0.00  -0.00  -0.00    -0.02  -0.01  -0.00     0.00   0.00  -0.00
   8   1     0.00  -0.00   0.00     0.00  -0.00   0.01    -0.00   0.00  -0.00
   9   1     0.00  -0.00  -0.00     0.00   0.00  -0.00     0.00  -0.00   0.00
  10   1     0.01   0.00   0.02    -0.15   0.03  -0.42    -0.00  -0.00   0.01
  11   1    -0.13  -0.06   0.00    -0.73  -0.37   0.04     0.09   0.04  -0.00
  12   1     0.61  -0.29  -0.37    -0.03   0.01   0.01    -0.27   0.13   0.16
  13   1    -0.12   0.02  -0.41     0.05  -0.01   0.21     0.02  -0.01   0.05
  14   1     0.10  -0.04   0.31     0.02  -0.01   0.05     0.24  -0.10   0.75
  15   1    -0.03   0.09  -0.02    -0.01   0.03  -0.01    -0.13   0.36  -0.06
  16   1    -0.01  -0.01  -0.00    -0.01  -0.01   0.00    -0.08  -0.11   0.01
  17   1    -0.00  -0.00  -0.01    -0.01  -0.00  -0.02    -0.04  -0.03  -0.13
                     40                     41                     42
                        a                      a                      a 
 Frequencies --  2963.6661              2965.7507              2976.2125
 Red. masses --     1.7305                 1.7804                 1.5902
 Frc consts  --     0.0000                 0.0000                 0.0000
 IR Inten    --     2.5941                13.4236                 2.3786
 Raman Activ --     0.0000                 0.0000                 0.0000
 Depolar     --     0.0000                 0.0000                 0.0000
 Atom AN      X      Y      Z        X      Y      Z        X      Y      Z
   1   7    -0.01  -0.00  -0.00     0.00   0.00   0.00     0.01  -0.00   0.00
   2   6    -0.04  -0.02   0.02    -0.03  -0.02   0.03     0.01   0.05  -0.20
   3   6    -0.12   0.04  -0.10    -0.09   0.03  -0.10    -0.02   0.01  -0.06
   4   6    -0.01   0.02   0.00    -0.01  -0.02  -0.05    -0.00   0.00  -0.00
   5   6     0.11   0.14   0.07    -0.12  -0.17  -0.06    -0.00  -0.01   0.08
   6  53    -0.00   0.00  -0.00     0.00  -0.00   0.00     0.00  -0.00   0.00
   7   1     0.02   0.01  -0.00    -0.01  -0.00  -0.00    -0.01  -0.01  -0.00
   8   1     0.00   0.00   0.01     0.00   0.00   0.00    -0.01   0.00  -0.02
   9   1    -0.00   0.00  -0.00    -0.00   0.00   0.00     0.00   0.00  -0.00
  10   1    -0.04  -0.00  -0.09    -0.05  -0.00  -0.10     0.31  -0.01   0.72
  11   1     0.18   0.09  -0.00     0.16   0.08  -0.00    -0.34  -0.16  -0.01
  12   1     0.29  -0.14  -0.21     0.20  -0.10  -0.15     0.02  -0.01  -0.03
  13   1     0.12  -0.01   0.58     0.11  -0.01   0.51     0.05  -0.01   0.22
  14   1    -0.00   0.00  -0.01     0.06  -0.02   0.17     0.00   0.00   0.01
  15   1     0.02  -0.08   0.01    -0.02   0.07  -0.01     0.00  -0.00   0.00
  16   1    -0.30  -0.45   0.03     0.37   0.54  -0.04     0.10   0.14   0.00
  17   1    -0.07  -0.06  -0.27     0.07   0.05   0.26    -0.10  -0.09  -0.29
                     43                     44                     45
                        a                      a                      a 
 Frequencies --  2978.6099              3199.9264              3214.2202
 Red. masses --     1.5817                 2.0246                 1.5212
 Frc consts  --     0.0000                 0.0000                 0.0000
 IR Inten    --    21.7073                60.6755                36.1327
 Raman Activ --     0.0000                 0.0000                 0.0000
 Depolar     --     0.0000                 0.0000                 0.0000
 Atom AN      X      Y      Z        X      Y      Z        X      Y      Z
   1   7    -0.00   0.00  -0.00     0.06  -0.20   0.19    -0.06  -0.12  -0.15
   2   6    -0.00  -0.02   0.08     0.00  -0.00   0.01    -0.00  -0.00  -0.01
   3   6     0.01  -0.00   0.04     0.00   0.00  -0.00     0.00  -0.00   0.00
   4   6     0.01  -0.00   0.03     0.00  -0.00   0.00     0.00  -0.00  -0.00
   5   6     0.00  -0.03   0.21     0.00   0.00   0.00    -0.00  -0.00  -0.00
   6  53     0.00  -0.00   0.00     0.00  -0.00  -0.00     0.00   0.00   0.00
   7   1    -0.00  -0.00   0.00    -0.01  -0.02   0.02    -0.05  -0.03  -0.01
   8   1     0.00  -0.00   0.01    -0.19  -0.01  -0.48     0.30  -0.03   0.77
   9   1    -0.00  -0.00   0.00    -0.04   0.77  -0.24    -0.04   0.50  -0.18
  10   1    -0.12   0.00  -0.28    -0.01   0.00  -0.01     0.01  -0.00   0.01
  11   1     0.13   0.06   0.00     0.00   0.00  -0.00    -0.00   0.00   0.00
  12   1    -0.01   0.00   0.01     0.00  -0.00  -0.00    -0.00   0.00   0.00
  13   1    -0.03   0.00  -0.13    -0.00   0.00  -0.00    -0.00  -0.00  -0.01
  14   1    -0.03   0.01  -0.08     0.00  -0.00   0.00     0.00  -0.00   0.00
  15   1     0.00   0.00   0.00    -0.00   0.00  -0.00    -0.00   0.00  -0.00
  16   1     0.22   0.32   0.01     0.00   0.00  -0.00     0.00   0.00  -0.00
  17   1    -0.24  -0.22  -0.74    -0.00  -0.00  -0.00     0.00  -0.00   0.00
