21
 energy: -25.727659800922 gnorm: 0.000384818095 xtb: 6.5.1 (fef0646)
N            3.45698361765060        0.06942603724283       -1.09701006975637
C            2.55318192809280        0.08037965750252        0.12411034287229
C            1.11066624314950        0.11867512915565       -0.34951376057830
C            2.87888483164898       -1.13178926502838        0.96023110459348
C            3.32126447059258       -0.97823607394331        2.26801596755249
C            3.61824578462973       -2.08956013642532        3.03850568858887
C            3.48290955963281       -3.36004183722633        2.50502323329091
C            3.04368745229623       -3.52003986898535        1.20067428323855
C            2.74188142936058       -2.41182376807614        0.43008963760426
H            3.22327544962261        0.83967733331387       -1.73572323598287
H            3.32154928346551       -0.82642478200626       -1.58602658381828
H            4.44308593816897        0.14081198441518       -0.81920833495573
H            2.78392266498985        0.99020473504670        0.68501373292688
H            0.85890372186275       -0.76156853932032       -0.93505631542678
H            0.91054427208095        1.01108900099179       -0.93830478140776
H            0.45252167475272        0.13636597131922        0.51480413300319
H            3.42349130385875        0.01110311656317        2.68844443073886
H            3.95606149876514       -1.96049851876206        4.05441879580279
H            3.71463411030704       -4.22569340132010        3.10473644936502
H            2.93146796898824       -4.50836747763739        0.78359330614180
H            2.38241679608373       -2.55946929681994       -0.57997802379335
