28
 energy: -40.343623293887 gnorm: 0.000447176441 xtb: 6.5.1 (fef0646)
N            0.96450260024755        0.02721862084386        0.28376542218969
C            2.36860599431343        0.25685880944748       -0.14683529560670
C            3.29106274655063       -0.10663107334072        1.01065401644401
C            2.69512586109652       -0.55737136775322       -1.37466700583466
C            2.41296060364490       -1.93850886084512       -1.40291077099271
C            2.73796025712027       -2.68830142393997       -2.49716467925484
C            3.30233118375029        0.03107490308707       -2.45350100889254
C            3.65333179855256       -0.71772828222363       -3.59509153661289
C            3.36445030995570       -2.10673780625367       -3.61998130828095
C            3.71354757985298       -2.85679176026143       -4.76201947795508
C            4.32101615868623       -2.25858795683565       -5.83071780852244
C            4.60627600473898       -0.88384801862258       -5.80643851275024
C            4.27986494520508       -0.12987054116275       -4.71415100101329
Cl           0.46305928390793       -2.68483281034908        1.64616803990943
H            0.70704849082031        0.67629910343583        1.03124368671837
H            0.84688676665249       -0.93649245854246        0.68865218562654
H            0.30956605062363        0.12087261948059       -0.49586318422190
H            2.48277267571343        1.31718812642004       -0.39116845786030
H            3.08931815966102       -1.12502735648075        1.33348942404704
H            3.13609370078806        0.56057616320929        1.85288275377864
H            4.32944357504245       -0.04185122762593        0.70220269681288
H            1.93854676110490       -2.40697749616496       -0.55412951805773
H            2.51945649683472       -3.74677418087978       -2.51565708471316
H            3.53046926674424        1.08695018312728       -2.44613806224754
H            3.49148485659121       -3.91451835717823       -4.77537980839774
H            4.58644226251921       -2.83937899352227       -6.70182128888846
H            5.08649863400717       -0.42983766809185       -6.66052792997225
H            4.49823697527421        0.92765911102423       -4.69271448545143
