23
 energy: -32.858020609632 gnorm: 0.000454732331 xtb: 6.5.1 (fef0646)
N            2.99294640245536       -0.82485819601749       -0.77725249904618
C            2.34061499552052        0.30781038595990       -0.08156887494780
C            2.80604607118034        0.43271624754587        1.34384592838748
C            3.21545887089470        1.66151641687721        1.84757042326125
C            3.62357757624471        1.78808458043840        3.16065312736604
C            3.64300662793955        0.68241689405871        4.01110263628262
C            4.06292036702194        0.76029563915325        5.40544390486498
C            4.27305843184753        1.86768178990225        6.10757962294406
C            3.24161661821471       -0.55089839030215        3.49240935653937
C            2.82159289636841       -0.67618335056142        2.18309293247555
Cl           1.83856852936760       -3.55159142632870       -0.00223053550791
H            2.79943531294193       -0.79521705030995       -1.78085415695099
H            2.62308314399348       -1.74705247390752       -0.43447206236924
H            4.00339075177089       -0.81681960479765       -0.61871557889681
H            1.26228824965937        0.13670839490707       -0.09367461901426
H            2.55958869564450        1.23322272131108       -0.61575215656080
H            3.21187222766010        2.53202487989875        1.20913275187007
H            3.94254751255219        2.75113532051575        3.52617349785095
H            4.18932814625573       -0.20068532851231        5.89032514159528
H            4.14578253625215        2.85296091504274        5.69338618926484
H            4.57637118641581        1.82532987491927        7.13933813012990
H            3.25038211719112       -1.42224192126124        4.13250014452108
H            2.50194273260812       -1.64021631853094        1.81590669593871
