18
 energy: -21.226217307242 gnorm: 0.000286933369 xtb: 6.5.1 (fef0646)
N            0.98799067632432        0.11909085749610        0.06153837713804
C            2.48569238837612        0.11591871659729        0.01933179021432
C            3.02983126507074       -0.84832759382636        1.06034993194315
C            4.55998746624944       -0.85078867989375        1.09914739965161
C            5.02893201136141       -1.66521533303048        2.31524884678168
O            4.53324343188047       -1.12330216640214        3.51445777229758
H            0.58792474408344        0.75994798871631       -0.63522736227526
H            0.67168043559002        0.40341543696633        0.99882881195860
H            0.63524442505477       -0.83086273895122       -0.11713741455959
H            2.83741415778055        1.12992275670659        0.21450925678387
H            2.80423954487760       -0.17766941993455       -0.98189736259574
H            2.68564200622296       -1.86260623497312        0.85069837988827
H            2.68332242341281       -0.56828452143347        2.05783032327408
H            4.92800659077598        0.17293825684197        1.18972202759007
H            4.97196107344973       -1.28647580300689        0.19027558609254
H            6.12080539363421       -1.72862556333708        2.32098243663806
H            4.62591071672314       -2.67944287520494        2.25361858818734
H            5.10846124913227       -0.41196308333057        3.81490261099130
