17
 energy: -17.172890573014 gnorm: 0.000302831327 xtb: 6.5.1 (fef0646)
N            0.90862223728001        0.05229850243102        0.04945388314884
C            2.40285812829948        0.00613497891070        0.07909433558657
C            2.89562015801448       -1.23047770809178        0.83428445287994
C            2.39920176921872       -2.51229766378044        0.16730713537608
C            4.42216193670887       -1.19886811960399        0.86864682523084
H            0.56266455538742        0.84322000156003       -0.50649613189852
H            0.54020161836378        0.12963665937780        1.00616952410577
H            0.56772180797021       -0.83039970915867       -0.35916674970509
H            2.77176833505787        0.91614797290453        0.55355778244984
H            2.76504042505955       -0.02238319156344       -0.95008624762075
H            2.52486881647978       -1.19134885115194        1.86391402388033
H            2.66249567220565       -2.52663587894940       -0.88787744672825
H            1.32433099981160       -2.65573057570427        0.27361791628935
H            2.87556122731956       -3.36959941666769        0.63331714524146
H            4.83029844620386       -1.26475893486114       -0.13608927042840
H            4.79926650685606       -2.03869877792311        1.44326469258551
H            4.78346735976310       -0.28480928772821        1.33135812960646
