      -----------------------------------------------------------      
     |                   =====================                   |     
     |                           x T B                           |     
     |                   =====================                   |     
     |                         S. Grimme                         |     
     |          Mulliken Center for Theoretical Chemistry        |     
     |                    University of Bonn                     |     
      -----------------------------------------------------------      

   * xtb version 6.5.1 (fef0646) compiled by 'conda@b96dff2e9fd6' on 2023-01-04

   xtb is free software: you can redistribute it and/or modify it under
   the terms of the GNU Lesser General Public License as published by
   the Free Software Foundation, either version 3 of the License, or
   (at your option) any later version.
   
   xtb is distributed in the hope that it will be useful,
   but WITHOUT ANY WARRANTY; without even the implied warranty of
   MERCHANTABILITY or FITNESS FOR A PARTICULAR PURPOSE.  See the
   GNU Lesser General Public License for more details.
   
   Cite this work as:
   * C. Bannwarth, E. Caldeweyher, S. Ehlert, A. Hansen, P. Pracht,
     J. Seibert, S. Spicher, S. Grimme, WIREs Comput. Mol. Sci., 2020, 11,
     e01493. DOI: 10.1002/wcms.1493
   
   for GFN2-xTB:
   * C. Bannwarth, S. Ehlert and S. Grimme., J. Chem. Theory Comput., 2019,
     15, 1652-1671. DOI: 10.1021/acs.jctc.8b01176
   for GFN1-xTB:
   * S. Grimme, C. Bannwarth, P. Shushkov, J. Chem. Theory Comput., 2017,
     13, 1989-2009. DOI: 10.1021/acs.jctc.7b00118
   for GFN0-xTB:
   * P. Pracht, E. Caldeweyher, S. Ehlert, S. Grimme, ChemRxiv, 2019, preprint.
     DOI: 10.26434/chemrxiv.8326202.v1
   for GFN-FF:
   * S. Spicher and S. Grimme, Angew. Chem. Int. Ed., 2020, 59, 15665-15673.
     DOI: 10.1002/anie.202004239
   
   for ALPB and GBSA implicit solvation:
   * S. Ehlert, M. Stahn, S. Spicher, S. Grimme, J. Chem. Theory Comput.,
     2021, 17, 4250-4261. DOI: 10.1021/acs.jctc.1c00471
   
   for DFT-D4:
   * E. Caldeweyher, C. Bannwarth and S. Grimme, J. Chem. Phys., 2017,
     147, 034112. DOI: 10.1063/1.4993215
   * E. Caldeweyher, S. Ehlert, A. Hansen, H. Neugebauer, S. Spicher,
     C. Bannwarth and S. Grimme, J. Chem. Phys., 2019, 150, 154122.
     DOI: 10.1063/1.5090222
   * E. Caldeweyher, J.-M. Mewes, S. Ehlert and S. Grimme, Phys. Chem. Chem. Phys.
     2020, 22, 8499-8512. DOI: 10.1039/D0CP00502A
   
   for sTDA-xTB:
   * S. Grimme and C. Bannwarth, J. Chem. Phys., 2016, 145, 054103.
     DOI: 10.1063/1.4959605
   
   in the mass-spec context:
   * V. Asgeirsson, C. Bauer and S. Grimme, Chem. Sci., 2017, 8, 4879.
     DOI: 10.1039/c7sc00601b
   * J. Koopman and S. Grimme, ACS Omega 2019, 4, 12, 15120-15133.
     DOI: 10.1021/acsomega.9b02011
   
   for metadynamics refer to:
   * S. Grimme, J. Chem. Theory Comput., 2019, 155, 2847-2862
     DOI: 10.1021/acs.jctc.9b00143
   
   for SPH calculations refer to:
   * S. Spicher and S. Grimme, J. Chem. Theory Comput., 2021, 17, 1701-1714
     DOI: 10.1021/acs.jctc.0c01306
   
   with help from (in alphabetical order)
   P. Atkinson, C. Bannwarth, F. Bohle, G. Brandenburg, E. Caldeweyher
   M. Checinski, S. Dohm, S. Ehlert, S. Ehrlich, I. Gerasimov, C. Hölzer
   A. Katbashev, J. Koopman, C. Lavigne, S. Lehtola, F. März, M. Müller,
   F. Musil, H. Neugebauer, J. Pisarek, C. Plett, P. Pracht, F. Pultar,
   J. Seibert, P. Shushkov, S. Spicher, M. Stahn, M. Steiner, T. Strunk,
   J. Stückrath, T. Rose, and J. Unsleber
   
 * started run on 2023/01/24 at 15:47:28.479     

           -------------------------------------------------
          |                Calculation Setup                |
           -------------------------------------------------

          program call               : xtb init.xyz --opt -c 1 -u 0 -P 16 --alpb water
          hostname                   : gpg-woodward
          coordinate file            : init.xyz
          omp threads                :                    16

   ID    Z sym.   atoms
    1    7 N      1
    2    6 C      2-7, 9, 10
    3    9 F      8
    4    1 H      11-21

           -------------------------------------------------
          |                 G F N 2 - x T B                 |
           -------------------------------------------------

        Reference                      10.1021/acs.jctc.8b01176
      * Hamiltonian:
        H0-scaling (s, p, d)           1.850000    2.230000    2.230000
        zeta-weighting                 0.500000
      * Dispersion:
        s8                             2.700000
        a1                             0.520000
        a2                             5.000000
        s9                             5.000000
      * Repulsion:
        kExp                           1.500000    1.000000
        rExp                           1.000000
      * Coulomb:
        alpha                          2.000000
        third order                    shell-resolved
        anisotropic                    true
        a3                             3.000000
        a5                             4.000000
        cn-shift                       1.200000
        cn-exp                         4.000000
        max-rad                        5.000000

      * Solvation model:               ALPB
        Solvent                        water
        Parameter file                 internal GFN2-xTB/ALPB
        Dielectric constant                8.0200E+01
        Reference state                gsolv [1 M gas/solution]
        Free energy shift                  1.0808E-03 Eh       6.7819E-01 kcal/mol
        Temperature                        2.9815E+02 K
        Density                            1.0000E+00 kg/L
        Solvent mass                       1.8000E+01 g/mol
        Interaction kernel             P16
        Born radius scaling (c1)           1.4744E+00
        Born radii integrator          GBOBC
        Born offset                        0.0000E+00 a0       0.0000E+00 AA
        H-bond correction              true
        Ion screening                  false
        Surface tension                    1.0000E-05 Eh       1.5569E+01 dyn/cm
        Grid points                               230 per atom

          ...................................................
          :                      SETUP                      :
          :.................................................:
          :  # basis functions                  51          :
          :  # atomic orbitals                  51          :
          :  # shells                           31          :
          :  # electrons                        54          :
          :  max. iterations                   250          :
          :  Hamiltonian                  GFN2-xTB          :
          :  restarted?                      false          :
          :  GBSA solvation                   true          :
          :  PC potential                    false          :
          :  electronic temp.          300.0000000     K    :
          :  accuracy                    1.0000000          :
          :  -> integral cutoff          0.2500000E+02      :
          :  -> integral neglect         0.1000000E-07      :
          :  -> SCF convergence          0.1000000E-05 Eh   :
          :  -> wf. convergence          0.1000000E-03 e    :
          :  Broyden damping             0.4000000          :
          ...................................................

 iter      E             dE          RMSdq      gap      omega  full diag
   1    -30.4053315 -0.304053E+02  0.450E+00    4.24       0.0  T
   2    -30.4787180 -0.733864E-01  0.256E+00    4.56       1.0  T
   3    -30.4803316 -0.161363E-02  0.116E+00    4.36       1.0  T
   4    -30.4819229 -0.159135E-02  0.471E-01    4.53       1.0  T
   5    -30.4837702 -0.184729E-02  0.967E-02    4.47       1.0  T
   6    -30.4838130 -0.427224E-04  0.553E-02    4.46       1.0  T
   7    -30.4838192 -0.623806E-05  0.180E-02    4.47       1.2  T
   8    -30.4838209 -0.175277E-05  0.720E-03    4.46       3.0  T
   9    -30.4838210 -0.880603E-07  0.377E-03    4.46       5.8  T
  10    -30.4838211 -0.826905E-07  0.912E-04    4.46      23.9  T
  11    -30.4838211 -0.364168E-08  0.318E-04    4.46      68.6  T

   *** convergence criteria satisfied after 11 iterations ***

         #    Occupation            Energy/Eh            Energy/eV
      -------------------------------------------------------------
         1        2.0000           -0.8279672             -22.5301
       ...           ...                  ...                  ...
        21        2.0000           -0.4797935             -13.0558
        22        2.0000           -0.4707952             -12.8110
        23        2.0000           -0.4555985             -12.3975
        24        2.0000           -0.4461065             -12.1392
        25        2.0000           -0.4307659             -11.7217
        26        2.0000           -0.4182048             -11.3799
        27        2.0000           -0.4060820             -11.0501 (HOMO)
        28                         -0.2421206              -6.5884 (LUMO)
        29                         -0.2378570              -6.4724
        30                         -0.1149683              -3.1284
        31                         -0.0555550              -1.5117
        32                          0.0537488               1.4626
       ...                                ...                  ...
        51                          0.6167874              16.7836
      -------------------------------------------------------------
                  HL-Gap            0.1639615 Eh            4.4616 eV
             Fermi-level           -0.3241013 Eh           -8.8192 eV

 SCC (total)                   0 d,  0 h,  0 min,  0.023 sec
 SCC setup                      ...        0 min,  0.000 sec (  1.550%)
 Dispersion                     ...        0 min,  0.001 sec (  2.241%)
 classical contributions        ...        0 min,  0.000 sec (  0.261%)
 integral evaluation            ...        0 min,  0.001 sec (  4.065%)
 iterations                     ...        0 min,  0.018 sec ( 79.356%)
 molecular gradient             ...        0 min,  0.002 sec ( 10.740%)
 printout                       ...        0 min,  0.000 sec (  0.637%)

         :::::::::::::::::::::::::::::::::::::::::::::::::::::
         ::                     SUMMARY                     ::
         :::::::::::::::::::::::::::::::::::::::::::::::::::::
         :: total energy             -30.060831404120 Eh    ::
         :: total w/o Gsasa/hb       -30.050467286669 Eh    ::
         :: gradient norm              0.041476244862 Eh/a0 ::
         :: HOMO-LUMO gap              4.461618218670 eV    ::
         ::.................................................::
         :: SCC energy               -30.483821116867 Eh    ::
         :: -> isotropic ES            0.147257722914 Eh    ::
         :: -> anisotropic ES         -0.020135378449 Eh    ::
         :: -> anisotropic XC          0.015012219105 Eh    ::
         :: -> dispersion             -0.015030585363 Eh    ::
         :: -> Gsolv                  -0.127185149421 Eh    ::
         ::    -> Gelec               -0.116821031970 Eh    ::
         ::    -> Gsasa               -0.000110468461 Eh    ::
         ::    -> Ghb                 -0.011334408688 Eh    ::
         ::    -> Gshift               0.001080759698 Eh    ::
         :: repulsion energy           0.422891488550 Eh    ::
         :: add. restraining           0.000000000000 Eh    ::
         :: total charge               1.000000000000 e     ::
         :::::::::::::::::::::::::::::::::::::::::::::::::::::

      ----------------------------------------------------------- 
     |                   =====================                   |
     |                        A N C O P T                        |
     |                   =====================                   |
     |               Approximate Normal Coordinate               |
     |                Rational Function Optimizer                |
      ----------------------------------------------------------- 

          ...................................................
          :                      SETUP                      :
          :.................................................:
          :   optimization level            normal          :
          :   max. optcycles                   200          :
          :   ANC micro-cycles                  20          :
          :   degrees of freedom                57          :
          :.................................................:
          :   RF solver                   davidson          :
          :   write xtbopt.log                true          :
          :   linear?                        false          :
          :   energy convergence         0.5000000E-05 Eh   :
          :   grad. convergence          0.1000000E-02 Eh/α :
          :   maximium RF displ.         1.0000000          :
          :   Hlow (freq-cutoff)         0.1000000E-01      :
          :   Hmax (freq-cutoff)         5.0000000          :
          :   S6 in model hess.         20.0000000          :
          ...................................................

generating ANC from model Hessian ...
Using Lindh-Hessian (1995)
 Shifting diagonal of input Hessian by    8.4878153926966418E-003
 Lowest  eigenvalues of input Hessian
    0.000000    0.000000    0.000000    0.000000    0.000000    0.000000
    0.010000    0.010116    0.012654    0.015636    0.022611    0.023098
    0.025075    0.028496    0.032049    0.034459    0.051196    0.059999
 Highest eigenvalues
    1.432576    1.549790    1.697238    1.831506    1.965402    2.071835


........................................................................
.............................. CYCLE    1 ..............................
........................................................................
   1    -30.4838211 -0.304838E+02  0.119E-04    4.46       0.0  T
   2    -30.4838211 -0.275335E-10  0.722E-05    4.46     302.3  T
   3    -30.4838211 -0.206768E-11  0.385E-05    4.46     567.1  T
     SCC iter.                  ...        0 min,  0.005 sec
     gradient                   ...        0 min,  0.002 sec
 * total energy  :   -30.0608314 Eh     change       -0.2094467E-09 Eh
   gradient norm :     0.0414815 Eh/α   predicted     0.0000000E+00 (-100.00%)
   displ. norm   :     0.1663096 α      lambda       -0.3408138E-02
   maximum displ.:     0.0829156 α      in ANC's #13, #4, #14, ...

........................................................................
.............................. CYCLE    2 ..............................
........................................................................
   1    -30.5034850 -0.305035E+02  0.156E-01    4.57       0.0  T
   2    -30.5035109 -0.258139E-04  0.925E-02    4.55       1.0  T
   3    -30.5035045  0.640352E-05  0.377E-02    4.56       1.0  T
   4    -30.5035162 -0.117283E-04  0.862E-03    4.55       2.5  T
   5    -30.5035167 -0.470368E-06  0.338E-03    4.55       6.5  T
   6    -30.5035167 -0.386418E-07  0.133E-03    4.56      16.5  T
   7    -30.5035167 -0.831488E-08  0.502E-04    4.56      43.4  T
   8    -30.5035167 -0.595541E-09  0.174E-04    4.56     125.3  T
     SCC iter.                  ...        0 min,  0.011 sec
     gradient                   ...        0 min,  0.002 sec
 * total energy  :   -30.0630202 Eh     change       -0.2188802E-02 Eh
   gradient norm :     0.0181695 Eh/α   predicted    -0.1751307E-02 ( -19.99%)
   displ. norm   :     0.1016745 α      lambda       -0.6073611E-03
   maximum displ.:     0.0626219 α      in ANC's #4, #1, #3, ...

........................................................................
.............................. CYCLE    3 ..............................
........................................................................
   1    -30.5099075 -0.305099E+02  0.754E-02    4.60       0.0  T
   2    -30.5099200 -0.125772E-04  0.445E-02    4.58       1.0  T
   3    -30.5099204 -0.352461E-06  0.230E-02    4.59       1.0  T
   4    -30.5099230 -0.265427E-05  0.576E-03    4.58       3.8  T
   5    -30.5099232 -0.166109E-06  0.221E-03    4.58       9.9  T
   6    -30.5099232 -0.223803E-07  0.786E-04    4.58      27.8  T
   7    -30.5099232 -0.291658E-08  0.248E-04    4.58      88.1  T
     SCC iter.                  ...        0 min,  0.009 sec
     gradient                   ...        0 min,  0.002 sec
 * total energy  :   -30.0633823 Eh     change       -0.3621346E-03 Eh
   gradient norm :     0.0065156 Eh/α   predicted    -0.3068614E-03 ( -15.26%)
   displ. norm   :     0.0679650 α      lambda       -0.9798562E-04
   maximum displ.:     0.0417139 α      in ANC's #1, #4, #3, ...

........................................................................
.............................. CYCLE    4 ..............................
........................................................................
   1    -30.5096228 -0.305096E+02  0.372E-02    4.59       0.0  T
   2    -30.5096249 -0.208364E-05  0.213E-02    4.58       1.0  T
   3    -30.5096247  0.154697E-06  0.104E-02    4.58       2.1  T
   4    -30.5096254 -0.714862E-06  0.229E-03    4.58       9.5  T
   5    -30.5096254 -0.233729E-07  0.921E-04    4.58      23.7  T
   6    -30.5096254 -0.507682E-08  0.325E-04    4.58      67.0  T
     SCC iter.                  ...        0 min,  0.008 sec
     gradient                   ...        0 min,  0.002 sec
 * total energy  :   -30.0634508 Eh     change       -0.6848049E-04 Eh
   gradient norm :     0.0023019 Eh/α   predicted    -0.4922040E-04 ( -28.12%)
   displ. norm   :     0.0794603 α      lambda       -0.4953899E-04
   maximum displ.:     0.0545153 α      in ANC's #1, #3, #2, ...

........................................................................
.............................. CYCLE    5 ..............................
........................................................................
   1    -30.5085355 -0.305085E+02  0.367E-02    4.58       0.0  T
   2    -30.5085363 -0.763693E-06  0.211E-02    4.57       1.0  T
   3    -30.5085359  0.377370E-06  0.752E-03    4.58       2.9  T
   4    -30.5085365 -0.596022E-06  0.145E-03    4.57      15.0  T
   5    -30.5085365 -0.857828E-08  0.604E-04    4.57      36.1  T
   6    -30.5085365 -0.255960E-08  0.229E-04    4.57      95.5  T
     SCC iter.                  ...        0 min,  0.008 sec
     gradient                   ...        0 min,  0.002 sec
 * total energy  :   -30.0634855 Eh     change       -0.3467301E-04 Eh
   gradient norm :     0.0017084 Eh/α   predicted    -0.2494134E-04 ( -28.07%)
   displ. norm   :     0.1192229 α      lambda       -0.2859637E-04
   maximum displ.:     0.0816961 α      in ANC's #1, #2, #3, ...

........................................................................
.............................. CYCLE    6 ..............................
........................................................................
   1    -30.5075375 -0.305075E+02  0.492E-02    4.57       0.0  T
   2    -30.5075379 -0.385815E-06  0.285E-02    4.57       1.0  T
   3    -30.5075377  0.170417E-06  0.457E-03    4.57       4.8  T
   4    -30.5075380 -0.292787E-06  0.114E-03    4.57      19.1  T
   5    -30.5075380 -0.352271E-08  0.494E-04    4.57      44.2  T
   6    -30.5075380 -0.122269E-08  0.206E-04    4.57     106.1  T
     SCC iter.                  ...        0 min,  0.008 sec
     gradient                   ...        0 min,  0.002 sec
 * total energy  :   -30.0635195 Eh     change       -0.3397319E-04 Eh
   gradient norm :     0.0031993 Eh/α   predicted    -0.1439127E-04 ( -57.64%)
   displ. norm   :     0.1023896 α      lambda       -0.3808190E-04
   maximum displ.:     0.0675100 α      in ANC's #1, #2, #3, ...

........................................................................
.............................. CYCLE    7 ..............................
........................................................................
   1    -30.5073667 -0.305074E+02  0.397E-02    4.57       0.0  T
   2    -30.5073669 -0.159126E-06  0.230E-02    4.57       1.0  T
   3    -30.5073669  0.546780E-08  0.206E-03    4.57      10.6  T
   4    -30.5073670 -0.641611E-07  0.698E-04    4.57      31.3  T
   5    -30.5073670 -0.731063E-09  0.283E-04    4.57      77.1  T
     SCC iter.                  ...        0 min,  0.007 sec
     gradient                   ...        0 min,  0.002 sec
 * total energy  :   -30.0635544 Eh     change       -0.3495290E-04 Eh
   gradient norm :     0.0031996 Eh/α   predicted    -0.1924100E-04 ( -44.95%)
   displ. norm   :     0.1730736 α      lambda       -0.6435982E-04
   maximum displ.:     0.1148434 α      in ANC's #1, #2, #3, ...

........................................................................
.............................. CYCLE    8 ..............................
........................................................................
   1    -30.5074688 -0.305075E+02  0.662E-02    4.57       0.0  T
   2    -30.5074694 -0.504910E-06  0.383E-02    4.57       1.0  T
   3    -30.5074692  0.155254E-06  0.475E-03    4.57       4.6  T
   4    -30.5074695 -0.341660E-06  0.124E-03    4.57      17.7  T
   5    -30.5074695 -0.173958E-08  0.558E-04    4.57      39.1  T
   6    -30.5074695 -0.127282E-08  0.200E-04    4.57     109.4  T
     SCC iter.                  ...        0 min,  0.007 sec
     gradient                   ...        0 min,  0.002 sec
 * total energy  :   -30.0636062 Eh     change       -0.5178322E-04 Eh
   gradient norm :     0.0026219 Eh/α   predicted    -0.3314435E-04 ( -35.99%)
   displ. norm   :     0.1838124 α      lambda       -0.5503239E-04
   maximum displ.:     0.1253625 α      in ANC's #1, #2, #3, ...

........................................................................
.............................. CYCLE    9 ..............................
........................................................................
   1    -30.5078769 -0.305079E+02  0.706E-02    4.57       0.0  T
   2    -30.5078774 -0.479146E-06  0.410E-02    4.57       1.0  T
   3    -30.5078772  0.156464E-06  0.475E-03    4.57       4.6  T
   4    -30.5078776 -0.346939E-06  0.126E-03    4.57      17.3  T
   5    -30.5078776 -0.938090E-09  0.534E-04    4.57      40.8  T
   6    -30.5078776 -0.194053E-08  0.193E-04    4.57     113.1  T
     SCC iter.                  ...        0 min,  0.007 sec
     gradient                   ...        0 min,  0.002 sec
 * total energy  :   -30.0636535 Eh     change       -0.4725720E-04 Eh
   gradient norm :     0.0021160 Eh/α   predicted    -0.2844703E-04 ( -39.80%)
   displ. norm   :     0.2681015 α      lambda       -0.7273087E-04
   maximum displ.:     0.1850326 α      in ANC's #1, #2, #3, ...

........................................................................
.............................. CYCLE   10 ..............................
........................................................................
   1    -30.5081489 -0.305081E+02  0.103E-01    4.58       0.0  T
   2    -30.5081498 -0.837369E-06  0.600E-02    4.58       1.0  T
   3    -30.5081497  0.974668E-07  0.533E-03    4.58       4.1  T
   4    -30.5081501 -0.447794E-06  0.172E-03    4.58      12.7  T
   5    -30.5081501 -0.203658E-08  0.558E-04    4.58      39.1  T
   6    -30.5081501 -0.200602E-08  0.243E-04    4.58      89.9  T
     SCC iter.                  ...        0 min,  0.007 sec
     gradient                   ...        0 min,  0.001 sec
 * total energy  :   -30.0637185 Eh     change       -0.6502277E-04 Eh
   gradient norm :     0.0023574 Eh/α   predicted    -0.3897966E-04 ( -40.05%)
   displ. norm   :     0.4346077 α      lambda       -0.1139625E-03
   maximum displ.:     0.3040254 α      in ANC's #1, #2, #3, ...

........................................................................
.............................. CYCLE   11 ..............................
........................................................................
   1    -30.5073361 -0.305073E+02  0.167E-01    4.58       0.0  T
   2    -30.5073381 -0.194501E-05  0.968E-02    4.58       1.0  T
   3    -30.5073382 -0.809843E-07  0.707E-03    4.58       3.1  T
   4    -30.5073389 -0.768863E-06  0.270E-03    4.58       8.1  T
   5    -30.5073390 -0.793992E-08  0.532E-04    4.58      41.0  T
   6    -30.5073390 -0.106668E-08  0.304E-04    4.58      71.8  T
     SCC iter.                  ...        0 min,  0.007 sec
     gradient                   ...        0 min,  0.002 sec
 * total energy  :   -30.0637799 Eh     change       -0.6137124E-04 Eh
   gradient norm :     0.0046491 Eh/α   predicted    -0.6774478E-04 (  10.39%)
   displ. norm   :     0.0784589 α      lambda       -0.6542590E-04
   maximum displ.:     0.0497626 α      in ANC's #2, #1, #3, ...

........................................................................
.............................. CYCLE   12 ..............................
........................................................................
   1    -30.5094942 -0.305095E+02  0.330E-02    4.58       0.0  T
   2    -30.5094945 -0.367217E-06  0.192E-02    4.58       1.1  T
   3    -30.5094946 -0.159713E-07  0.223E-03    4.58       9.8  T
   4    -30.5094946 -0.304002E-07  0.779E-04    4.58      28.0  T
   5    -30.5094946 -0.215669E-08  0.461E-04    4.58      47.3  T
     SCC iter.                  ...        0 min,  0.006 sec
     gradient                   ...        0 min,  0.001 sec
 * total energy  :   -30.0638152 Eh     change       -0.3531901E-04 Eh
   gradient norm :     0.0030878 Eh/α   predicted    -0.3291823E-04 (  -6.80%)
   displ. norm   :     0.1362825 α      lambda       -0.2583871E-04
   maximum displ.:     0.0976323 α      in ANC's #2, #1, #3, ...

........................................................................
.............................. CYCLE   13 ..............................
........................................................................
   1    -30.5094254 -0.305094E+02  0.545E-02    4.58       0.0  T
   2    -30.5094257 -0.273466E-06  0.317E-02    4.58       1.0  T
   3    -30.5094256  0.765774E-07  0.363E-03    4.58       6.0  T
   4    -30.5094258 -0.183028E-06  0.103E-03    4.58      21.2  T
   5    -30.5094258 -0.185982E-08  0.426E-04    4.58      51.3  T
   6    -30.5094258 -0.686637E-09  0.159E-04    4.58     137.5  T
     SCC iter.                  ...        0 min,  0.007 sec
     gradient                   ...        0 min,  0.001 sec
 * total energy  :   -30.0638353 Eh     change       -0.2014582E-04 Eh
   gradient norm :     0.0020844 Eh/α   predicted    -0.1318206E-04 ( -34.57%)
   displ. norm   :     0.1068220 α      lambda       -0.2371689E-04
   maximum displ.:     0.0835126 α      in ANC's #2, #1, #4, ...

........................................................................
.............................. CYCLE   14 ..............................
........................................................................
   1    -30.5093092 -0.305093E+02  0.436E-02    4.58       0.0  T
   2    -30.5093095 -0.263025E-06  0.254E-02    4.58       1.0  T
   3    -30.5093094  0.136218E-06  0.407E-03    4.58       5.4  T
   4    -30.5093096 -0.221377E-06  0.994E-04    4.58      22.0  T
   5    -30.5093096 -0.302463E-08  0.401E-04    4.58      54.4  T
     SCC iter.                  ...        0 min,  0.005 sec
     gradient                   ...        0 min,  0.001 sec
 * total energy  :   -30.0638521 Eh     change       -0.1674241E-04 Eh
   gradient norm :     0.0009875 Eh/α   predicted    -0.1199947E-04 ( -28.33%)
   displ. norm   :     0.0733920 α      lambda       -0.9811992E-05
   maximum displ.:     0.0595346 α      in ANC's #2, #3, #1, ...

........................................................................
.............................. CYCLE   15 ..............................
........................................................................
   1    -30.5090107 -0.305090E+02  0.287E-02    4.58       0.0  T
   2    -30.5090107 -0.846567E-07  0.168E-02    4.58       1.3  T
   3    -30.5090107  0.345668E-07  0.205E-03    4.58      10.7  T
   4    -30.5090108 -0.617045E-07  0.532E-04    4.58      41.0  T
   5    -30.5090108 -0.685748E-09  0.228E-04    4.58      95.9  T
     SCC iter.                  ...        0 min,  0.005 sec
     gradient                   ...        0 min,  0.001 sec
 * total energy  :   -30.0638628 Eh     change       -0.1077892E-04 Eh
   gradient norm :     0.0014287 Eh/α   predicted    -0.4921911E-05 ( -54.34%)
   displ. norm   :     0.0523868 α      lambda       -0.7739092E-05
   maximum displ.:     0.0370830 α      in ANC's #3, #2, #1, ...

........................................................................
.............................. CYCLE   16 ..............................
........................................................................
   1    -30.5088390 -0.305088E+02  0.159E-02    4.58       0.0  T
   2    -30.5088390 -0.357059E-07  0.929E-03    4.58       2.3  T
   3    -30.5088390  0.153228E-07  0.122E-03    4.58      17.9  T
   4    -30.5088390 -0.272225E-07  0.314E-04    4.58      69.5  T
   5    -30.5088390 -0.234124E-09  0.156E-04    4.58     140.3  T
     SCC iter.                  ...        0 min,  0.005 sec
     gradient                   ...        0 min,  0.001 sec
 * total energy  :   -30.0638727 Eh     change       -0.9862386E-05 Eh
   gradient norm :     0.0012827 Eh/α   predicted    -0.3875855E-05 ( -60.70%)
   displ. norm   :     0.0987238 α      lambda       -0.1265668E-04
   maximum displ.:     0.0704560 α      in ANC's #3, #2, #1, ...

........................................................................
.............................. CYCLE   17 ..............................
........................................................................
   1    -30.5087520 -0.305088E+02  0.280E-02    4.58       0.0  T
   2    -30.5087521 -0.112940E-06  0.162E-02    4.58       1.3  T
   3    -30.5087521  0.343764E-07  0.223E-03    4.58       9.8  T
   4    -30.5087521 -0.771708E-07  0.649E-04    4.58      33.6  T
   5    -30.5087521 -0.634270E-09  0.285E-04    4.58      76.5  T
     SCC iter.                  ...        0 min,  0.005 sec
     gradient                   ...        0 min,  0.001 sec
 * total energy  :   -30.0638862 Eh     change       -0.1354251E-04 Eh
   gradient norm :     0.0010008 Eh/α   predicted    -0.6358910E-05 ( -53.04%)
   displ. norm   :     0.0770792 α      lambda       -0.7185045E-05
   maximum displ.:     0.0507553 α      in ANC's #3, #2, #1, ...

........................................................................
.............................. CYCLE   18 ..............................
........................................................................
   1    -30.5087528 -0.305088E+02  0.236E-02    4.58       0.0  T
   2    -30.5087528 -0.767217E-07  0.137E-02    4.58       1.6  T
   3    -30.5087528  0.273795E-07  0.176E-03    4.58      12.4  T
   4    -30.5087529 -0.532965E-07  0.463E-04    4.58      47.1  T
   5    -30.5087529 -0.322714E-09  0.166E-04    4.58     131.6  T
     SCC iter.                  ...        0 min,  0.005 sec
     gradient                   ...        0 min,  0.002 sec
 * total energy  :   -30.0638923 Eh     change       -0.6016180E-05 Eh
   gradient norm :     0.0009469 Eh/α   predicted    -0.3606231E-05 ( -40.06%)
   displ. norm   :     0.0346815 α      lambda       -0.3619546E-05
   maximum displ.:     0.0309681 α      in ANC's #2, #3, #7, ...

........................................................................
.............................. CYCLE   19 ..............................
........................................................................
   1    -30.5088785 -0.305089E+02  0.133E-02    4.58       0.0  T
   2    -30.5088785 -0.120216E-07  0.783E-03    4.58       2.8  T
   3    -30.5088785  0.135920E-08  0.619E-04    4.58      35.3  T
   4    -30.5088786 -0.550775E-08  0.203E-04    4.58     107.6  T
     SCC iter.                  ...        0 min,  0.004 sec
     gradient                   ...        0 min,  0.001 sec
 * total energy  :   -30.0638960 Eh     change       -0.3704823E-05 Eh
   gradient norm :     0.0006142 Eh/α   predicted    -0.1812540E-05 ( -51.08%)
   displ. norm   :     0.0335869 α      lambda        0.7593225E-06
   maximum displ.:     0.0299300 α      in ANC's #2, #3, #7, ...

   *** GEOMETRY OPTIMIZATION CONVERGED AFTER 19 ITERATIONS ***

------------------------------------------------------------------------
 total energy gain   :        -0.0030646 Eh       -1.9230 kcal/mol
 total RMSD          :         0.3977487 a0        0.2105 Å
 total power (kW/mol):        -0.4234742 (step)  -40.4424 (real)
------------------------------------------------------------------------

 ANCopt (total)                0 d,  0 h,  0 min,  0.199 sec
 optimizer setup                ...        0 min,  0.000 sec (  0.061%)
 model hessian                  ...        0 min,  0.009 sec (  4.470%)
 ANC generation                 ...        0 min,  0.001 sec (  0.582%)
 coordinate transformation      ...        0 min,  0.000 sec (  0.223%)
 single point calculation       ...        0 min,  0.182 sec ( 91.625%)
 optimization log               ...        0 min,  0.002 sec (  0.949%)
 hessian update                 ...        0 min,  0.000 sec (  0.230%)
 rational function              ...        0 min,  0.002 sec (  0.823%)

================
 final structure:
================
21
 xtb: 6.5.1 (fef0646)
N            2.70900532831270        3.73154597704695       -1.11091791715523
C            2.40331618634572        2.80034901721392        0.00254434372723
C            2.95391455974433        1.40863589520015       -0.30352777214543
C            4.46035349270167        1.38533350677284       -0.32849242032433
C            5.17812680775179        1.50513835532206        0.85784375542311
C            6.56067082435936        1.48005545024874        0.85709389852052
C            7.21541504185074        1.33092018652207       -0.35124839197664
F            8.58243053739215        1.29380085871535       -0.36070366031489
C            6.53721920839204        1.21307247215616       -1.54770701925916
C            5.15262729535186        1.24548174117847       -1.52567782196369
H            2.36753415192893        4.67609217777685       -0.90042999693404
H            2.26629496986571        3.40669967853063       -1.97895942297660
H            3.72393492376555        3.77132481637623       -1.26306638181315
H            1.32371284958298        2.74474453525020        0.13526746115811
H            2.85216233355953        3.18243410960966        0.91886889707899
H            2.56561289673198        1.05245289827645       -1.25696895201525
H            2.60553913533268        0.72565460078011        0.47081599852099
H            4.65785588811165        1.60253360354959        1.79790792332597
H            7.13136502887137        1.56194954333368        1.76807914195454
H            7.08824756260565        1.09227852300096       -2.46636240640908
H            4.61831097744146        1.13501205313889       -2.45664925642199

 Bond Distances (Angstroems)
 ---------------------------
N1-C2=1.4834         N1-H11=1.0262        N1-H12=1.0271        N1-H13=1.0270        C2-N1=1.4834         C2-C3=1.5276         
C2-H14=1.0892        C2-H15=1.0895        C3-C2=1.5276         C3-C4=1.5068         C3-H16=1.0894        C3-H17=1.0897        
C4-C3=1.5068         C4-C5=1.3917         C4-C10=1.3900        C5-C4=1.3917         C5-C6=1.3828         C5-H18=1.0788        
C6-C5=1.3828         C6-C7=1.3824         C6-H19=1.0781        C7-C6=1.3824         C7-F8=1.3676         C7-C9=1.3803         
F8-C7=1.3676         C9-C7=1.3803         C9-C10=1.3851        C9-H20=1.0780        C10-C4=1.3900        C10-C9=1.3851        
C10-H21=1.0791       H11-N1=1.0262        H12-N1=1.0271        H13-N1=1.0270        H14-C2=1.0892        H15-C2=1.0895        
H16-C3=1.0894        H17-C3=1.0897        H18-C5=1.0788        H19-C6=1.0781        H20-C9=1.0780        H21-C10=1.0791       
 C  H  Rav=1.0840 sigma=0.0055  Rmin=1.0780  Rmax=1.0897     8
 C  C  Rav=1.4184 sigma=0.0574  Rmin=1.3803  Rmax=1.5276     8
 N  H  Rav=1.0268 sigma=0.0004  Rmin=1.0262  Rmax=1.0271     3
 N  C  Rav=1.4834 sigma=0.0000  Rmin=1.4834  Rmax=1.4834     1
 F  C  Rav=1.3676 sigma=0.0000  Rmin=1.3676  Rmax=1.3676     1

 selected bond angles (degree)
 --------------------
H11-N1-C2=110.81               H12-N1-C2=110.30               H12-N1-H11=108.72              H13-N1-C2=109.83               
H13-N1-H11=108.88              H13-N1-H12=108.24              C3-C2-N1=110.32                H14-C2-N1=109.13               
H14-C2-C3=109.58               H15-C2-N1=109.04               H15-C2-C3=109.85               H15-C2-H14=108.89              
C4-C3-C2=112.19                H16-C3-C2=110.17               H16-C3-C4=109.68               H17-C3-C2=108.26               
H17-C3-C4=108.77               H17-C3-H16=107.64              C5-C4-C3=120.01                C10-C4-C3=120.91               
C10-C4-C5=119.08               C6-C5-C4=120.91                H18-C5-C4=120.12               H18-C5-C6=118.97               
C7-C6-C5=118.42                H19-C6-C5=121.83               H19-C6-C7=119.74               F8-C7-C6=118.84                
C9-C7-C6=122.29                C9-C7-F8=118.87                C10-C9-C7=118.38               H20-C9-C7=119.81               
H20-C9-C10=121.81              C9-C10-C4=120.92               H21-C10-C4=120.45              H21-C10-C9=118.61              

 selected dihedral angles (degree)
 ---------------------------------
C3-C2-N1-H11=181.73           C3-C2-N1-H12= 61.28           C3-C2-N1-H13=302.06           H14-C2-N1-H11= 61.28          
H14-C2-N1-H12=300.83          H14-C2-N1-H13=181.62          H15-C2-N1-H11=302.45          H15-C2-N1-H12=182.00          
H15-C2-N1-H13= 62.78          C4-C3-C2-N1= 66.95            C4-C3-C2-H14=187.13           C4-C3-C2-H15=306.72           
H16-C3-C2-N1=304.45           H16-C3-C2-H14= 64.63          H16-C3-C2-H15=184.22          H17-C3-C2-N1=186.99           
H17-C3-C2-H14=307.17          H17-C3-C2-H15= 66.75          C5-C4-C3-C2= 71.66            C5-C4-C3-H16=194.44           
C5-C4-C3-H17=311.92           C10-C4-C3-C2=251.68           C10-C4-C3-H16= 14.46          C10-C4-C3-H17=131.94          
C6-C5-C4-C3=179.71            C6-C5-C4-C10=359.69           H18-C5-C4-C3=  0.76           H18-C5-C4-C10=180.74          
C7-C6-C5-C4=359.90            C7-C6-C5-H18=178.86           H19-C6-C5-C4=180.61           H19-C6-C5-H18=359.57          
F8-C7-C6-C5=180.54            F8-C7-C6-H19=359.85           C9-C7-C6-C5=  0.28            C9-C7-C6-H19=179.60           
C10-C9-C7-C6=359.95           C10-C9-C7-F8=179.69           H20-C9-C7-C6=180.38           H20-C9-C7-F8=  0.12           
C9-C10-C4-C3=180.53           C9-C10-C4-C5=  0.55           H21-C10-C4-C3=359.00          H21-C10-C4-C5=179.02          
C4-C10-C9-C7=359.63           C4-C10-C9-H20=179.19          H21-C10-C9-C7=181.14          H21-C10-C9-H20=  0.69         
           -------------------------------------------------
          |                Final Singlepoint                |
           -------------------------------------------------

          ...................................................
          :                      SETUP                      :
          :.................................................:
          :  # basis functions                  51          :
          :  # atomic orbitals                  51          :
          :  # shells                           31          :
          :  # electrons                        54          :
          :  max. iterations                   250          :
          :  Hamiltonian                  GFN2-xTB          :
          :  restarted?                      false          :
          :  GBSA solvation                   true          :
          :  PC potential                    false          :
          :  electronic temp.          300.0000000     K    :
          :  accuracy                    1.0000000          :
          :  -> integral cutoff          0.2500000E+02      :
          :  -> integral neglect         0.1000000E-07      :
          :  -> SCF convergence          0.1000000E-05 Eh   :
          :  -> wf. convergence          0.1000000E-03 e    :
          :  Broyden damping             0.4000000          :
          ...................................................

 iter      E             dE          RMSdq      gap      omega  full diag
   1    -30.5088786 -0.305089E+02  0.983E-05    4.58       0.0  T
   2    -30.5088786 -0.118128E-10  0.599E-05    4.58     364.3  T
   3    -30.5088786 -0.824230E-12  0.370E-05    4.58     589.1  T

   *** convergence criteria satisfied after 3 iterations ***

         #    Occupation            Energy/Eh            Energy/eV
      -------------------------------------------------------------
         1        2.0000           -0.8210132             -22.3409
       ...           ...                  ...                  ...
        21        2.0000           -0.4801505             -13.0656
        22        2.0000           -0.4719149             -12.8415
        23        2.0000           -0.4591972             -12.4954
        24        2.0000           -0.4459817             -12.1358
        25        2.0000           -0.4321282             -11.7588
        26        2.0000           -0.4214937             -11.4694
        27        2.0000           -0.4091622             -11.1339 (HOMO)
        28                         -0.2407173              -6.5503 (LUMO)
        29                         -0.2373182              -6.4578
        30                         -0.1103444              -3.0026
        31                         -0.0468687              -1.2754
        32                          0.0325689               0.8862
       ...                                ...                  ...
        51                          0.6448944              17.5485
      -------------------------------------------------------------
                  HL-Gap            0.1684449 Eh            4.5836 eV
             Fermi-level           -0.3249398 Eh           -8.8421 eV

 SCC (total)                   0 d,  0 h,  0 min,  0.005 sec
 SCC setup                      ...        0 min,  0.000 sec (  2.806%)
 Dispersion                     ...        0 min,  0.000 sec (  2.308%)
 classical contributions        ...        0 min,  0.000 sec (  0.500%)
 integral evaluation            ...        0 min,  0.000 sec (  8.395%)
 iterations                     ...        0 min,  0.003 sec ( 58.348%)
 molecular gradient             ...        0 min,  0.001 sec ( 24.173%)
 printout                       ...        0 min,  0.000 sec (  1.512%)

         :::::::::::::::::::::::::::::::::::::::::::::::::::::
         ::                     SUMMARY                     ::
         :::::::::::::::::::::::::::::::::::::::::::::::::::::
         :: total energy             -30.063895967527 Eh    ::
         :: total w/o Gsasa/hb       -30.053282944174 Eh    ::
         :: gradient norm              0.000613640861 Eh/a0 ::
         :: HOMO-LUMO gap              4.583619374010 eV    ::
         ::.................................................::
         :: SCC energy               -30.508878551736 Eh    ::
         :: -> isotropic ES            0.151182896098 Eh    ::
         :: -> anisotropic ES         -0.021771659038 Eh    ::
         :: -> anisotropic XC          0.014998724600 Eh    ::
         :: -> dispersion             -0.015063782623 Eh    ::
         :: -> Gsolv                  -0.129599130715 Eh    ::
         ::    -> Gelec               -0.118986107362 Eh    ::
         ::    -> Gsasa               -0.000102988289 Eh    ::
         ::    -> Ghb                 -0.011590794762 Eh    ::
         ::    -> Gshift               0.001080759698 Eh    ::
         :: repulsion energy           0.444891671710 Eh    ::
         :: add. restraining           0.000000000000 Eh    ::
         :: total charge               1.000000000000 e     ::
         :::::::::::::::::::::::::::::::::::::::::::::::::::::

           -------------------------------------------------
          |                Property Printout                |
           -------------------------------------------------

    * Orbital Energies and Occupations

         #    Occupation            Energy/Eh            Energy/eV
      -------------------------------------------------------------
         1        2.0000           -0.8210132             -22.3409
       ...           ...                  ...                  ...
        15        2.0000           -0.5350434             -14.5593
        16        2.0000           -0.5202663             -14.1572
        17        2.0000           -0.5007432             -13.6259
        18        2.0000           -0.4996804             -13.5970
        19        2.0000           -0.4929420             -13.4136
        20        2.0000           -0.4897789             -13.3276
        21        2.0000           -0.4801505             -13.0656
        22        2.0000           -0.4719149             -12.8415
        23        2.0000           -0.4591972             -12.4954
        24        2.0000           -0.4459817             -12.1358
        25        2.0000           -0.4321282             -11.7588
        26        2.0000           -0.4214937             -11.4694
        27        2.0000           -0.4091622             -11.1339 (HOMO)
        28                         -0.2407173              -6.5503 (LUMO)
        29                         -0.2373182              -6.4578
        30                         -0.1103444              -3.0026
        31                         -0.0468687              -1.2754
        32                          0.0325689               0.8862
        33                          0.0591540               1.6097
        34                          0.0743643               2.0236
        35                          0.0990737               2.6959
        36                          0.1135029               3.0886
        37                          0.1347347               3.6663
        38                          0.1413728               3.8469
       ...                                ...                  ...
        51                          0.6448944              17.5485
      -------------------------------------------------------------
                  HL-Gap            0.1684449 Eh            4.5836 eV
             Fermi-level           -0.3249398 Eh           -8.8421 eV

     #   Z          covCN         q      C6AA      α(0)
     1   7 N        3.485    -0.156    24.361     7.331
     2   6 C        3.732    -0.039    21.359     6.597
     3   6 C        3.809    -0.098    22.364     6.732
     4   6 C        2.968     0.013    27.712     8.635
     5   6 C        2.930    -0.043    29.074     8.843
     6   6 C        2.914    -0.052    29.296     8.876
     7   6 C        2.789     0.165    24.425     8.095
     8   9 F        0.786    -0.294    12.256     4.135
     9   6 C        2.914    -0.054    29.338     8.882
    10   6 C        2.929    -0.049    29.208     8.863
    11   1 H        0.859     0.318     0.663     1.275
    12   1 H        0.859     0.311     0.681     1.292
    13   1 H        0.859     0.295     0.727     1.336
    14   1 H        0.925     0.121     1.602     1.979
    15   1 H        0.925     0.113     1.675     2.024
    16   1 H        0.925     0.089     1.887     2.148
    17   1 H        0.925     0.092     1.860     2.133
    18   1 H        0.926     0.073     2.047     2.238
    19   1 H        0.926     0.055     2.255     2.348
    20   1 H        0.926     0.058     2.217     2.328
    21   1 H        0.926     0.079     1.985     2.203

 Mol. C6AA /au·bohr⁶  :       3976.522878
 Mol. C8AA /au·bohr⁸  :      93459.002326
 Mol. α(0) /au        :         98.292541


Wiberg/Mayer (AO) data.
largest (>0.10) Wiberg bond orders for each atom

 ---------------------------------------------------------------------------
     #   Z sym  total        # sym  WBO       # sym  WBO       # sym  WBO
 ---------------------------------------------------------------------------
     1   7 N    3.656 --     2 C    0.966    13 H    0.895    12 H    0.888
                            11 H    0.886
     2   6 C    3.925 --     3 C    1.000     1 N    0.966    15 H    0.964
                            14 H    0.963
     3   6 C    3.986 --     4 C    1.011     2 C    1.000    16 H    0.967
                            17 H    0.955
     4   6 C    3.987 --    10 C    1.416     5 C    1.405     3 C    1.011
     5   6 C    3.985 --     6 C    1.447     4 C    1.405    18 H    0.965
                             9 C    0.112
     6   6 C    3.988 --     5 C    1.447     7 C    1.398    19 H    0.967
                            10 C    0.110
     7   6 C    3.852 --     9 C    1.408     6 C    1.398     8 F    0.905
     8   9 F    1.020 --     7 C    0.905
     9   6 C    3.986 --    10 C    1.433     7 C    1.408    20 H    0.967
                             5 C    0.112
    10   6 C    3.984 --     9 C    1.433     4 C    1.416    21 H    0.963
                             6 C    0.110
    11   1 H    0.899 --     1 N    0.886
    12   1 H    0.903 --     1 N    0.888
    13   1 H    0.913 --     1 N    0.895
    14   1 H    0.985 --     2 C    0.963
    15   1 H    0.987 --     2 C    0.964
    16   1 H    0.992 --     3 C    0.967
    17   1 H    0.991 --     3 C    0.955
    18   1 H    0.995 --     5 C    0.965
    19   1 H    0.997 --     6 C    0.967
    20   1 H    0.996 --     9 C    0.967
    21   1 H    0.994 --    10 C    0.963
 ---------------------------------------------------------------------------

Topologies differ in total number of bonds
Writing topology from bond orders to xtbtopo.mol

molecular dipole:
                 x           y           z       tot (Debye)
 q only:        3.361       6.863      -1.911
   full:        3.736       6.853      -1.959      20.454
molecular quadrupole (traceless):
                xx          xy          yy          xz          yz          zz
 q only:      -41.985      45.829      51.331     -13.178     -20.124      -9.346
  q+dip:      -34.885      46.959      44.947     -13.179     -19.665     -10.062
   full:      -35.664      46.927      47.561     -13.392     -20.438     -11.898

           -------------------------------------------------
          |                Geometry Summary                 |
           -------------------------------------------------

      molecular mass/u    :      140.1783418
   center of mass at/Å    :        5.1969414       1.7874143      -0.3979310
  moments of inertia/u·Å² :        0.1610073E+03   0.7253729E+03   0.7717860E+03
rotational constants/cm⁻¹ :        0.1047011E+00   0.2323995E-01   0.2184237E-01

 * 19 selected distances

     #   Z          #   Z                                           value/Å
     1   7 N        2   6 C                                       1.4833652
     2   6 C        3   6 C                                       1.5276467 (max)
     4   6 C        5   6 C                                       1.3917419
     5   6 C        6   6 C                                       1.3827719
     6   6 C        7   6 C                                       1.3823975
     7   6 C        9   6 C                                       1.3803446
     4   6 C       10   6 C                                       1.3899837
     9   6 C       10   6 C                                       1.3851465
     1   7 N       11   1 H                                       1.0261946 (min)
     1   7 N       12   1 H                                       1.0271387
     1   7 N       13   1 H                                       1.0270413
     2   6 C       14   1 H                                       1.0891514
     2   6 C       15   1 H                                       1.0895425
     3   6 C       16   1 H                                       1.0893552
     3   6 C       17   1 H                                       1.0896960
     5   6 C       18   1 H                                       1.0788367
     6   6 C       19   1 H                                       1.0780969
     9   6 C       20   1 H                                       1.0780312
    10   6 C       21   1 H                                       1.0790762

 * 4 distinct bonds (by element types)

   Z      Z             #   av. dist./Å        max./Å        min./Å
   1 H    6 C           8     1.0839733     1.0896960     1.0780312
   6 C    6 C           7     1.4057190     1.5276467     1.3803446
   1 H    7 N           3     1.0267915     1.0271387     1.0261946
   6 C    7 N           1     1.4833652     1.4833652     1.4833652


optimized geometry written to: xtbopt.xyz


           -------------------------------------------------
          | TOTAL ENERGY              -30.063895967527 Eh   |
          | GRADIENT NORM               0.000613640861 Eh/α |
          | HOMO-LUMO GAP               4.583619374010 eV   |
           -------------------------------------------------

------------------------------------------------------------------------
 * finished run on 2023/01/24 at 15:47:28.723     
------------------------------------------------------------------------
 total:
 * wall-time:     0 d,  0 h,  0 min,  0.243 sec
 *  cpu-time:     0 d,  0 h,  0 min, 25.681 sec
 * ratio c/w:   105.612 speedup
 SCF:
 * wall-time:     0 d,  0 h,  0 min,  0.023 sec
 *  cpu-time:     0 d,  0 h,  0 min,  3.275 sec
 * ratio c/w:   140.693 speedup
 ANC optimizer:
 * wall-time:     0 d,  0 h,  0 min,  0.205 sec
 *  cpu-time:     0 d,  0 h,  0 min, 20.557 sec
 * ratio c/w:   100.285 speedup

