      -----------------------------------------------------------      
     |                   =====================                   |     
     |                           x T B                           |     
     |                   =====================                   |     
     |                         S. Grimme                         |     
     |          Mulliken Center for Theoretical Chemistry        |     
     |                    University of Bonn                     |     
      -----------------------------------------------------------      

   * xtb version 6.5.1 (fef0646) compiled by 'conda@b96dff2e9fd6' on 2023-01-04

   xtb is free software: you can redistribute it and/or modify it under
   the terms of the GNU Lesser General Public License as published by
   the Free Software Foundation, either version 3 of the License, or
   (at your option) any later version.
   
   xtb is distributed in the hope that it will be useful,
   but WITHOUT ANY WARRANTY; without even the implied warranty of
   MERCHANTABILITY or FITNESS FOR A PARTICULAR PURPOSE.  See the
   GNU Lesser General Public License for more details.
   
   Cite this work as:
   * C. Bannwarth, E. Caldeweyher, S. Ehlert, A. Hansen, P. Pracht,
     J. Seibert, S. Spicher, S. Grimme, WIREs Comput. Mol. Sci., 2020, 11,
     e01493. DOI: 10.1002/wcms.1493
   
   for GFN2-xTB:
   * C. Bannwarth, S. Ehlert and S. Grimme., J. Chem. Theory Comput., 2019,
     15, 1652-1671. DOI: 10.1021/acs.jctc.8b01176
   for GFN1-xTB:
   * S. Grimme, C. Bannwarth, P. Shushkov, J. Chem. Theory Comput., 2017,
     13, 1989-2009. DOI: 10.1021/acs.jctc.7b00118
   for GFN0-xTB:
   * P. Pracht, E. Caldeweyher, S. Ehlert, S. Grimme, ChemRxiv, 2019, preprint.
     DOI: 10.26434/chemrxiv.8326202.v1
   for GFN-FF:
   * S. Spicher and S. Grimme, Angew. Chem. Int. Ed., 2020, 59, 15665-15673.
     DOI: 10.1002/anie.202004239
   
   for ALPB and GBSA implicit solvation:
   * S. Ehlert, M. Stahn, S. Spicher, S. Grimme, J. Chem. Theory Comput.,
     2021, 17, 4250-4261. DOI: 10.1021/acs.jctc.1c00471
   
   for DFT-D4:
   * E. Caldeweyher, C. Bannwarth and S. Grimme, J. Chem. Phys., 2017,
     147, 034112. DOI: 10.1063/1.4993215
   * E. Caldeweyher, S. Ehlert, A. Hansen, H. Neugebauer, S. Spicher,
     C. Bannwarth and S. Grimme, J. Chem. Phys., 2019, 150, 154122.
     DOI: 10.1063/1.5090222
   * E. Caldeweyher, J.-M. Mewes, S. Ehlert and S. Grimme, Phys. Chem. Chem. Phys.
     2020, 22, 8499-8512. DOI: 10.1039/D0CP00502A
   
   for sTDA-xTB:
   * S. Grimme and C. Bannwarth, J. Chem. Phys., 2016, 145, 054103.
     DOI: 10.1063/1.4959605
   
   in the mass-spec context:
   * V. Asgeirsson, C. Bauer and S. Grimme, Chem. Sci., 2017, 8, 4879.
     DOI: 10.1039/c7sc00601b
   * J. Koopman and S. Grimme, ACS Omega 2019, 4, 12, 15120-15133.
     DOI: 10.1021/acsomega.9b02011
   
   for metadynamics refer to:
   * S. Grimme, J. Chem. Theory Comput., 2019, 155, 2847-2862
     DOI: 10.1021/acs.jctc.9b00143
   
   for SPH calculations refer to:
   * S. Spicher and S. Grimme, J. Chem. Theory Comput., 2021, 17, 1701-1714
     DOI: 10.1021/acs.jctc.0c01306
   
   with help from (in alphabetical order)
   P. Atkinson, C. Bannwarth, F. Bohle, G. Brandenburg, E. Caldeweyher
   M. Checinski, S. Dohm, S. Ehlert, S. Ehrlich, I. Gerasimov, C. Hölzer
   A. Katbashev, J. Koopman, C. Lavigne, S. Lehtola, F. März, M. Müller,
   F. Musil, H. Neugebauer, J. Pisarek, C. Plett, P. Pracht, F. Pultar,
   J. Seibert, P. Shushkov, S. Spicher, M. Stahn, M. Steiner, T. Strunk,
   J. Stückrath, T. Rose, and J. Unsleber
   
 * started run on 2023/01/23 at 19:39:31.377     

           -------------------------------------------------
          |                Calculation Setup                |
           -------------------------------------------------

          program call               : xtb init.xyz --opt -c 1 -u 0 -P 16 --input xtb.inp
          hostname                   : gpg-woodward
          coordinate file            : init.xyz
          omp threads                :                    16

   ID    Z sym.   atoms
    1    7 N      1
    2    6 C      2-7, 9, 10
    3    9 F      8
    4    1 H      11-21

           -------------------------------------------------
          |                 G F N 2 - x T B                 |
           -------------------------------------------------

        Reference                      10.1021/acs.jctc.8b01176
      * Hamiltonian:
        H0-scaling (s, p, d)           1.850000    2.230000    2.230000
        zeta-weighting                 0.500000
      * Dispersion:
        s8                             2.700000
        a1                             0.520000
        a2                             5.000000
        s9                             5.000000
      * Repulsion:
        kExp                           1.500000    1.000000
        rExp                           1.000000
      * Coulomb:
        alpha                          2.000000
        third order                    shell-resolved
        anisotropic                    true
        a3                             3.000000
        a5                             4.000000
        cn-shift                       1.200000
        cn-exp                         4.000000
        max-rad                        5.000000


          ...................................................
          :                      SETUP                      :
          :.................................................:
          :  # basis functions                  51          :
          :  # atomic orbitals                  51          :
          :  # shells                           31          :
          :  # electrons                        54          :
          :  max. iterations                   250          :
          :  Hamiltonian                  GFN2-xTB          :
          :  restarted?                      false          :
          :  GBSA solvation                  false          :
          :  PC potential                    false          :
          :  electronic temp.          300.0000000     K    :
          :  accuracy                    1.0000000          :
          :  -> integral cutoff          0.2500000E+02      :
          :  -> integral neglect         0.1000000E-07      :
          :  -> SCF convergence          0.1000000E-05 Eh   :
          :  -> wf. convergence          0.1000000E-03 e    :
          :  Broyden damping             0.4000000          :
          ...................................................

 iter      E             dE          RMSdq      gap      omega  full diag
   1    -30.2517706 -0.302518E+02  0.423E+00    4.15       0.0  T
   2    -30.3622622 -0.110492E+00  0.244E+00    4.44       1.0  T
   3    -30.3653187 -0.305648E-02  0.130E+00    4.30       1.0  T
   4    -30.3648253  0.493335E-03  0.554E-01    4.44       1.0  T
   5    -30.3677231 -0.289778E-02  0.114E-01    4.43       1.0  T
   6    -30.3677597 -0.365636E-04  0.614E-02    4.41       1.0  T
   7    -30.3677774 -0.177434E-04  0.107E-02    4.42       2.0  T
   8    -30.3677784 -0.957601E-06  0.417E-03    4.42       5.2  T
   9    -30.3677784 -0.155060E-07  0.916E-04    4.42      23.8  T
  10    -30.3677784 -0.643726E-08  0.429E-04    4.42      50.9  T

   *** convergence criteria satisfied after 10 iterations ***

         #    Occupation            Energy/Eh            Energy/eV
      -------------------------------------------------------------
         1        2.0000           -0.9189866             -25.0069
       ...           ...                  ...                  ...
        21        2.0000           -0.6101189             -16.6022
        22        2.0000           -0.5921174             -16.1123
        23        2.0000           -0.5848475             -15.9145
        24        2.0000           -0.5795616             -15.7707
        25        2.0000           -0.5488307             -14.9344
        26        2.0000           -0.5399856             -14.6938
        27        2.0000           -0.5256248             -14.3030 (HOMO)
        28                         -0.3632258              -9.8839 (LUMO)
        29                         -0.3610588              -9.8249
        30                         -0.2660903              -7.2407
        31                         -0.2357351              -6.4147
        32                         -0.1471024              -4.0029
       ...                                ...                  ...
        51                          0.4965687              13.5123
      -------------------------------------------------------------
                  HL-Gap            0.1623990 Eh            4.4191 eV
             Fermi-level           -0.4444253 Eh          -12.0934 eV

 SCC (total)                   0 d,  0 h,  0 min,  0.031 sec
 SCC setup                      ...        0 min,  0.000 sec (  0.886%)
 Dispersion                     ...        0 min,  0.001 sec (  2.156%)
 classical contributions        ...        0 min,  0.000 sec (  0.614%)
 integral evaluation            ...        0 min,  0.002 sec (  6.933%)
 iterations                     ...        0 min,  0.021 sec ( 67.808%)
 molecular gradient             ...        0 min,  0.006 sec ( 20.305%)
 printout                       ...        0 min,  0.000 sec (  0.414%)

         :::::::::::::::::::::::::::::::::::::::::::::::::::::
         ::                     SUMMARY                     ::
         :::::::::::::::::::::::::::::::::::::::::::::::::::::
         :: total energy             -29.944372294091 Eh    ::
         :: gradient norm              0.028050882781 Eh/a0 ::
         :: HOMO-LUMO gap              4.419101154300 eV    ::
         ::.................................................::
         :: SCC energy               -30.367778397266 Eh    ::
         :: -> isotropic ES            0.123137417094 Eh    ::
         :: -> anisotropic ES         -0.012920943890 Eh    ::
         :: -> anisotropic XC          0.014006668531 Eh    ::
         :: -> dispersion             -0.015118614401 Eh    ::
         :: repulsion energy           0.423308663464 Eh    ::
         :: add. restraining           0.000000000000 Eh    ::
         :: total charge               1.000000000000 e     ::
         :::::::::::::::::::::::::::::::::::::::::::::::::::::

      ----------------------------------------------------------- 
     |                   =====================                   |
     |                        A N C O P T                        |
     |                   =====================                   |
     |               Approximate Normal Coordinate               |
     |                Rational Function Optimizer                |
      ----------------------------------------------------------- 

          ...................................................
          :                      SETUP                      :
          :.................................................:
          :   optimization level            normal          :
          :   max. optcycles                   200          :
          :   ANC micro-cycles                  20          :
          :   degrees of freedom                57          :
          :.................................................:
          :   RF solver                   davidson          :
          :   write xtbopt.log                true          :
          :   linear?                        false          :
          :   energy convergence         0.5000000E-05 Eh   :
          :   grad. convergence          0.1000000E-02 Eh/α :
          :   maximium RF displ.         1.0000000          :
          :   Hlow (freq-cutoff)         0.1000000E-01      :
          :   Hmax (freq-cutoff)         5.0000000          :
          :   S6 in model hess.         20.0000000          :
          ...................................................

generating ANC from model Hessian ...
Using Lindh-Hessian (1995)
 Shifting diagonal of input Hessian by    8.4789891457711167E-003
 Lowest  eigenvalues of input Hessian
    0.000000    0.000000    0.000000    0.000000    0.000000    0.000000
    0.010000    0.010115    0.012682    0.015644    0.022628    0.023084
    0.025083    0.028545    0.032090    0.034372    0.051311    0.060144
 Highest eigenvalues
    1.430908    1.551687    1.697803    1.832903    1.965692    2.073103


........................................................................
.............................. CYCLE    1 ..............................
........................................................................
   1    -30.3677784 -0.303678E+02  0.222E-04    4.42       0.0  T
   2    -30.3677784 -0.255696E-09  0.146E-04    4.42     149.2  T
   3    -30.3677784 -0.198025E-09  0.888E-05    4.42     245.9  T
     SCC iter.                  ...        0 min,  0.005 sec
     gradient                   ...        0 min,  0.005 sec
 * total energy  :   -29.9443723 Eh     change       -0.1371951E-08 Eh
   gradient norm :     0.0280501 Eh/α   predicted     0.0000000E+00 (-100.00%)
   displ. norm   :     0.1744438 α      lambda       -0.2880839E-02
   maximum displ.:     0.0860344 α      in ANC's #4, #13, #14, ...

........................................................................
.............................. CYCLE    2 ..............................
........................................................................
   1    -30.3854196 -0.303854E+02  0.144E-01    4.50       0.0  T
   2    -30.3854312 -0.116225E-04  0.838E-02    4.49       1.0  T
   3    -30.3854225  0.866525E-05  0.265E-02    4.50       1.0  T
   4    -30.3854336 -0.110174E-04  0.534E-03    4.50       4.1  T
   5    -30.3854340 -0.401585E-06  0.202E-03    4.49      10.8  T
   6    -30.3854340 -0.349576E-08  0.399E-04    4.49      54.7  T
   7    -30.3854340 -0.429857E-09  0.159E-04    4.49     137.7  T
     SCC iter.                  ...        0 min,  0.011 sec
     gradient                   ...        0 min,  0.004 sec
 * total energy  :   -29.9461837 Eh     change       -0.1811362E-02 Eh
   gradient norm :     0.0092481 Eh/α   predicted    -0.1484273E-02 ( -18.06%)
   displ. norm   :     0.1310692 α      lambda       -0.4855848E-03
   maximum displ.:     0.0861635 α      in ANC's #4, #2, #1, ...

........................................................................
.............................. CYCLE    3 ..............................
........................................................................
   1    -30.3909282 -0.303909E+02  0.652E-02    4.51       0.0  T
   2    -30.3909321 -0.394751E-05  0.370E-02    4.51       1.0  T
   3    -30.3909290  0.318236E-05  0.173E-02    4.51       1.3  T
   4    -30.3909335 -0.457669E-05  0.248E-03    4.51       8.8  T
   5    -30.3909336 -0.571620E-07  0.112E-03    4.51      19.5  T
   6    -30.3909336 -0.146424E-08  0.352E-04    4.51      61.9  T
   7    -30.3909336 -0.816119E-09  0.129E-04    4.51     168.6  T
     SCC iter.                  ...        0 min,  0.011 sec
     gradient                   ...        0 min,  0.004 sec
 * total energy  :   -29.9464938 Eh     change       -0.3101213E-03 Eh
   gradient norm :     0.0039456 Eh/α   predicted    -0.2472736E-03 ( -20.27%)
   displ. norm   :     0.1292246 α      lambda       -0.1712099E-03
   maximum displ.:     0.0795039 α      in ANC's #2, #4, #1, ...

........................................................................
.............................. CYCLE    4 ..............................
........................................................................
   1    -30.3913383 -0.303913E+02  0.440E-02    4.51       0.0  T
   2    -30.3913408 -0.251125E-05  0.250E-02    4.51       1.0  T
   3    -30.3913392  0.159490E-05  0.141E-02    4.51       1.5  T
   4    -30.3913422 -0.305087E-05  0.160E-03    4.51      13.6  T
   5    -30.3913422 -0.984558E-08  0.745E-04    4.51      29.3  T
   6    -30.3913422 -0.221617E-08  0.324E-04    4.51      67.3  T
     SCC iter.                  ...        0 min,  0.010 sec
     gradient                   ...        0 min,  0.004 sec
 * total energy  :   -29.9466239 Eh     change       -0.1301511E-03 Eh
   gradient norm :     0.0032710 Eh/α   predicted    -0.8704580E-04 ( -33.12%)
   displ. norm   :     0.1886791 α      lambda       -0.1725903E-03
   maximum displ.:     0.1249048 α      in ANC's #2, #4, #1, ...

........................................................................
.............................. CYCLE    5 ..............................
........................................................................
   1    -30.3901323 -0.303901E+02  0.602E-02    4.50       0.0  T
   2    -30.3901359 -0.356397E-05  0.348E-02    4.50       1.0  T
   3    -30.3901323  0.357926E-05  0.182E-02    4.50       1.2  T
   4    -30.3901381 -0.576904E-05  0.189E-03    4.50      11.6  T
   5    -30.3901381 -0.131386E-07  0.874E-04    4.50      25.0  T
   6    -30.3901381 -0.493081E-08  0.399E-04    4.50      54.6  T
     SCC iter.                  ...        0 min,  0.009 sec
     gradient                   ...        0 min,  0.003 sec
 * total energy  :   -29.9467550 Eh     change       -0.1311202E-03 Eh
   gradient norm :     0.0037221 Eh/α   predicted    -0.8936730E-04 ( -31.84%)
   displ. norm   :     0.2050628 α      lambda       -0.1486108E-03
   maximum displ.:     0.1430766 α      in ANC's #2, #1, #4, ...

........................................................................
.............................. CYCLE    6 ..............................
........................................................................
   1    -30.3887090 -0.303887E+02  0.674E-02    4.50       0.0  T
   2    -30.3887118 -0.286231E-05  0.392E-02    4.50       1.0  T
   3    -30.3887071  0.475029E-05  0.179E-02    4.50       1.2  T
   4    -30.3887135 -0.647975E-05  0.171E-03    4.50      12.8  T
   5    -30.3887136 -0.126477E-07  0.778E-04    4.50      28.0  T
   6    -30.3887136 -0.316857E-08  0.375E-04    4.50      58.2  T
     SCC iter.                  ...        0 min,  0.008 sec
     gradient                   ...        0 min,  0.003 sec
 * total energy  :   -29.9468760 Eh     change       -0.1209051E-03 Eh
   gradient norm :     0.0039776 Eh/α   predicted    -0.7743070E-04 ( -35.96%)
   displ. norm   :     0.2416860 α      lambda       -0.1708801E-03
   maximum displ.:     0.1733660 α      in ANC's #2, #1, #6, ...

........................................................................
.............................. CYCLE    7 ..............................
........................................................................
   1    -30.3875713 -0.303876E+02  0.830E-02    4.49       0.0  T
   2    -30.3875743 -0.296853E-05  0.484E-02    4.49       1.0  T
   3    -30.3875679  0.632762E-05  0.192E-02    4.49       1.1  T
   4    -30.3875760 -0.807686E-05  0.179E-03    4.49      12.2  T
   5    -30.3875760 -0.134007E-07  0.825E-04    4.49      26.4  T
   6    -30.3875760 -0.244686E-08  0.392E-04    4.49      55.7  T
     SCC iter.                  ...        0 min,  0.008 sec
     gradient                   ...        0 min,  0.004 sec
 * total energy  :   -29.9470170 Eh     change       -0.1410578E-03 Eh
   gradient norm :     0.0036857 Eh/α   predicted    -0.9043707E-04 ( -35.89%)
   displ. norm   :     0.2948789 α      lambda       -0.1962274E-03
   maximum displ.:     0.2171135 α      in ANC's #2, #1, #6, ...

........................................................................
.............................. CYCLE    8 ..............................
........................................................................
   1    -30.3868938 -0.303869E+02  0.105E-01    4.49       0.0  T
   2    -30.3868980 -0.424666E-05  0.611E-02    4.49       1.0  T
   3    -30.3868880  0.100390E-04  0.239E-02    4.50       1.0  T
   4    -30.3869007 -0.127030E-04  0.207E-03    4.49      10.6  T
   5    -30.3869007 -0.127153E-07  0.101E-03    4.49      21.6  T
   6    -30.3869007 -0.433911E-08  0.449E-04    4.49      48.6  T
   7    -30.3869007 -0.893831E-09  0.998E-05    4.49     218.7  T
     SCC iter.                  ...        0 min,  0.010 sec
     gradient                   ...        0 min,  0.003 sec
 * total energy  :   -29.9471715 Eh     change       -0.1544621E-03 Eh
   gradient norm :     0.0035943 Eh/α   predicted    -0.1066488E-03 ( -30.95%)
   displ. norm   :     0.2817746 α      lambda       -0.1656243E-03
   maximum displ.:     0.2180240 α      in ANC's #2, #1, #6, ...

........................................................................
.............................. CYCLE    9 ..............................
........................................................................
   1    -30.3871637 -0.303872E+02  0.105E-01    4.50       0.0  T
   2    -30.3871684 -0.473512E-05  0.616E-02    4.50       1.0  T
   3    -30.3871571  0.112509E-04  0.259E-02    4.50       1.0  T
   4    -30.3871716 -0.144644E-04  0.193E-03    4.50      11.3  T
   5    -30.3871716 -0.981730E-08  0.102E-03    4.50      21.4  T
   6    -30.3871716 -0.542520E-08  0.420E-04    4.50      51.9  T
   7    -30.3871716 -0.577387E-09  0.998E-05    4.50     218.7  T
     SCC iter.                  ...        0 min,  0.010 sec
     gradient                   ...        0 min,  0.002 sec
 * total energy  :   -29.9472980 Eh     change       -0.1264764E-03 Eh
   gradient norm :     0.0033963 Eh/α   predicted    -0.8939734E-04 ( -29.32%)
   displ. norm   :     0.2426797 α      lambda       -0.1158736E-03
   maximum displ.:     0.2002701 α      in ANC's #2, #6, #1, ...

........................................................................
.............................. CYCLE   10 ..............................
........................................................................
   1    -30.3879620 -0.303880E+02  0.961E-02    4.50       0.0  T
   2    -30.3879667 -0.471341E-05  0.563E-02    4.50       1.0  T
   3    -30.3879569  0.983563E-05  0.252E-02    4.50       1.0  T
   4    -30.3879699 -0.130240E-04  0.169E-03    4.50      12.9  T
   5    -30.3879699 -0.113371E-07  0.911E-04    4.50      24.0  T
   6    -30.3879699 -0.405997E-08  0.400E-04    4.50      54.5  T
     SCC iter.                  ...        0 min,  0.008 sec
     gradient                   ...        0 min,  0.003 sec
 * total energy  :   -29.9473887 Eh     change       -0.9076762E-04 Eh
   gradient norm :     0.0027572 Eh/α   predicted    -0.6134891E-04 ( -32.41%)
   displ. norm   :     0.2052374 α      lambda       -0.8629529E-04
   maximum displ.:     0.1819598 α      in ANC's #2, #6, #7, ...

........................................................................
.............................. CYCLE   11 ..............................
........................................................................
   1    -30.3889681 -0.303890E+02  0.888E-02    4.50       0.0  T
   2    -30.3889725 -0.445534E-05  0.520E-02    4.50       1.0  T
   3    -30.3889641  0.843349E-05  0.241E-02    4.50       1.0  T
   4    -30.3889755 -0.114264E-04  0.145E-03    4.50      15.1  T
   5    -30.3889755 -0.119036E-07  0.774E-04    4.50      28.2  T
   6    -30.3889755 -0.334703E-08  0.355E-04    4.50      61.5  T
     SCC iter.                  ...        0 min,  0.008 sec
     gradient                   ...        0 min,  0.002 sec
 * total energy  :   -29.9474600 Eh     change       -0.7128772E-04 Eh
   gradient norm :     0.0019065 Eh/α   predicted    -0.4496963E-04 ( -36.92%)
   displ. norm   :     0.3255992 α      lambda       -0.8129918E-04
   maximum displ.:     0.2950048 α      in ANC's #2, #6, #5, ...

........................................................................
.............................. CYCLE   12 ..............................
........................................................................
   1    -30.3885175 -0.303885E+02  0.146E-01    4.50       0.0  T
   2    -30.3885309 -0.134025E-04  0.852E-02    4.49       1.0  T
   3    -30.3885087  0.221777E-04  0.404E-02    4.50       1.0  T
   4    -30.3885395 -0.308547E-04  0.259E-03    4.50       8.4  T
   5    -30.3885396 -0.378434E-07  0.135E-03    4.49      16.2  T
   6    -30.3885396 -0.136574E-07  0.584E-04    4.49      37.4  T
   7    -30.3885396 -0.626763E-09  0.124E-04    4.49     176.4  T
     SCC iter.                  ...        0 min,  0.009 sec
     gradient                   ...        0 min,  0.002 sec
 * total energy  :   -29.9475592 Eh     change       -0.9923521E-04 Eh
   gradient norm :     0.0033749 Eh/α   predicted    -0.4256540E-04 ( -57.11%)
   displ. norm   :     0.1779948 α      lambda       -0.9903340E-04
   maximum displ.:     0.1578118 α      in ANC's #2, #1, #6, ...

........................................................................
.............................. CYCLE   13 ..............................
........................................................................
   1    -30.3897810 -0.303898E+02  0.877E-02    4.49       0.0  T
   2    -30.3897851 -0.404775E-05  0.512E-02    4.49       1.0  T
   3    -30.3897772  0.782423E-05  0.234E-02    4.49       1.0  T
   4    -30.3897878 -0.105573E-04  0.128E-03    4.49      17.0  T
   5    -30.3897878 -0.131923E-07  0.667E-04    4.49      32.7  T
   6    -30.3897878 -0.256928E-08  0.285E-04    4.49      76.6  T
     SCC iter.                  ...        0 min,  0.008 sec
     gradient                   ...        0 min,  0.002 sec
 * total energy  :   -29.9476400 Eh     change       -0.8079469E-04 Eh
   gradient norm :     0.0035422 Eh/α   predicted    -0.5108619E-04 ( -36.77%)
   displ. norm   :     0.3921100 α      lambda       -0.1822743E-03
   maximum displ.:     0.3552889 α      in ANC's #2, #1, #6, ...

........................................................................
.............................. CYCLE   14 ..............................
........................................................................
   1    -30.3887507 -0.303888E+02  0.191E-01    4.47       0.0  T
   2    -30.3887721 -0.213710E-04  0.111E-01    4.47       1.0  T
   3    -30.3887361  0.359766E-04  0.528E-02    4.47       1.0  T
   4    -30.3887861 -0.499303E-04  0.304E-03    4.47       7.2  T
   5    -30.3887861 -0.727979E-07  0.156E-03    4.47      14.0  T
   6    -30.3887862 -0.188333E-07  0.665E-04    4.47      32.8  T
   7    -30.3887862 -0.690143E-09  0.141E-04    4.47     155.0  T
     SCC iter.                  ...        0 min,  0.009 sec
     gradient                   ...        0 min,  0.002 sec
 * total energy  :   -29.9478128 Eh     change       -0.1727980E-03 Eh
   gradient norm :     0.0050708 Eh/α   predicted    -0.1051503E-03 ( -39.15%)
   displ. norm   :     0.3981538 α      lambda       -0.2173550E-03
   maximum displ.:     0.3508302 α      in ANC's #2, #1, #6, ...

........................................................................
.............................. CYCLE   15 ..............................
........................................................................
   1    -30.3867896 -0.303868E+02  0.197E-01    4.44       0.0  T
   2    -30.3868117 -0.221065E-04  0.115E-01    4.45       1.0  T
   3    -30.3867747  0.369634E-04  0.543E-02    4.44       1.0  T
   4    -30.3868258 -0.511244E-04  0.333E-03    4.45       6.5  T
   5    -30.3868259 -0.800292E-07  0.174E-03    4.45      12.6  T
   6    -30.3868259 -0.224578E-07  0.726E-04    4.45      30.1  T
   7    -30.3868259 -0.107779E-08  0.154E-04    4.45     141.4  T
     SCC iter.                  ...        0 min,  0.009 sec
     gradient                   ...        0 min,  0.003 sec
 * total energy  :   -29.9479974 Eh     change       -0.1845600E-03 Eh
   gradient norm :     0.0057773 Eh/α   predicted    -0.1259072E-03 ( -31.78%)
   displ. norm   :     0.5429475 α      lambda       -0.2739453E-03
   maximum displ.:     0.4704704 α      in ANC's #2, #1, #3, ...

........................................................................
.............................. CYCLE   16 ..............................
........................................................................
   1    -30.3836175 -0.303836E+02  0.275E-01    4.40       0.0  T
   2    -30.3836560 -0.385339E-04  0.160E-01    4.41       1.0  T
   3    -30.3835860  0.700292E-04  0.738E-02    4.40       1.0  T
   4    -30.3836805 -0.945645E-04  0.458E-03    4.41       4.8  T
   5    -30.3836807 -0.159321E-06  0.238E-03    4.41       9.2  T
   6    -30.3836807 -0.401519E-07  0.103E-03    4.41      21.2  T
   7    -30.3836807 -0.245025E-08  0.221E-04    4.41      98.5  T
   8    -30.3836807 -0.611056E-09  0.100E-04    4.41     217.3  T
     SCC iter.                  ...        0 min,  0.010 sec
     gradient                   ...        0 min,  0.002 sec
 * total energy  :   -29.9481532 Eh     change       -0.1558127E-03 Eh
   gradient norm :     0.0082134 Eh/α   predicted    -0.1773514E-03 (  13.82%)
   displ. norm   :     0.1165919 α      lambda       -0.1880611E-03
   maximum displ.:     0.0822804 α      in ANC's #1, #2, #6, ...

........................................................................
.............................. CYCLE   17 ..............................
........................................................................
   1    -30.3874977 -0.303875E+02  0.573E-02    4.42       0.0  T
   2    -30.3874986 -0.882303E-06  0.336E-02    4.42       1.0  T
   3    -30.3874971  0.145836E-05  0.902E-03    4.42       2.4  T
   4    -30.3874989 -0.182213E-05  0.146E-03    4.42      14.9  T
   5    -30.3874989 -0.139426E-07  0.708E-04    4.42      30.8  T
   6    -30.3874989 -0.185499E-08  0.251E-04    4.42      87.1  T
     SCC iter.                  ...        0 min,  0.008 sec
     gradient                   ...        0 min,  0.002 sec
 * total energy  :   -29.9482823 Eh     change       -0.1291232E-03 Eh
   gradient norm :     0.0057548 Eh/α   predicted    -0.9530985E-04 ( -26.19%)
   displ. norm   :     0.2475740 α      lambda       -0.1290575E-03
   maximum displ.:     0.1887006 α      in ANC's #2, #1, #3, ...

........................................................................
.............................. CYCLE   18 ..............................
........................................................................
   1    -30.3883056 -0.303883E+02  0.126E-01    4.41       0.0  T
   2    -30.3883104 -0.478289E-05  0.732E-02    4.41       1.0  T
   3    -30.3882981  0.123322E-04  0.278E-02    4.41       1.0  T
   4    -30.3883135 -0.154108E-04  0.192E-03    4.41      11.3  T
   5    -30.3883135 -0.209077E-07  0.103E-03    4.41      21.2  T
   6    -30.3883135 -0.347022E-08  0.297E-04    4.41      73.4  T
   7    -30.3883135 -0.811156E-09  0.804E-05    4.41     271.6  T
     SCC iter.                  ...        0 min,  0.009 sec
     gradient                   ...        0 min,  0.002 sec
 * total energy  :   -29.9483684 Eh     change       -0.8611209E-04 Eh
   gradient norm :     0.0044569 Eh/α   predicted    -0.6848586E-04 ( -20.47%)
   displ. norm   :     0.1512117 α      lambda       -0.5739984E-04
   maximum displ.:     0.1121797 α      in ANC's #2, #1, #6, ...

........................................................................
.............................. CYCLE   19 ..............................
........................................................................
   1    -30.3890338 -0.303890E+02  0.765E-02    4.41       0.0  T
   2    -30.3890353 -0.153163E-05  0.446E-02    4.41       1.0  T
   3    -30.3890320  0.327092E-05  0.133E-02    4.40       1.6  T
   4    -30.3890360 -0.399477E-05  0.129E-03    4.41      16.9  T
   5    -30.3890360 -0.138088E-07  0.649E-04    4.41      33.6  T
   6    -30.3890360 -0.550507E-09  0.248E-04    4.41      88.0  T
     SCC iter.                  ...        0 min,  0.008 sec
     gradient                   ...        0 min,  0.002 sec
 * total energy  :   -29.9484049 Eh     change       -0.3648459E-04 Eh
   gradient norm :     0.0027935 Eh/α   predicted    -0.2935706E-04 ( -19.54%)
   displ. norm   :     0.0973279 α      lambda       -0.2604559E-04
   maximum displ.:     0.0690855 α      in ANC's #2, #1, #6, ...

........................................................................
.............................. CYCLE   20 ..............................
........................................................................
   1    -30.3892240 -0.303892E+02  0.503E-02    4.40       0.0  T
   2    -30.3892248 -0.719484E-06  0.293E-02    4.40       1.0  T
   3    -30.3892232  0.160428E-05  0.911E-03    4.40       2.4  T
   4    -30.3892251 -0.195430E-05  0.798E-04    4.40      27.3  T
   5    -30.3892251 -0.620975E-08  0.382E-04    4.40      57.1  T
   6    -30.3892251 -0.517481E-09  0.161E-04    4.40     135.2  T
     SCC iter.                  ...        0 min,  0.008 sec
     gradient                   ...        0 min,  0.002 sec
 * total energy  :   -29.9484207 Eh     change       -0.1576323E-04 Eh
   gradient norm :     0.0021505 Eh/α   predicted    -0.1314658E-04 ( -16.60%)
   displ. norm   :     0.0677180 α      lambda       -0.1840189E-04
   maximum displ.:     0.0436056 α      in ANC's #2, #1, #6, ...
 * RMSD in coord.:     0.8244990 α      energy gain  -0.4048396E-02 Eh

generating ANC from model Hessian ...
Using Lindh-Hessian (1995)
 Shifting diagonal of input Hessian by    8.2477247588716475E-003
 Lowest  eigenvalues of input Hessian
    0.000000    0.000000    0.000000    0.000000    0.000000    0.000000
    0.010000    0.010979    0.012207    0.017350    0.022397    0.024482
    0.025802    0.027462    0.033354    0.036651    0.052976    0.060782
 Highest eigenvalues
    1.463334    1.605127    1.746160    1.891210    2.019291    2.122772


........................................................................
.............................. CYCLE   21 ..............................
........................................................................
   1    -30.3892155 -0.303892E+02  0.330E-02    4.40       0.0  T
   2    -30.3892157 -0.225850E-06  0.193E-02    4.40       1.1  T
   3    -30.3892155  0.182906E-06  0.324E-03    4.40       6.7  T
   4    -30.3892158 -0.228286E-06  0.697E-04    4.40      31.3  T
   5    -30.3892158 -0.724138E-08  0.277E-04    4.40      78.7  T
     SCC iter.                  ...        0 min,  0.006 sec
     gradient                   ...        0 min,  0.002 sec
 * total energy  :   -29.9484337 Eh     change       -0.1305952E-04 Eh
   gradient norm :     0.0020957 Eh/α   predicted     0.0000000E+00 (-100.00%)
   displ. norm   :     0.0324136 α      lambda       -0.2536196E-04
   maximum displ.:     0.0225684 α      in ANC's #3, #4, #7, ...

........................................................................
.............................. CYCLE   22 ..............................
........................................................................
   1    -30.3889153 -0.303889E+02  0.101E-02    4.40       0.0  T
   2    -30.3889154 -0.852522E-07  0.604E-03    4.40       3.6  T
   3    -30.3889153  0.105854E-06  0.248E-03    4.40       8.8  T
   4    -30.3889154 -0.140235E-06  0.408E-04    4.40      53.5  T
   5    -30.3889154 -0.149975E-08  0.172E-04    4.40     126.5  T
     SCC iter.                  ...        0 min,  0.006 sec
     gradient                   ...        0 min,  0.001 sec
 * total energy  :   -29.9484545 Eh     change       -0.2073228E-04 Eh
   gradient norm :     0.0009808 Eh/α   predicted    -0.1276178E-04 ( -38.44%)
   displ. norm   :     0.1229212 α      lambda       -0.4001754E-04
   maximum displ.:     0.0905664 α      in ANC's #3, #5, #4, ...

........................................................................
.............................. CYCLE   23 ..............................
........................................................................
   1    -30.3881204 -0.303881E+02  0.353E-02    4.40       0.0  T
   2    -30.3881209 -0.562023E-06  0.209E-02    4.40       1.0  T
   3    -30.3881202  0.688205E-06  0.583E-03    4.40       3.7  T
   4    -30.3881211 -0.853745E-06  0.122E-03    4.40      17.8  T
   5    -30.3881211 -0.160957E-07  0.528E-04    4.40      41.3  T
   6    -30.3881211 -0.238494E-09  0.176E-04    4.40     124.3  T
     SCC iter.                  ...        0 min,  0.008 sec
     gradient                   ...        0 min,  0.002 sec
 * total energy  :   -29.9484768 Eh     change       -0.2236224E-04 Eh
   gradient norm :     0.0029119 Eh/α   predicted    -0.2014537E-04 (  -9.91%)
   displ. norm   :     0.0075760 α      lambda       -0.1136303E-04
   maximum displ.:     0.0035778 α      in ANC's #4, #1, #3, ...

........................................................................
.............................. CYCLE   24 ..............................
........................................................................
   1    -30.3884997 -0.303885E+02  0.476E-03    4.40       0.0  T
   2    -30.3884997 -0.273562E-07  0.287E-03    4.40       7.6  T
   3    -30.3884997  0.194729E-07  0.135E-03    4.40      16.1  T
   4    -30.3884997 -0.310947E-07  0.265E-04    4.40      82.4  T
   5    -30.3884997 -0.324945E-09  0.122E-04    4.40     178.3  T
     SCC iter.                  ...        0 min,  0.006 sec
     gradient                   ...        0 min,  0.002 sec
 * total energy  :   -29.9484858 Eh     change       -0.8981483E-05 Eh
   gradient norm :     0.0016610 Eh/α   predicted    -0.5682626E-05 ( -36.73%)
   displ. norm   :     0.0414254 α      lambda       -0.1283305E-04
   maximum displ.:     0.0296845 α      in ANC's #3, #5, #1, ...

........................................................................
.............................. CYCLE   25 ..............................
........................................................................
   1    -30.3892244 -0.303892E+02  0.163E-02    4.40       0.0  T
   2    -30.3892245 -0.170230E-06  0.977E-03    4.40       2.2  T
   3    -30.3892243  0.226126E-06  0.399E-03    4.40       5.5  T
   4    -30.3892246 -0.299626E-06  0.594E-04    4.40      36.8  T
   5    -30.3892246 -0.202014E-08  0.281E-04    4.40      77.6  T
     SCC iter.                  ...        0 min,  0.006 sec
     gradient                   ...        0 min,  0.002 sec
 * total energy  :   -29.9484937 Eh     change       -0.7830831E-05 Eh
   gradient norm :     0.0010203 Eh/α   predicted    -0.6453441E-05 ( -17.59%)
   displ. norm   :     0.0211837 α      lambda       -0.2465611E-05
   maximum displ.:     0.0139924 α      in ANC's #3, #5, #1, ...

........................................................................
.............................. CYCLE   26 ..............................
........................................................................
   1    -30.3890002 -0.303890E+02  0.608E-03    4.40       0.0  T
   2    -30.3890002 -0.143757E-07  0.359E-03    4.40       6.1  T
   3    -30.3890002  0.131692E-07  0.808E-04    4.40      27.0  T
   4    -30.3890002 -0.159516E-07  0.213E-04    4.40     102.4  T
     SCC iter.                  ...        0 min,  0.005 sec
     gradient                   ...        0 min,  0.002 sec
 * total energy  :   -29.9484962 Eh     change       -0.2525915E-05 Eh
   gradient norm :     0.0002534 Eh/α   predicted    -0.1241630E-05 ( -50.84%)
   displ. norm   :     0.0203440 α      lambda       -0.8635044E-06
   maximum displ.:     0.0122382 α      in ANC's #1, #3, #5, ...

   *** GEOMETRY OPTIMIZATION CONVERGED AFTER 26 ITERATIONS ***

------------------------------------------------------------------------
 total energy gain   :        -0.0041239 Eh       -2.5878 kcal/mol
 total RMSD          :         0.8240057 a0        0.4360 Å
 total power (kW/mol):        -0.4164334 (step)  -31.6210 (real)
------------------------------------------------------------------------

 ANCopt (total)                0 d,  0 h,  0 min,  0.342 sec
 optimizer setup                ...        0 min,  0.000 sec (  0.025%)
 model hessian                  ...        0 min,  0.011 sec (  3.315%)
 ANC generation                 ...        0 min,  0.002 sec (  0.726%)
 coordinate transformation      ...        0 min,  0.001 sec (  0.147%)
 single point calculation       ...        0 min,  0.320 sec ( 93.451%)
 optimization log               ...        0 min,  0.002 sec (  0.555%)
 hessian update                 ...        0 min,  0.001 sec (  0.379%)
 rational function              ...        0 min,  0.002 sec (  0.677%)

================
 final structure:
================
21
 xtb: 6.5.1 (fef0646)
N            3.07088103551505        3.32923337571603        1.68040046008470
C            2.55093279188007        1.99023176766881        2.08917441137523
C            3.03887973098551        0.95887226033059        1.07038492112320
C            4.54522821494983        0.99891533626222        1.01073576081374
C            5.30634303137790        0.23186493531993        1.88679409324033
C            6.68530728307882        0.31897889604797        1.88693774199566
C            7.30284438145343        1.19231120970090        1.00415469873431
F            8.63288951584195        1.29137315553987        1.00733780795845
C            6.57348205683342        1.96424243649023        0.11610098612768
C            5.19094289568948        1.86703337276449        0.12892635180080
H            3.07660829368586        4.00259720535095        2.45312921207497
H            2.51581402043970        3.71555342237080        0.90798474642647
H            4.04512482627595        3.15878994586934        1.32975546580656
H            1.46314646112873        2.01751331221780        2.14522676810996
H            2.95271483715580        1.75241487836530        3.07494132616472
H            2.60928484827318        1.16690799265490        0.08950818601349
H            2.69841750110850       -0.02764166739566        1.38090167920571
H            4.81662182325659       -0.45132505270525        2.56346051436840
H            7.28599105315405       -0.28087143342479        2.55091803107283
H            7.08489602564154        2.61402896354826       -0.57535892165662
H            4.62676937227473        2.41139568730756       -0.61785424084070

 Bond Distances (Angstroems)
 ---------------------------
N1-C2=1.4934         N1-H11=1.0250        N1-H12=1.0266        N1-H13=1.0494        C2-N1=1.4934         C2-C3=1.5296         
C2-H14=1.0896        C2-H15=1.0907        C3-C2=1.5296         C3-C4=1.5081         C3-H16=1.0908        C3-H17=1.0888        
C4-C3=1.5081         C4-C5=1.3911         C4-C10=1.3958        C5-C4=1.3911         C5-C6=1.3817         C5-H18=1.0791        
C6-C5=1.3817         C6-C7=1.3869         C6-H19=1.0777        C7-C6=1.3869         C7-F8=1.3337         C7-C9=1.3844         
F8-C7=1.3337         C9-C7=1.3844         C9-C10=1.3860        C9-H20=1.0779        C10-C4=1.3958        C10-C9=1.3860        
C10-H21=1.0827       H11-N1=1.0250        H12-N1=1.0266        H13-N1=1.0494        H14-C2=1.0896        H15-C2=1.0907        
H16-C3=1.0908        H17-C3=1.0888        H18-C5=1.0791        H19-C6=1.0777        H20-C9=1.0779        H21-C10=1.0827       
 C  H  Rav=1.0847 sigma=0.0055  Rmin=1.0777  Rmax=1.0908     8
 C  C  Rav=1.4204 sigma=0.0572  Rmin=1.3817  Rmax=1.5296     8
 N  H  Rav=1.0337 sigma=0.0111  Rmin=1.0250  Rmax=1.0494     3
 N  C  Rav=1.4934 sigma=0.0000  Rmin=1.4934  Rmax=1.4934     1
 F  C  Rav=1.3337 sigma=0.0000  Rmin=1.3337  Rmax=1.3337     1

 selected bond angles (degree)
 --------------------
H11-N1-C2=112.62               H12-N1-C2=110.80               H12-N1-H11=108.85              H13-N1-C2=105.61               
H13-N1-H11=110.70              H13-N1-H12=108.16              C3-C2-N1=108.13                H14-C2-N1=109.83               
H14-C2-C3=111.69               H15-C2-N1=108.34               H15-C2-C3=109.72               H15-C2-H14=109.07              
C4-C3-C2=109.09                H16-C3-C2=110.16               H16-C3-C4=110.66               H17-C3-C2=108.74               
H17-C3-C4=110.34               H17-C3-H16=107.82              C5-C4-C3=120.46                C10-C4-C3=120.24               
C10-C4-C5=119.19               C6-C5-C4=120.75                H18-C5-C4=119.72               H18-C5-C6=119.52               
C7-C6-C5=118.95                H19-C6-C5=121.41               H19-C6-C7=119.64               F8-C7-C6=119.29                
C9-C7-C6=121.66                C9-C7-F8=119.05                C10-C9-C7=118.72               H20-C9-C7=119.85               
H20-C9-C10=121.43              C9-C10-C4=120.73               H21-C10-C4=120.49              H21-C10-C9=118.56              

 selected dihedral angles (degree)
 ---------------------------------
C3-C2-N1-H11=200.14           C3-C2-N1-H12= 77.95           C3-C2-N1-H13=321.06           H14-C2-N1-H11= 78.03          
H14-C2-N1-H12=315.85          H14-C2-N1-H13=198.96          H15-C2-N1-H11=318.99          H15-C2-N1-H12=196.81          
H15-C2-N1-H13= 79.92          C4-C3-C2-N1= 57.38            C4-C3-C2-H14=178.33           C4-C3-C2-H15=299.41           
H16-C3-C2-N1=295.73           H16-C3-C2-H14= 56.68          H16-C3-C2-H15=177.76          H17-C3-C2-N1=177.77           
H17-C3-C2-H14=298.72          H17-C3-C2-H15= 59.80          C5-C4-C3-C2= 87.26            C5-C4-C3-H16=208.61           
C5-C4-C3-H17=327.86           C10-C4-C3-C2=271.10           C10-C4-C3-H16= 32.45          C10-C4-C3-H17=151.71          
C6-C5-C4-C3=183.57            C6-C5-C4-C10=359.77           H18-C5-C4-C3=  4.58           H18-C5-C4-C10=180.78          
C7-C6-C5-C4=  0.44            C7-C6-C5-H18=179.44           H19-C6-C5-C4=180.91           H19-C6-C5-H18=359.91          
F8-C7-C6-C5=179.36            F8-C7-C6-H19=358.90           C9-C7-C6-C5=359.25            C9-C7-C6-H19=178.79           
C10-C9-C7-C6=  0.82           C10-C9-C7-F8=180.72           H20-C9-C7-C6=181.63           H20-C9-C7-F8=  1.52           
C9-C10-C4-C3=176.51           C9-C10-C4-C5=  0.31           H21-C10-C4-C3=351.03          H21-C10-C4-C5=174.83          
C4-C10-C9-C7=359.40           C4-C10-C9-H20=178.58          H21-C10-C9-C7=184.78          H21-C10-C9-H20=  3.96         
           -------------------------------------------------
          |                Final Singlepoint                |
           -------------------------------------------------

          ...................................................
          :                      SETUP                      :
          :.................................................:
          :  # basis functions                  51          :
          :  # atomic orbitals                  51          :
          :  # shells                           31          :
          :  # electrons                        54          :
          :  max. iterations                   250          :
          :  Hamiltonian                  GFN2-xTB          :
          :  restarted?                      false          :
          :  GBSA solvation                  false          :
          :  PC potential                    false          :
          :  electronic temp.          300.0000000     K    :
          :  accuracy                    1.0000000          :
          :  -> integral cutoff          0.2500000E+02      :
          :  -> integral neglect         0.1000000E-07      :
          :  -> SCF convergence          0.1000000E-05 Eh   :
          :  -> wf. convergence          0.1000000E-03 e    :
          :  Broyden damping             0.4000000          :
          ...................................................

 iter      E             dE          RMSdq      gap      omega  full diag
   1    -30.3890002 -0.303890E+02  0.769E-05    4.40       0.0  T
   2    -30.3890002 -0.202505E-11  0.448E-05    4.40     487.3  T
   3    -30.3890002  0.173728E-11  0.101E-05    4.40    2162.7  T

   *** convergence criteria satisfied after 3 iterations ***

         #    Occupation            Energy/Eh            Energy/eV
      -------------------------------------------------------------
         1        2.0000           -0.9282923             -25.2601
       ...           ...                  ...                  ...
        21        2.0000           -0.6200527             -16.8725
        22        2.0000           -0.6056903             -16.4817
        23        2.0000           -0.5938762             -16.1602
        24        2.0000           -0.5872953             -15.9811
        25        2.0000           -0.5584024             -15.1949
        26        2.0000           -0.5533967             -15.0587
        27        2.0000           -0.5367681             -14.6062 (HOMO)
        28                         -0.3749581             -10.2031 (LUMO)
        29                         -0.3691742             -10.0457
        30                         -0.2553399              -6.9482
        31                         -0.2424364              -6.5970
        32                         -0.1532481              -4.1701
       ...                                ...                  ...
        51                          0.5128808              13.9562
      -------------------------------------------------------------
                  HL-Gap            0.1618100 Eh            4.4031 eV
             Fermi-level           -0.4558631 Eh          -12.4047 eV

 SCC (total)                   0 d,  0 h,  0 min,  0.006 sec
 SCC setup                      ...        0 min,  0.000 sec (  1.148%)
 Dispersion                     ...        0 min,  0.000 sec (  2.416%)
 classical contributions        ...        0 min,  0.000 sec (  0.370%)
 integral evaluation            ...        0 min,  0.001 sec ( 10.448%)
 iterations                     ...        0 min,  0.004 sec ( 60.159%)
 molecular gradient             ...        0 min,  0.001 sec ( 22.293%)
 printout                       ...        0 min,  0.000 sec (  1.290%)

         :::::::::::::::::::::::::::::::::::::::::::::::::::::
         ::                     SUMMARY                     ::
         :::::::::::::::::::::::::::::::::::::::::::::::::::::
         :: total energy             -29.948496183247 Eh    ::
         :: gradient norm              0.000253880020 Eh/a0 ::
         :: HOMO-LUMO gap              4.403073527675 eV    ::
         ::.................................................::
         :: SCC energy               -30.389000220199 Eh    ::
         :: -> isotropic ES            0.119484725206 Eh    ::
         :: -> anisotropic ES         -0.015325686509 Eh    ::
         :: -> anisotropic XC          0.013258123840 Eh    ::
         :: -> dispersion             -0.015499963746 Eh    ::
         :: repulsion energy           0.440408941478 Eh    ::
         :: add. restraining           0.000000000000 Eh    ::
         :: total charge               1.000000000000 e     ::
         :::::::::::::::::::::::::::::::::::::::::::::::::::::

           -------------------------------------------------
          |                Property Printout                |
           -------------------------------------------------

    * Orbital Energies and Occupations

         #    Occupation            Energy/Eh            Energy/eV
      -------------------------------------------------------------
         1        2.0000           -0.9282923             -25.2601
       ...           ...                  ...                  ...
        15        2.0000           -0.6649044             -18.0930
        16        2.0000           -0.6610328             -17.9876
        17        2.0000           -0.6496116             -17.6768
        18        2.0000           -0.6444369             -17.5360
        19        2.0000           -0.6294200             -17.1274
        20        2.0000           -0.6248663             -17.0035
        21        2.0000           -0.6200527             -16.8725
        22        2.0000           -0.6056903             -16.4817
        23        2.0000           -0.5938762             -16.1602
        24        2.0000           -0.5872953             -15.9811
        25        2.0000           -0.5584024             -15.1949
        26        2.0000           -0.5533967             -15.0587
        27        2.0000           -0.5367681             -14.6062 (HOMO)
        28                         -0.3749581             -10.2031 (LUMO)
        29                         -0.3691742             -10.0457
        30                         -0.2553399              -6.9482
        31                         -0.2424364              -6.5970
        32                         -0.1532481              -4.1701
        33                         -0.0990762              -2.6960
        34                         -0.0912416              -2.4828
        35                         -0.0670729              -1.8251
        36                         -0.0495465              -1.3482
        37                         -0.0463752              -1.2619
        38                         -0.0021902              -0.0596
       ...                                ...                  ...
        51                          0.5128808              13.9562
      -------------------------------------------------------------
                  HL-Gap            0.1618100 Eh            4.4031 eV
             Fermi-level           -0.4558631 Eh          -12.4047 eV

     #   Z          covCN         q      C6AA      α(0)
     1   7 N        3.483    -0.140    24.027     7.280
     2   6 C        3.734    -0.031    21.219     6.574
     3   6 C        3.809    -0.093    22.261     6.716
     4   6 C        2.970    -0.009    28.240     8.717
     5   6 C        2.925    -0.036    28.905     8.817
     6   6 C        2.916    -0.040    28.999     8.830
     7   6 C        2.785     0.182    24.088     8.039
     8   9 F        0.788    -0.192    11.153     3.945
     9   6 C        2.914    -0.048    29.190     8.860
    10   6 C        2.925    -0.063    29.556     8.915
    11   1 H        0.859     0.264     0.830     1.427
    12   1 H        0.859     0.266     0.823     1.421
    13   1 H        0.857     0.278     0.782     1.386
    14   1 H        0.925     0.107     1.722     2.052
    15   1 H        0.924     0.106     1.728     2.056
    16   1 H        0.924     0.075     2.032     2.229
    17   1 H        0.925     0.099     1.796     2.096
    18   1 H        0.926     0.064     2.156     2.296
    19   1 H        0.926     0.086     1.918     2.166
    20   1 H        0.926     0.079     1.990     2.206
    21   1 H        0.925     0.045     2.378     2.412

 Mol. C6AA /au·bohr⁶  :       3983.573065
 Mol. C8AA /au·bohr⁸  :      93448.700976
 Mol. α(0) /au        :         98.439915


Wiberg/Mayer (AO) data.
largest (>0.10) Wiberg bond orders for each atom

 ---------------------------------------------------------------------------
     #   Z sym  total        # sym  WBO       # sym  WBO       # sym  WBO
 ---------------------------------------------------------------------------
     1   7 N    3.667 --     2 C    0.933    11 H    0.916    12 H    0.914
                            13 H    0.852
     2   6 C    3.897 --     3 C    0.995    15 H    0.968    14 H    0.967
                             1 N    0.933
     3   6 C    3.979 --     4 C    1.006     2 C    0.995    16 H    0.968
                            17 H    0.959
     4   6 C    3.987 --     5 C    1.404    10 C    1.392     3 C    1.006
     5   6 C    3.989 --     6 C    1.456     4 C    1.404    18 H    0.966
                             9 C    0.108
     6   6 C    3.987 --     5 C    1.456     7 C    1.380    19 H    0.963
                            10 C    0.105
     7   6 C    3.895 --     9 C    1.393     6 C    1.380     8 F    0.991
     8   9 F    1.136 --     7 C    0.991
     9   6 C    3.987 --    10 C    1.432     7 C    1.393    20 H    0.964
                             5 C    0.108
    10   6 C    3.990 --     9 C    1.432     4 C    1.392    21 H    0.961
                             6 C    0.105
    11   1 H    0.930 --     1 N    0.916
    12   1 H    0.929 --     1 N    0.914
    13   1 H    0.923 --     1 N    0.852
    14   1 H    0.987 --     2 C    0.967
    15   1 H    0.989 --     2 C    0.968
    16   1 H    0.994 --     3 C    0.968
    17   1 H    0.990 --     3 C    0.959
    18   1 H    0.996 --     5 C    0.966
    19   1 H    0.992 --     6 C    0.963
    20   1 H    0.993 --     9 C    0.964
    21   1 H    0.998 --    10 C    0.961
 ---------------------------------------------------------------------------

Topologies differ in total number of bonds
Writing topology from bond orders to xtbtopo.mol

molecular dipole:
                 x           y           z       tot (Debye)
 q only:        5.637       5.265       3.197
   full:        5.642       5.455       3.146      21.490
molecular quadrupole (traceless):
                xx          xy          yy          xz          yz          zz
 q only:        4.510      44.064      13.953      27.879      22.843     -18.463
  q+dip:        3.237      44.875      15.348      27.858      20.763     -18.584
   full:        2.439      45.004      16.263      27.506      22.882     -18.702

           -------------------------------------------------
          |                Geometry Summary                 |
           -------------------------------------------------

      molecular mass/u    :      140.1783418
   center of mass at/Å    :        5.3168850       1.4679591       1.2021545
  moments of inertia/u·Å² :        0.1675112E+03   0.6648734E+03   0.7335165E+03
rotational constants/cm⁻¹ :        0.1006359E+00   0.2535465E-01   0.2298194E-01

 * 20 selected distances

     #   Z          #   Z                                           value/Å
     1   7 N        2   6 C                                       1.4934417
     2   6 C        3   6 C                                       1.5296167 (max)
     4   6 C        5   6 C                                       1.3910933
     5   6 C        6   6 C                                       1.3817133
     6   6 C        7   6 C                                       1.3868553
     7   6 C        8   9 F                                       1.3337330
     7   6 C        9   6 C                                       1.3843724
     4   6 C       10   6 C                                       1.3957667
     9   6 C       10   6 C                                       1.3860119
     1   7 N       11   1 H                                       1.0249691 (min)
     1   7 N       12   1 H                                       1.0266298
     1   7 N       13   1 H                                       1.0493589
     2   6 C       14   1 H                                       1.0895712
     2   6 C       15   1 H                                       1.0907439
     3   6 C       16   1 H                                       1.0908483
     3   6 C       17   1 H                                       1.0888274
     5   6 C       18   1 H                                       1.0790983
     6   6 C       19   1 H                                       1.0777344
     9   6 C       20   1 H                                       1.0779071
    10   6 C       21   1 H                                       1.0827297

 * 5 distinct bonds (by element types)

   Z      Z             #   av. dist./Å        max./Å        min./Å
   1 H    6 C           8     1.0846825     1.0908483     1.0777344
   6 C    6 C           7     1.4079185     1.5296167     1.3817133
   1 H    7 N           3     1.0336526     1.0493589     1.0249691
   6 C    7 N           1     1.4934417     1.4934417     1.4934417
   6 C    9 F           1     1.3337330     1.3337330     1.3337330


optimized geometry written to: xtbopt.xyz


           -------------------------------------------------
          | TOTAL ENERGY              -29.948496183247 Eh   |
          | GRADIENT NORM               0.000253880020 Eh/α |
          | HOMO-LUMO GAP               4.403073527675 eV   |
           -------------------------------------------------

------------------------------------------------------------------------
 * finished run on 2023/01/23 at 19:39:31.781     
------------------------------------------------------------------------
 total:
 * wall-time:     0 d,  0 h,  0 min,  0.404 sec
 *  cpu-time:     0 d,  0 h,  0 min, 34.080 sec
 * ratio c/w:    84.305 speedup
 SCF:
 * wall-time:     0 d,  0 h,  0 min,  0.031 sec
 *  cpu-time:     0 d,  0 h,  0 min,  4.008 sec
 * ratio c/w:   128.829 speedup
 ANC optimizer:
 * wall-time:     0 d,  0 h,  0 min,  0.350 sec
 *  cpu-time:     0 d,  0 h,  0 min, 27.198 sec
 * ratio c/w:    77.785 speedup

