25
 energy: -27.780081264400 gnorm: 0.000494602678 xtb: 6.5.1 (fef0646)
N            3.18065348550119        1.00431941814641        0.34810927897602
C            2.51830930385025       -0.32114254293110        0.18899255268082
C            2.98179512700558       -0.90499691007178       -1.15064775783264
C            4.49044671788137       -0.89795553086051       -1.18104705941415
C            5.16539939305715        0.15491082704095       -1.65551022114042
C            6.65922633306002        0.25380999452149       -1.67323843009093
C            7.32424746659243       -1.08192780961609       -1.35120732839150
C            6.61960010060372       -1.74964075072570       -0.17616704719924
C            5.17973968427411       -2.07707956958735       -0.56447592278176
H            3.28821618372796        1.28616833452819        1.32613962474155
H            2.66986561824627        1.73772339843089       -0.15347348010753
H            4.12990387327905        0.86392912991880       -0.12773233314146
H            1.43531364410979       -0.21349501549313        0.22734561082953
H            2.83840380052962       -0.96670116224616        1.00734886535532
H            2.57488683400868       -0.31326999076375       -1.97175054336653
H            2.60245826945470       -1.92074172863130       -1.24631178845197
H            4.64454809596771        0.96278364970534       -2.16002401520532
H            6.97431618721985        1.01378141289917       -0.94938852961182
H            6.98125011845226        0.60761930082906       -2.65401461781367
H            8.37756427012088       -0.92362606568422       -1.12361301728051
H            7.26383635782966       -1.73626783846142       -2.22143790619051
H            6.63145422342460       -1.07977168419124        0.68729166263430
H            7.14005427377411       -2.66367060555267        0.10591781034198
H            4.62050056367952       -2.43592394033013        0.30281559230772
H            5.17854007434937       -2.88982432087365       -1.29644099984720
