 Entering Gaussian System
 *********************************************
 Gaussian 98:
 frequency output generated by the xtb code
 *********************************************
                         Standard orientation:
 --------------------------------------------------------------------
  Center     Atomic     Atomic              Coordinates (Angstroms)
  Number     Number      Type              X           Y           Z
 --------------------------------------------------------------------
    1          7             0        3.913217   -1.236139    0.925529
    2          6             0        4.255813    0.177959    0.604235
    3          6             0        3.481242    0.704971   -0.602973
    4          6             0        2.022623    0.846959   -0.342759
    5          6             0        1.382201    2.003133    0.049652
    6          6             0        0.002211    1.864901    0.218457
    7          6             0       -0.469717    0.579982   -0.038549
    8          6             0       -1.805909    0.135830    0.033306
    9          6             0       -2.926634    0.891076    0.374369
   10          6             0       -4.121478    0.166762    0.352584
   11          6             0       -3.962806   -1.149559    0.000266
   12         16             0       -2.318369   -1.495359   -0.306429
   13         16             0        0.879696   -0.430085   -0.478782
   14          1             0        4.377208   -1.562370    1.787308
   15          1             0        4.193871   -1.868232    0.160939
   16          1             0        2.895937   -1.340363    1.051232
   17          1             0        5.337153    0.252683    0.430931
   18          1             0        4.047650    0.810081    1.475945
   19          1             0        3.624455    0.028798   -1.452863
   20          1             0        3.882206    1.673868   -0.923777
   21          1             0        1.904736    2.936321    0.201808
   22          1             0       -0.640114    2.680514    0.514018
   23          1             0       -2.877308    1.939296    0.628117
   24          1             0       -5.082435    0.603178    0.590017
   25          1             0       -4.751421   -1.876195   -0.078060
 --------------------------------------------------------------------
     1 basis functions        1 primitive gaussians
     1 alpha electrons        1 beta electrons

 Harmonic frequencies (cm**-1), IR intensities (km*mol⁻¹),
 Raman scattering activities (A**4/amu), Raman depolarization ratios,
 reduced masses (AMU), force constants (mDyne/A) and normal coordinates:
                      1                      2                      3
                        a                      a                      a 
 Frequencies --    26.1571                43.5815                65.2948
 Red. masses --    12.8864                18.5632                20.7986
 Frc consts  --     0.0000                 0.0000                 0.0000
 IR Inten    --    26.2309                 4.3820                13.3337
 Raman Activ --     0.0000                 0.0000                 0.0000
 Depolar     --     0.0000                 0.0000                 0.0000
 Atom AN      X      Y      Z        X      Y      Z        X      Y      Z
   1   7    -0.49  -0.18  -0.24    -0.02  -0.15  -0.25    -0.35   0.08   0.27
   2   6    -0.19  -0.17   0.09     0.01  -0.10  -0.05    -0.12  -0.00   0.15
   3   6     0.05   0.12   0.07    -0.01   0.08   0.04     0.05  -0.04   0.03
   4   6     0.03   0.14  -0.08    -0.00   0.06   0.08     0.03  -0.01  -0.08
   5   6    -0.03   0.15  -0.22    -0.01   0.02   0.20     0.07  -0.05   0.11
   6   6    -0.02   0.10  -0.19    -0.01   0.00   0.17     0.07  -0.04   0.08
   7   6     0.04   0.04  -0.01    -0.01   0.03   0.03     0.03   0.01  -0.12
   8   6     0.06  -0.01   0.05    -0.01   0.03  -0.06     0.04   0.00  -0.05
   9   6     0.04  -0.05   0.07    -0.07   0.08  -0.38     0.06  -0.01   0.03
  10   6     0.06  -0.08   0.05    -0.05   0.05  -0.35     0.07  -0.04   0.18
  11   6     0.09  -0.06   0.01     0.02  -0.04  -0.01     0.07  -0.05   0.20
  12  16     0.17  -0.03   0.00     0.13  -0.14   0.56     0.08  -0.03   0.07
  13  16     0.16   0.06   0.29    -0.01   0.13  -0.14    -0.03   0.12  -0.68
  14   1    -0.27  -0.09  -0.00     0.00  -0.08  -0.09    -0.17   0.04   0.12
  15   1    -0.04  -0.04  -0.04    -0.02  -0.01  -0.10    -0.05  -0.02   0.12
  16   1    -0.16  -0.02  -0.23    -0.01  -0.04  -0.06    -0.11   0.06  -0.01
  17   1    -0.04  -0.08   0.08     0.00  -0.03  -0.02    -0.03  -0.04   0.08
  18   1    -0.07  -0.08   0.05     0.01  -0.06   0.01    -0.04   0.03   0.02
  19   1     0.04   0.08  -0.01    -0.01   0.06  -0.02     0.03  -0.03   0.02
  20   1     0.04   0.05   0.09    -0.00   0.04   0.05     0.03  -0.02   0.00
  21   1    -0.02   0.06  -0.10    -0.00  -0.00   0.09     0.03  -0.03   0.08
  22   1    -0.02   0.03  -0.09    -0.00  -0.01   0.08     0.03  -0.02   0.07
  23   1     0.01  -0.02   0.03    -0.04   0.04  -0.19     0.02  -0.00  -0.00
  24   1     0.02  -0.03   0.02    -0.03   0.02  -0.17     0.02  -0.02   0.07
  25   1     0.03  -0.02  -0.00     0.02  -0.02   0.03     0.02  -0.02   0.08
                      4                      5                      6
                        a                      a                      a 
 Frequencies --    89.6146               101.9059               134.9995
 Red. masses --    10.4514                15.7605                 9.1050
 Frc consts  --     0.0000                 0.0000                 0.0000
 IR Inten    --    24.2012                 7.7364                 1.4029
 Raman Activ --     0.0000                 0.0000                 0.0000
 Depolar     --     0.0000                 0.0000                 0.0000
 Atom AN      X      Y      Z        X      Y      Z        X      Y      Z
   1   7     0.40  -0.26  -0.12    -0.02   0.16  -0.14    -0.19   0.03   0.04
   2   6    -0.10  -0.02   0.33    -0.03   0.20   0.09     0.23  -0.11  -0.12
   3   6     0.03   0.05   0.27     0.09   0.22   0.02     0.05   0.17   0.12
   4   6    -0.02   0.03   0.02     0.06   0.02  -0.06     0.05   0.07   0.21
   5   6    -0.06   0.05  -0.10    -0.04  -0.07   0.02    -0.07   0.04   0.09
   6   6    -0.08   0.06  -0.25    -0.01  -0.22   0.07    -0.09  -0.03  -0.14
   7   6    -0.05   0.04  -0.23     0.08  -0.24   0.04     0.00  -0.06  -0.19
   8   6    -0.04   0.03  -0.14     0.05  -0.17   0.03    -0.00  -0.07  -0.20
   9   6    -0.02   0.02  -0.03     0.16   0.02  -0.00     0.06  -0.01  -0.10
  10   6    -0.00  -0.01   0.19     0.03   0.24  -0.04     0.03   0.04   0.14
  11   6    -0.02  -0.02   0.22    -0.19   0.21  -0.03    -0.07   0.01   0.20
  12  16    -0.09   0.00   0.01    -0.39  -0.15   0.07    -0.21  -0.11  -0.08
  13  16    -0.01   0.07  -0.17     0.29  -0.18  -0.06     0.21   0.03   0.04
  14   1     0.14  -0.10  -0.06    -0.16   0.06   0.05     0.16  -0.09  -0.14
  15   1     0.17   0.03  -0.09     0.16   0.05   0.02    -0.37  -0.00  -0.10
  16   1     0.12  -0.19  -0.03    -0.03   0.01  -0.24    -0.02   0.15   0.31
  17   1    -0.02   0.11   0.17    -0.00   0.09   0.08     0.06  -0.14  -0.14
  18   1    -0.15  -0.09   0.13    -0.07   0.03   0.03     0.22  -0.01  -0.01
  19   1     0.06   0.04   0.07     0.08   0.09  -0.00    -0.00   0.11  -0.01
  20   1     0.01   0.03   0.12    -0.00   0.09   0.04     0.00   0.07   0.09
  21   1    -0.02   0.01  -0.02    -0.04  -0.01   0.01    -0.04   0.02   0.04
  22   1    -0.03   0.02  -0.09    -0.02  -0.08   0.03    -0.05  -0.01  -0.07
  23   1    -0.00   0.01  -0.02     0.09   0.00  -0.00     0.04   0.00  -0.05
  24   1     0.01  -0.01   0.09     0.03   0.12  -0.02     0.03   0.03   0.07
  25   1    -0.00  -0.01   0.10    -0.09   0.10  -0.01    -0.03   0.01   0.10
                      7                      8                      9
                        a                      a                      a 
 Frequencies --   174.3823               224.4488               253.6931
 Red. masses --     7.9073                13.8811                14.1669
 Frc consts  --     0.0000                 0.0000                 0.0000
 IR Inten    --     6.5535                 2.1603                 7.0751
 Raman Activ --     0.0000                 0.0000                 0.0000
 Depolar     --     0.0000                 0.0000                 0.0000
 Atom AN      X      Y      Z        X      Y      Z        X      Y      Z
   1   7    -0.03  -0.06   0.06     0.14  -0.15   0.20     0.06  -0.14   0.13
   2   6    -0.20   0.01   0.15     0.23  -0.22  -0.13    -0.27  -0.07  -0.06
   3   6     0.00   0.03   0.02     0.03  -0.06   0.04    -0.13  -0.20  -0.22
   4   6    -0.03   0.07  -0.24     0.05   0.18   0.11    -0.05   0.26  -0.14
   5   6    -0.03   0.05  -0.20    -0.07   0.18  -0.07    -0.06   0.19   0.05
   6   6     0.01  -0.02   0.02    -0.09   0.10  -0.16    -0.03   0.00   0.24
   7   6     0.05  -0.06   0.13    -0.03   0.03  -0.02     0.06  -0.02   0.12
   8   6     0.07  -0.09   0.27     0.00  -0.12   0.18     0.07  -0.11  -0.16
   9   6     0.08  -0.05   0.22     0.00  -0.13   0.21     0.13  -0.01  -0.22
  10   6     0.02   0.06  -0.12    -0.06  -0.01  -0.07     0.10   0.06   0.04
  11   6    -0.03   0.09  -0.26    -0.13   0.02  -0.22    -0.00   0.00   0.20
  12  16     0.02  -0.06   0.16    -0.17  -0.17   0.14    -0.12  -0.17  -0.18
  13  16     0.04   0.04  -0.19     0.10   0.32  -0.18     0.21   0.25   0.17
  14   1     0.30  -0.12  -0.19    -0.10   0.07   0.17     0.07   0.03   0.03
  15   1    -0.31   0.06  -0.16     0.18  -0.13   0.18     0.03  -0.04   0.05
  16   1     0.04  -0.02   0.39     0.02  -0.04  -0.11     0.03  -0.12   0.08
  17   1    -0.05   0.03   0.08     0.05  -0.12  -0.12    -0.07   0.03   0.03
  18   1    -0.11  -0.02   0.05     0.17  -0.03  -0.03    -0.15  -0.01  -0.04
  19   1     0.05   0.01   0.01    -0.06  -0.02  -0.00    -0.12  -0.15  -0.00
  20   1     0.02   0.01   0.03     0.05  -0.04   0.01     0.05  -0.13  -0.16
  21   1    -0.01   0.02  -0.08    -0.05   0.07  -0.02    -0.04   0.07   0.00
  22   1     0.00  -0.02   0.03    -0.04   0.03  -0.07    -0.02  -0.02   0.10
  23   1     0.03  -0.02   0.10     0.01  -0.05   0.10     0.06   0.01  -0.10
  24   1     0.00   0.03  -0.08    -0.02   0.02  -0.05     0.04   0.04   0.03
  25   1    -0.02   0.05  -0.14    -0.05   0.03  -0.12    -0.02   0.01   0.11
                     10                     11                     12
                        a                      a                      a 
 Frequencies --   299.1742               331.1684               360.4467
 Red. masses --    13.4549                12.0813                19.6028
 Frc consts  --     0.0000                 0.0000                 0.0000
 IR Inten    --     0.7615                10.9529                 0.6934
 Raman Activ --     0.0000                 0.0000                 0.0000
 Depolar     --     0.0000                 0.0000                 0.0000
 Atom AN      X      Y      Z        X      Y      Z        X      Y      Z
   1   7     0.00  -0.00   0.02     0.10  -0.16   0.23    -0.02  -0.01  -0.01
   2   6     0.12  -0.02   0.08     0.01  -0.17  -0.12    -0.14   0.02  -0.03
   3   6     0.30   0.03  -0.03    -0.07   0.28   0.07    -0.06  -0.12  -0.12
   4   6     0.22   0.04  -0.27    -0.13   0.07  -0.19     0.03   0.13   0.10
   5   6     0.21  -0.00  -0.16    -0.22   0.02  -0.21    -0.09   0.01   0.20
   6   6     0.22  -0.02   0.15    -0.14  -0.16   0.16    -0.11  -0.18  -0.12
   7   6    -0.01   0.04   0.17     0.01  -0.19   0.18     0.02  -0.18  -0.22
   8   6    -0.14   0.10   0.02    -0.04   0.07   0.05    -0.11   0.17  -0.00
   9   6    -0.32  -0.06  -0.10    -0.05   0.13  -0.10    -0.21   0.04   0.12
  10   6    -0.28  -0.19  -0.00     0.01   0.03  -0.01    -0.15  -0.09   0.02
  11   6    -0.19  -0.21   0.10     0.11   0.00   0.13    -0.02  -0.05  -0.11
  12  16    -0.28   0.08  -0.04     0.17   0.24  -0.08     0.09   0.35   0.16
  13  16     0.17   0.13   0.03     0.06  -0.19  -0.10     0.53  -0.13  -0.04
  14   1     0.01  -0.03  -0.01     0.01   0.07   0.11     0.03   0.01  -0.02
  15   1    -0.04   0.01  -0.02     0.08  -0.12   0.14    -0.01   0.01  -0.01
  16   1    -0.00   0.03   0.02     0.03  -0.08   0.04     0.00  -0.03   0.03
  17   1     0.04  -0.02   0.06    -0.01  -0.08  -0.12    -0.03   0.03   0.03
  18   1     0.02  -0.00   0.02     0.10  -0.04  -0.02    -0.09   0.01  -0.03
  19   1     0.13   0.02  -0.01     0.05   0.23  -0.08    -0.10  -0.12   0.02
  20   1     0.10   0.01   0.02    -0.03   0.15   0.20     0.03  -0.09  -0.14
  21   1     0.05   0.01  -0.07    -0.09   0.03  -0.10    -0.07   0.02   0.11
  22   1     0.10   0.01   0.09    -0.06  -0.08   0.09    -0.08  -0.08  -0.06
  23   1    -0.14  -0.01  -0.04    -0.03   0.04  -0.05    -0.11   0.01   0.06
  24   1    -0.09  -0.07   0.00    -0.01  -0.01  -0.00    -0.06  -0.06   0.00
  25   1    -0.03  -0.09   0.04     0.05  -0.02   0.06     0.02  -0.04  -0.06
                     13                     14                     15
                        a                      a                      a 
 Frequencies --   402.0780               452.7376               503.4143
 Red. masses --    11.1736                11.1121                11.7571
 Frc consts  --     0.0000                 0.0000                 0.0000
 IR Inten    --     9.8354                 2.0645                 2.1901
 Raman Activ --     0.0000                 0.0000                 0.0000
 Depolar     --     0.0000                 0.0000                 0.0000
 Atom AN      X      Y      Z        X      Y      Z        X      Y      Z
   1   7    -0.04   0.10  -0.18     0.00  -0.05   0.06    -0.02  -0.02   0.02
   2   6     0.20   0.07   0.15    -0.21  -0.01  -0.12    -0.21   0.01  -0.12
   3   6    -0.03  -0.25   0.17    -0.03   0.14  -0.13    -0.15   0.09  -0.04
   4   6    -0.00   0.01   0.26     0.03  -0.07   0.12     0.01  -0.15   0.49
   5   6    -0.15   0.10  -0.23     0.15  -0.06   0.23     0.13   0.10  -0.16
   6   6    -0.11  -0.06  -0.02     0.07   0.11  -0.27     0.16   0.12  -0.05
   7   6     0.03  -0.16   0.33     0.05   0.05   0.01     0.17   0.00   0.36
   8   6     0.01  -0.06   0.27     0.09  -0.10   0.45     0.07   0.07  -0.11
   9   6    -0.03   0.06  -0.10    -0.01  -0.04   0.02    -0.02  -0.03  -0.19
  10   6    -0.01   0.05  -0.13    -0.07   0.05  -0.32     0.02  -0.13   0.24
  11   6     0.06  -0.04   0.23     0.00  -0.12   0.34    -0.11  -0.02  -0.21
  12  16     0.04   0.11  -0.18    -0.09   0.05  -0.20    -0.10   0.02   0.08
  13  16     0.03   0.03  -0.20     0.05  -0.01  -0.04     0.10  -0.07  -0.17
  14   1    -0.06  -0.09  -0.07     0.05   0.07   0.02     0.04   0.07   0.01
  15   1    -0.04   0.08  -0.10     0.02  -0.04   0.04     0.02  -0.03   0.03
  16   1    -0.02   0.10  -0.09     0.01  -0.08   0.06     0.01  -0.07   0.04
  17   1     0.05   0.01   0.00    -0.05   0.02   0.02    -0.06   0.03   0.01
  18   1     0.09   0.01   0.05    -0.12  -0.00  -0.05    -0.11   0.00  -0.04
  19   1    -0.10  -0.22   0.15     0.01   0.12  -0.10    -0.07   0.09  -0.06
  20   1     0.01  -0.14  -0.14    -0.03   0.08   0.06    -0.09   0.06   0.05
  21   1    -0.07   0.06  -0.13     0.07  -0.04   0.11     0.07   0.03  -0.15
  22   1    -0.05  -0.03  -0.02     0.02   0.06  -0.15     0.04   0.05  -0.07
  23   1    -0.01   0.03  -0.07    -0.01  -0.01  -0.01    -0.03   0.00  -0.09
  24   1    -0.01   0.01  -0.07    -0.03   0.04  -0.18     0.02  -0.04   0.15
  25   1     0.03  -0.02   0.10     0.01  -0.05   0.14    -0.03  -0.01  -0.07
                     16                     17                     18
                        a                      a                      a 
 Frequencies --   540.8103               565.4607               574.6300
 Red. masses --    10.6645                12.0559                13.0582
 Frc consts  --     0.0000                 0.0000                 0.0000
 IR Inten    --     0.1818                 0.5714                 0.3003
 Raman Activ --     0.0000                 0.0000                 0.0000
 Depolar     --     0.0000                 0.0000                 0.0000
 Atom AN      X      Y      Z        X      Y      Z        X      Y      Z
   1   7    -0.01   0.01  -0.01     0.01   0.02  -0.02    -0.02  -0.03   0.03
   2   6    -0.05   0.01  -0.02     0.02   0.01   0.02    -0.08  -0.01  -0.07
   3   6    -0.13   0.01   0.06    -0.17  -0.02   0.12     0.22   0.04  -0.21
   4   6    -0.04  -0.06   0.23    -0.13   0.03  -0.02     0.24  -0.14   0.38
   5   6     0.03   0.13  -0.26     0.03   0.14  -0.11    -0.07  -0.10  -0.24
   6   6     0.12   0.01   0.29     0.10   0.07   0.24    -0.03  -0.24   0.17
   7   6     0.06   0.11  -0.21     0.05   0.20  -0.49    -0.20  -0.05  -0.29
   8   6     0.03   0.11  -0.33     0.18  -0.09   0.46    -0.15  -0.07   0.18
   9   6     0.07  -0.15   0.36     0.02  -0.03  -0.24    -0.08   0.14  -0.01
  10   6    -0.04   0.04  -0.37     0.05  -0.11   0.14    -0.04   0.10   0.07
  11   6    -0.02  -0.11   0.22    -0.09  -0.06  -0.11     0.10   0.12  -0.01
  12  16    -0.07   0.04   0.04    -0.11   0.10  -0.01     0.15  -0.14  -0.07
  13  16     0.07  -0.11  -0.03     0.07  -0.19   0.02    -0.05   0.27   0.07
  14   1     0.00   0.01   0.00    -0.02  -0.01  -0.00     0.03   0.04   0.01
  15   1     0.01   0.00   0.00     0.01   0.01  -0.01    -0.01  -0.03   0.02
  16   1    -0.00  -0.01  -0.00    -0.00   0.01  -0.02     0.00  -0.03   0.05
  17   1    -0.02   0.01  -0.03    -0.01  -0.01  -0.08     0.00   0.03   0.14
  18   1     0.00   0.00  -0.00     0.08  -0.00   0.03    -0.17   0.00  -0.06
  19   1    -0.05   0.01   0.01    -0.05  -0.03   0.05     0.04   0.06  -0.09
  20   1    -0.06   0.01   0.02    -0.05  -0.02   0.01     0.04   0.04  -0.01
  21   1     0.03   0.04  -0.17     0.05   0.02  -0.03    -0.08   0.02  -0.14
  22   1     0.04  -0.02   0.16     0.03  -0.02   0.20     0.02  -0.07   0.12
  23   1     0.02  -0.07   0.24    -0.04   0.03  -0.20     0.00   0.05  -0.06
  24   1    -0.02   0.05  -0.19     0.03  -0.01   0.06    -0.03  -0.01   0.01
  25   1    -0.00  -0.04   0.07    -0.02  -0.02  -0.03     0.02   0.04  -0.00
                     19                     20                     21
                        a                      a                      a 
 Frequencies --   634.6730               699.1288               724.1647
 Red. masses --    20.8162                15.3186                15.0309
 Frc consts  --     0.0000                 0.0000                 0.0000
 IR Inten    --     0.5854                16.1498                18.0793
 Raman Activ --     0.0000                 0.0000                 0.0000
 Depolar     --     0.0000                 0.0000                 0.0000
 Atom AN      X      Y      Z        X      Y      Z        X      Y      Z
   1   7    -0.00  -0.01   0.01    -0.01   0.07  -0.03    -0.00   0.03  -0.01
   2   6     0.02  -0.01  -0.00    -0.11   0.03  -0.01    -0.01   0.01  -0.00
   3   6     0.15   0.00  -0.10    -0.35  -0.07   0.23    -0.07  -0.10   0.03
   4   6     0.09  -0.04   0.05    -0.11  -0.13  -0.10    -0.05  -0.28  -0.07
   5   6    -0.13  -0.10  -0.02     0.21  -0.09  -0.05    -0.18  -0.36  -0.07
   6   6    -0.12  -0.12  -0.01     0.29  -0.35  -0.14    -0.22   0.25   0.10
   7   6     0.09  -0.13  -0.04     0.03  -0.26  -0.06    -0.09   0.22   0.06
   8   6     0.21  -0.15  -0.07    -0.05  -0.05  -0.00     0.06  -0.21  -0.06
   9   6     0.25  -0.23  -0.09    -0.02   0.01  -0.00    -0.01  -0.29  -0.07
  10   6     0.22  -0.18  -0.07    -0.03   0.01   0.00    -0.25   0.11   0.06
  11   6    -0.11  -0.22  -0.04     0.01   0.01   0.00    -0.09   0.14   0.05
  12  16    -0.17   0.55   0.16     0.04   0.04   0.00     0.18   0.13   0.01
  13  16    -0.25   0.22   0.09     0.03   0.48   0.11     0.36   0.16  -0.01
  14   1     0.00   0.00   0.00     0.00   0.02  -0.01    -0.01  -0.00  -0.00
  15   1    -0.01  -0.01   0.01     0.04   0.05  -0.02     0.01   0.02  -0.01
  16   1    -0.00   0.00   0.01     0.00  -0.04  -0.02    -0.00  -0.00  -0.01
  17   1     0.02   0.01   0.08    -0.06  -0.02  -0.21    -0.01   0.00  -0.04
  18   1    -0.07   0.00  -0.02     0.15   0.02   0.03     0.02   0.01  -0.00
  19   1     0.04   0.02  -0.04    -0.02   0.03   0.04     0.05   0.02  -0.02
  20   1     0.04   0.01  -0.01    -0.16   0.02   0.12    -0.08   0.02   0.07
  21   1    -0.08  -0.01  -0.00     0.07  -0.04  -0.00     0.04  -0.15  -0.04
  22   1    -0.06  -0.05  -0.01     0.08  -0.11  -0.03     0.03   0.14   0.04
  23   1     0.06  -0.07  -0.02     0.01   0.00   0.00     0.09  -0.08  -0.03
  24   1     0.10   0.02  -0.01    -0.01  -0.00   0.00    -0.04   0.09   0.03
  25   1    -0.01  -0.08  -0.02     0.01  -0.00  -0.00     0.01  -0.00  -0.00
                     22                     23                     24
                        a                      a                      a 
 Frequencies --   735.5457               752.5542               820.0686
 Red. masses --    14.8832                 2.5480                 3.3002
 Frc consts  --     0.0000                 0.0000                 0.0000
 IR Inten    --     1.6132                18.1960                21.1944
 Raman Activ --     0.0000                 0.0000                 0.0000
 Depolar     --     0.0000                 0.0000                 0.0000
 Atom AN      X      Y      Z        X      Y      Z        X      Y      Z
   1   7    -0.00   0.03  -0.01     0.00   0.00  -0.01    -0.08  -0.04   0.01
   2   6    -0.01   0.00  -0.00     0.00   0.00  -0.01    -0.08   0.07   0.05
   3   6    -0.06  -0.08   0.03    -0.00   0.00   0.01     0.05   0.14  -0.00
   4   6    -0.03  -0.20  -0.05    -0.00  -0.00  -0.00     0.06   0.02  -0.03
   5   6    -0.15  -0.27  -0.05     0.00  -0.01   0.01     0.02  -0.10   0.12
   6   6    -0.15   0.12   0.05    -0.00   0.00  -0.00     0.03  -0.08   0.32
   7   6    -0.07   0.11   0.04     0.00  -0.00   0.01    -0.06   0.05  -0.07
   8   6    -0.06   0.24   0.07    -0.01   0.02  -0.05    -0.01  -0.03   0.03
   9   6     0.06   0.39   0.09     0.01  -0.01   0.05    -0.00   0.02  -0.07
  10   6     0.43  -0.18  -0.10     0.01  -0.02   0.09     0.02  -0.01  -0.00
  11   6     0.11  -0.23  -0.07     0.04  -0.09   0.34     0.01  -0.01   0.01
  12  16    -0.29  -0.11   0.01    -0.00   0.00  -0.02    -0.00   0.02   0.01
  13  16     0.25   0.16   0.00     0.00   0.00  -0.00    -0.02  -0.02  -0.04
  14   1    -0.00  -0.00  -0.00    -0.00   0.00  -0.00     0.07   0.03  -0.03
  15   1     0.00   0.01  -0.01    -0.00  -0.01   0.00     0.10   0.09  -0.03
  16   1    -0.00   0.00  -0.01     0.00   0.00   0.00     0.01  -0.24   0.02
  17   1    -0.01   0.00  -0.03     0.00   0.00   0.00    -0.03  -0.14  -0.13
  18   1     0.02   0.01  -0.00    -0.00  -0.00   0.00     0.19   0.05   0.04
  19   1     0.04   0.02  -0.02    -0.00   0.00   0.00    -0.02  -0.09   0.09
  20   1    -0.06   0.01   0.05    -0.00   0.00   0.00     0.06  -0.02  -0.14
  21   1     0.01  -0.11  -0.02     0.00  -0.00   0.00    -0.06   0.07  -0.36
  22   1     0.01   0.07   0.02    -0.00   0.00  -0.01    -0.07   0.18  -0.64
  23   1    -0.10   0.11   0.04    -0.04   0.06  -0.26     0.03  -0.02   0.10
  24   1     0.08  -0.12  -0.04    -0.03   0.06  -0.23     0.01  -0.01   0.02
  25   1    -0.03  -0.00   0.01    -0.11   0.21  -0.82    -0.01   0.01  -0.04
                     25                     26                     27
                        a                      a                      a 
 Frequencies --   822.3725               831.6183               848.7871
 Red. masses --     3.5847                 3.4493                13.7199
 Frc consts  --     0.0000                 0.0000                 0.0000
 IR Inten    --    36.3197                12.1642                25.5226
 Raman Activ --     0.0000                 0.0000                 0.0000
 Depolar     --     0.0000                 0.0000                 0.0000
 Atom AN      X      Y      Z        X      Y      Z        X      Y      Z
   1   7     0.15   0.05  -0.01     0.02  -0.00  -0.01     0.01   0.00  -0.00
   2   6     0.15  -0.12  -0.05     0.02  -0.01   0.00    -0.01  -0.01  -0.01
   3   6    -0.11  -0.22   0.00    -0.02  -0.01   0.00    -0.02   0.00   0.02
   4   6    -0.12  -0.00  -0.07    -0.02   0.00  -0.03     0.00   0.03   0.00
   5   6     0.01   0.08   0.09     0.01  -0.01   0.06     0.07   0.03  -0.00
   6   6     0.04  -0.06   0.19     0.01  -0.02   0.05     0.03   0.02  -0.00
   7   6     0.05  -0.03  -0.07    -0.00  -0.00   0.01    -0.14   0.04   0.03
   8   6     0.03   0.02   0.03    -0.01   0.02  -0.08    -0.06  -0.23  -0.05
   9   6    -0.02   0.02  -0.07     0.05  -0.10   0.40    -0.07  -0.12  -0.03
  10   6    -0.03   0.01   0.00     0.01  -0.02   0.07    -0.04   0.04   0.02
  11   6    -0.00   0.01   0.02    -0.01   0.04  -0.15     0.71   0.13  -0.06
  12  16     0.01  -0.02  -0.00    -0.01   0.01  -0.03    -0.40   0.13   0.09
  13  16     0.03   0.05  -0.01     0.00   0.01  -0.01     0.04  -0.05  -0.02
  14   1    -0.12  -0.08   0.05    -0.01  -0.01   0.01    -0.00   0.00   0.00
  15   1    -0.18  -0.15   0.05    -0.02  -0.02   0.01    -0.01  -0.01   0.01
  16   1    -0.01   0.42  -0.04    -0.00   0.05  -0.00    -0.00   0.03  -0.00
  17   1     0.05   0.24   0.20     0.00   0.03   0.01    -0.00   0.02  -0.00
  18   1    -0.29  -0.09  -0.04    -0.02  -0.01   0.00    -0.01  -0.01   0.00
  19   1     0.04   0.15  -0.15     0.00   0.01  -0.01    -0.01   0.00   0.00
  20   1    -0.09   0.04   0.23    -0.01   0.00   0.01     0.00  -0.00   0.01
  21   1    -0.02   0.07  -0.17    -0.02   0.03  -0.12     0.02   0.01  -0.00
  22   1    -0.09   0.06  -0.38    -0.02   0.03  -0.14     0.05   0.04   0.01
  23   1    -0.00  -0.03   0.13    -0.10   0.18  -0.74     0.08  -0.04  -0.01
  24   1    -0.00  -0.01   0.03    -0.03   0.06  -0.25    -0.09  -0.16  -0.03
  25   1    -0.00   0.01  -0.04     0.04  -0.07   0.27     0.34  -0.11  -0.08
                     28                     29                     30
                        a                      a                      a 
 Frequencies --   872.5169               874.4633               885.2043
 Red. masses --     3.5345                 5.4623                 3.3828
 Frc consts  --     0.0000                 0.0000                 0.0000
 IR Inten    --     1.2902                13.1696                 1.6552
 Raman Activ --     0.0000                 0.0000                 0.0000
 Depolar     --     0.0000                 0.0000                 0.0000
 Atom AN      X      Y      Z        X      Y      Z        X      Y      Z
   1   7    -0.01   0.01  -0.01    -0.03   0.29   0.05     0.00   0.00   0.00
   2   6    -0.01  -0.00  -0.02    -0.11  -0.15   0.01    -0.00  -0.00  -0.00
   3   6     0.02  -0.00   0.01     0.11  -0.40  -0.04     0.00  -0.00   0.00
   4   6     0.01  -0.01   0.04     0.04   0.04   0.03     0.00   0.00   0.00
   5   6    -0.07   0.09  -0.39    -0.05   0.13   0.05    -0.00   0.01  -0.03
   6   6     0.03  -0.05   0.23    -0.08   0.04   0.02     0.01  -0.01   0.03
   7   6     0.02  -0.01   0.00     0.12  -0.03  -0.02    -0.01   0.00  -0.00
   8   6     0.01   0.01  -0.00     0.08   0.08   0.01    -0.00  -0.01   0.01
   9   6    -0.00  -0.00   0.01    -0.02  -0.02   0.01     0.02  -0.04   0.17
  10   6    -0.00  -0.01   0.04    -0.06   0.01   0.01    -0.05   0.10  -0.40
  11   6     0.01   0.01  -0.01     0.05   0.03   0.00     0.01  -0.02   0.08
  12  16    -0.01  -0.00  -0.00    -0.04  -0.04  -0.01     0.00  -0.00   0.02
  13  16    -0.00  -0.00   0.01    -0.05  -0.04  -0.00     0.00  -0.00  -0.00
  14   1     0.02   0.03  -0.00     0.06  -0.07  -0.08     0.00   0.00   0.00
  15   1     0.01  -0.00   0.01     0.17   0.37  -0.17    -0.00  -0.00   0.00
  16   1     0.00  -0.02   0.01     0.01  -0.21  -0.07    -0.00   0.00  -0.00
  17   1    -0.00  -0.01   0.00    -0.02  -0.18  -0.04    -0.00   0.00   0.00
  18   1    -0.00  -0.00  -0.00     0.06   0.18  -0.14    -0.00  -0.00  -0.00
  19   1     0.00  -0.01   0.01     0.15   0.19  -0.22    -0.00   0.00  -0.00
  20   1    -0.00  -0.00  -0.01     0.03   0.02   0.38    -0.00   0.00   0.00
  21   1     0.12  -0.19   0.74    -0.07   0.07   0.00     0.01  -0.01   0.06
  22   1    -0.06   0.09  -0.38    -0.09  -0.04  -0.01    -0.00   0.01  -0.05
  23   1    -0.01   0.00  -0.02    -0.04   0.00  -0.02    -0.03   0.07  -0.28
  24   1    -0.02   0.02  -0.09    -0.02  -0.01  -0.00     0.11  -0.20   0.79
  25   1     0.01  -0.01   0.03     0.04  -0.01  -0.01    -0.02   0.03  -0.13
                     31                     32                     33
                        a                      a                      a 
 Frequencies --   888.1402               901.9450              1004.0021
 Red. masses --    12.3290                 6.9336                 7.1059
 Frc consts  --     0.0000                 0.0000                 0.0000
 IR Inten    --     3.7741                42.8140                34.9527
 Raman Activ --     0.0000                 0.0000                 0.0000
 Depolar     --     0.0000                 0.0000                 0.0000
 Atom AN      X      Y      Z        X      Y      Z        X      Y      Z
   1   7    -0.03  -0.17   0.07     0.03  -0.27   0.30    -0.28  -0.20  -0.11
   2   6     0.10   0.11   0.06     0.18   0.18   0.15     0.34   0.32  -0.03
   3   6    -0.02   0.13  -0.13    -0.16   0.09  -0.34     0.04  -0.20   0.00
   4   6    -0.05  -0.13  -0.02    -0.09  -0.02   0.05    -0.21  -0.11  -0.04
   5   6    -0.16  -0.13   0.00     0.06   0.08  -0.02     0.04   0.22   0.06
   6   6    -0.06   0.05   0.01     0.06  -0.02  -0.01    -0.00   0.04   0.01
   7   6     0.50  -0.12  -0.10    -0.15   0.02   0.03    -0.03  -0.04  -0.01
   8   6     0.33   0.34   0.04    -0.11  -0.12  -0.02    -0.06  -0.08  -0.01
   9   6    -0.07  -0.08  -0.01     0.02   0.03   0.01    -0.01   0.03   0.01
  10   6    -0.24   0.03   0.03     0.07  -0.01  -0.01     0.02  -0.00  -0.00
  11   6     0.16   0.12   0.01    -0.04  -0.04  -0.00     0.00  -0.01  -0.00
  12  16    -0.12  -0.18  -0.03     0.03   0.06   0.01     0.01   0.02   0.01
  13  16    -0.09   0.16   0.05     0.07  -0.01  -0.01     0.06   0.02  -0.00
  14   1    -0.04  -0.11   0.01    -0.15  -0.53  -0.01     0.13   0.26  -0.02
  15   1    -0.01  -0.01  -0.01     0.01   0.24  -0.18     0.07  -0.14   0.10
  16   1    -0.01  -0.02  -0.01    -0.03   0.00  -0.14    -0.01  -0.35   0.15
  17   1     0.03   0.00   0.03     0.05  -0.00   0.03     0.14  -0.02   0.23
  18   1     0.04   0.02   0.03     0.06   0.15  -0.04    -0.06   0.07  -0.03
  19   1    -0.00  -0.04   0.02    -0.03   0.09  -0.14     0.20   0.04  -0.03
  20   1    -0.06   0.02  -0.14    -0.14   0.08  -0.05    -0.26   0.07   0.03
  21   1    -0.00  -0.06  -0.03     0.04   0.00   0.05     0.05   0.05  -0.01
  22   1    -0.15  -0.09  -0.00     0.05   0.02  -0.01    -0.09  -0.05  -0.01
  23   1    -0.16  -0.01   0.01     0.05   0.01  -0.01     0.02   0.01  -0.00
  24   1    -0.08  -0.03   0.02     0.02   0.01  -0.01    -0.00  -0.02  -0.00
  25   1     0.13  -0.05  -0.03    -0.03   0.02   0.00    -0.01   0.01   0.01
                     34                     35                     36
                        a                      a                      a 
 Frequencies --  1027.7987              1061.9582              1077.7915
 Red. masses --     7.2130                 6.6394                 3.2290
 Frc consts  --     0.0000                 0.0000                 0.0000
 IR Inten    --    17.4045                10.8071                 3.3515
 Raman Activ --     0.0000                 0.0000                 0.0000
 Depolar     --     0.0000                 0.0000                 0.0000
 Atom AN      X      Y      Z        X      Y      Z        X      Y      Z
   1   7     0.04  -0.31   0.01     0.12   0.12  -0.11     0.01   0.03  -0.05
   2   6    -0.26   0.47  -0.15    -0.15  -0.17   0.35     0.01  -0.05   0.16
   3   6     0.14  -0.24   0.09     0.05   0.01  -0.37    -0.06  -0.03  -0.15
   4   6     0.18   0.04   0.05    -0.10  -0.16   0.07     0.00  -0.00   0.02
   5   6    -0.01   0.04   0.01     0.06   0.21   0.05    -0.05   0.01   0.01
   6   6    -0.05   0.01   0.01    -0.07   0.11   0.03     0.05  -0.06  -0.03
   7   6    -0.01   0.03   0.01     0.02  -0.08  -0.02    -0.07   0.05   0.02
   8   6     0.02   0.02   0.00    -0.07  -0.13  -0.02     0.00   0.11   0.03
   9   6     0.00  -0.02  -0.00    -0.04   0.03   0.01     0.12   0.13   0.02
  10   6     0.00   0.00   0.00     0.03  -0.01  -0.01    -0.09   0.09   0.03
  11   6     0.00   0.00   0.00     0.02   0.01  -0.00    -0.17  -0.13  -0.01
  12  16    -0.00  -0.01  -0.00     0.01   0.04   0.01    -0.00  -0.08  -0.02
  13  16    -0.03  -0.05  -0.01     0.03   0.03   0.00     0.02  -0.02  -0.01
  14   1    -0.10  -0.12   0.04    -0.01   0.11   0.03     0.02   0.07   0.00
  15   1    -0.11  -0.18   0.04    -0.04  -0.10   0.06    -0.00  -0.05   0.03
  16   1    -0.02   0.14  -0.02     0.02   0.16   0.01     0.01   0.02   0.02
  17   1    -0.13   0.18  -0.38    -0.07  -0.11  -0.15    -0.00  -0.04  -0.01
  18   1     0.14   0.08   0.04     0.24  -0.16   0.24     0.08  -0.06   0.09
  19   1     0.30  -0.00   0.03     0.33  -0.03  -0.01     0.10   0.01  -0.03
  20   1     0.02  -0.00   0.16    -0.14   0.07  -0.09    -0.12   0.04  -0.02
  21   1    -0.14   0.08   0.04     0.18  -0.02  -0.03    -0.20   0.10   0.06
  22   1    -0.02  -0.00   0.00    -0.22  -0.12   0.00     0.13   0.07  -0.00
  23   1    -0.02  -0.00   0.00    -0.02   0.01   0.01     0.13   0.04  -0.01
  24   1     0.01   0.01   0.00    -0.03  -0.09  -0.02     0.12   0.32   0.07
  25   1     0.00   0.00   0.00    -0.09   0.10   0.03     0.45  -0.55  -0.20
                     37                     38                     39
                        a                      a                      a 
 Frequencies --  1088.0715              1097.5335              1162.4163
 Red. masses --     5.1730                 3.4607                 6.1322
 Frc consts  --     0.0000                 0.0000                 0.0000
 IR Inten    --     9.1924                 2.0889                 2.4125
 Raman Activ --     0.0000                 0.0000                 0.0000
 Depolar     --     0.0000                 0.0000                 0.0000
 Atom AN      X      Y      Z        X      Y      Z        X      Y      Z
   1   7     0.01  -0.04   0.06     0.00  -0.00   0.02     0.02   0.03   0.06
   2   6    -0.06   0.05  -0.19    -0.01   0.00  -0.05    -0.03  -0.07  -0.12
   3   6     0.15   0.04   0.15     0.04   0.02   0.04     0.08   0.06   0.08
   4   6    -0.08  -0.05  -0.01    -0.03  -0.03  -0.01    -0.09  -0.15  -0.03
   5   6     0.10   0.08   0.01     0.11   0.04  -0.01     0.09   0.04  -0.00
   6   6    -0.14   0.16   0.06    -0.05  -0.07  -0.01     0.02  -0.20  -0.05
   7   6     0.10  -0.16  -0.05    -0.20   0.09   0.05    -0.20   0.34   0.11
   8   6    -0.10  -0.19  -0.04    -0.05   0.07   0.03     0.03   0.31   0.07
   9   6     0.05   0.27   0.06    -0.09  -0.25  -0.05     0.15  -0.12  -0.05
  10   6    -0.08   0.05   0.02     0.20   0.04  -0.02    -0.07  -0.06  -0.00
  11   6    -0.14  -0.10  -0.01     0.10   0.08   0.01     0.00  -0.01  -0.00
  12  16     0.04   0.01  -0.00    -0.02  -0.02  -0.00    -0.04  -0.03  -0.00
  13  16    -0.02   0.04   0.01     0.04   0.00  -0.01     0.07   0.01  -0.01
  14   1    -0.03  -0.10  -0.00    -0.00  -0.02  -0.00    -0.01  -0.06  -0.00
  15   1    -0.01   0.05  -0.04    -0.00   0.02  -0.01     0.00   0.06  -0.03
  16   1    -0.01   0.02  -0.04    -0.00   0.00  -0.01    -0.00   0.00  -0.03
  17   1    -0.02   0.04  -0.03    -0.00   0.01   0.00    -0.00   0.01   0.01
  18   1    -0.07   0.06  -0.09    -0.02   0.01  -0.02    -0.06  -0.03  -0.04
  19   1    -0.05  -0.02   0.05    -0.02  -0.01   0.02     0.08  -0.06   0.09
  20   1     0.20  -0.06   0.01     0.04  -0.01  -0.01    -0.07   0.01  -0.09
  21   1     0.48  -0.21  -0.13     0.19  -0.07  -0.05    -0.13   0.08   0.04
  22   1    -0.26  -0.13   0.01    -0.25  -0.20  -0.01    -0.38  -0.36  -0.04
  23   1     0.17   0.07  -0.00    -0.52  -0.07   0.05     0.42  -0.04  -0.07
  24   1    -0.05  -0.04  -0.00     0.30   0.50   0.08    -0.06  -0.10  -0.02
  25   1     0.20  -0.28  -0.10     0.07  -0.02  -0.02    -0.02   0.02   0.01
                     40                     41                     42
                        a                      a                      a 
 Frequencies --  1171.9378              1183.9193              1212.9246
 Red. masses --     6.5036                 5.5584                 5.8711
 Frc consts  --     0.0000                 0.0000                 0.0000
 IR Inten    --    16.0200                 2.2563                10.9886
 Raman Activ --     0.0000                 0.0000                 0.0000
 Depolar     --     0.0000                 0.0000                 0.0000
 Atom AN      X      Y      Z        X      Y      Z        X      Y      Z
   1   7     0.04   0.07   0.14     0.03  -0.01  -0.01     0.11  -0.08  -0.13
   2   6    -0.09  -0.16  -0.30    -0.05   0.03  -0.02    -0.09   0.12   0.13
   3   6     0.22   0.12   0.17     0.15   0.00  -0.03     0.14   0.04  -0.06
   4   6    -0.24  -0.27  -0.02    -0.26  -0.03   0.05    -0.40  -0.21   0.02
   5   6    -0.08   0.17   0.06    -0.12   0.12   0.05    -0.08   0.06   0.02
   6   6     0.12   0.10   0.01    -0.01  -0.02  -0.00     0.15  -0.11  -0.05
   7   6     0.07  -0.10  -0.04    -0.01  -0.22  -0.05    -0.09   0.11   0.04
   8   6    -0.01  -0.17  -0.04    -0.11   0.33   0.10     0.08  -0.02  -0.02
   9   6    -0.06   0.06   0.02    -0.07  -0.18  -0.04     0.10  -0.00  -0.01
  10   6     0.04   0.03   0.00    -0.04  -0.06  -0.01     0.03  -0.00  -0.00
  11   6    -0.01   0.01   0.01     0.18  -0.11  -0.05    -0.09   0.11   0.04
  12  16     0.02   0.02   0.00    -0.04  -0.02   0.00     0.01  -0.00  -0.00
  13  16     0.04   0.04   0.00     0.02   0.03   0.01     0.07   0.05   0.00
  14   1    -0.03  -0.15  -0.01    -0.02  -0.01   0.01    -0.04   0.05   0.03
  15   1     0.02   0.15  -0.08    -0.01  -0.02   0.00    -0.06  -0.15   0.04
  16   1    -0.00   0.02  -0.07     0.01   0.04  -0.00     0.02   0.13   0.03
  17   1    -0.01  -0.00   0.03    -0.00  -0.06   0.01     0.01  -0.28   0.10
  18   1    -0.13  -0.07  -0.09     0.02   0.04  -0.02     0.09   0.30  -0.13
  19   1     0.32  -0.16   0.23     0.10  -0.02   0.02    -0.14   0.03  -0.06
  20   1    -0.14   0.02  -0.21     0.16  -0.04   0.02     0.41  -0.10   0.11
  21   1    -0.26   0.17   0.07     0.23  -0.10  -0.06    -0.09   0.05   0.03
  22   1     0.15   0.12   0.01     0.29   0.22   0.01     0.06  -0.02  -0.01
  23   1    -0.20   0.02   0.03     0.42  -0.06  -0.07    -0.18   0.00   0.03
  24   1     0.01   0.02   0.00     0.16   0.32   0.06    -0.09  -0.19  -0.04
  25   1     0.02  -0.02  -0.01    -0.11   0.14   0.05     0.07  -0.07  -0.03
                     43                     44                     45
                        a                      a                      a 
 Frequencies --  1234.5118              1243.5879              1312.1659
 Red. masses --     5.1802                 4.0133                 6.1681
 Frc consts  --     0.0000                 0.0000                 0.0000
 IR Inten    --    11.7274                23.3171                52.9095
 Raman Activ --     0.0000                 0.0000                 0.0000
 Depolar     --     0.0000                 0.0000                 0.0000
 Atom AN      X      Y      Z        X      Y      Z        X      Y      Z
   1   7     0.12  -0.06  -0.09    -0.15   0.03   0.05     0.08   0.08   0.04
   2   6    -0.10   0.01   0.08     0.14   0.04   0.02    -0.03   0.16  -0.21
   3   6    -0.05   0.04   0.09    -0.02   0.03  -0.13    -0.22  -0.02  -0.06
   4   6     0.16  -0.10  -0.08    -0.14  -0.24  -0.01    -0.02   0.20   0.08
   5   6     0.07  -0.06  -0.03    -0.02   0.00  -0.00    -0.10  -0.12  -0.01
   6   6     0.05   0.21   0.05     0.15   0.11   0.01     0.08  -0.16  -0.06
   7   6     0.19  -0.02  -0.03     0.11   0.03  -0.01     0.02   0.22   0.05
   8   6    -0.10  -0.17  -0.03    -0.05  -0.14  -0.03     0.19  -0.15  -0.06
   9   6    -0.22   0.12   0.06    -0.13   0.09   0.04    -0.05   0.17   0.05
  10   6    -0.05   0.03   0.01    -0.03   0.02   0.01    -0.14   0.07   0.04
  11   6     0.14  -0.21  -0.07     0.08  -0.12  -0.04     0.08  -0.19  -0.06
  12  16    -0.01   0.03   0.01    -0.01   0.02   0.01    -0.01   0.01   0.00
  13  16    -0.02   0.00   0.00     0.02   0.03   0.01    -0.01  -0.01  -0.00
  14   1    -0.03   0.03   0.03     0.03   0.00  -0.03    -0.05  -0.11   0.00
  15   1    -0.05  -0.10   0.02     0.06   0.06   0.00    -0.06  -0.03   0.02
  16   1     0.02   0.14   0.01    -0.02  -0.14   0.03     0.02  -0.05  -0.03
  17   1     0.01  -0.29   0.12    -0.01   0.36  -0.16     0.08  -0.34   0.30
  18   1     0.01   0.32  -0.20     0.02  -0.28   0.21     0.04  -0.23   0.16
  19   1    -0.17   0.01  -0.00    -0.14   0.04  -0.08     0.32  -0.08   0.11
  20   1    -0.13   0.03  -0.04     0.45  -0.12   0.16     0.17  -0.05   0.12
  21   1    -0.25   0.12   0.07    -0.25   0.12   0.07     0.08  -0.10  -0.04
  22   1    -0.22  -0.12   0.00    -0.12  -0.10  -0.01     0.01  -0.06  -0.02
  23   1     0.19   0.03  -0.02     0.08   0.02  -0.00    -0.03   0.05   0.02
  24   1     0.13   0.29   0.06     0.07   0.16   0.03    -0.00   0.10   0.03
  25   1    -0.11   0.09   0.04    -0.06   0.05   0.02    -0.09   0.05   0.03
                     46                     47                     48
                        a                      a                      a 
 Frequencies --  1325.1354              1330.5707              1373.3851
 Red. masses --     7.4968                 5.0189                10.3023
 Frc consts  --     0.0000                 0.0000                 0.0000
 IR Inten    --     0.4251                 3.7652                 6.2177
 Raman Activ --     0.0000                 0.0000                 0.0000
 Depolar     --     0.0000                 0.0000                 0.0000
 Atom AN      X      Y      Z        X      Y      Z        X      Y      Z
   1   7     0.08   0.09   0.03     0.05   0.04   0.05    -0.02  -0.06   0.04
   2   6    -0.06   0.19  -0.18    -0.16   0.16  -0.09    -0.02   0.01  -0.01
   3   6    -0.15  -0.00   0.01     0.43  -0.16   0.10     0.07  -0.06  -0.00
   4   6     0.15  -0.13  -0.06    -0.15  -0.01  -0.04    -0.04   0.20   0.05
   5   6     0.17   0.02  -0.02    -0.05   0.03   0.02    -0.42  -0.15   0.03
   6   6    -0.09   0.24   0.07     0.02  -0.08  -0.02     0.45   0.07  -0.05
   7   6     0.02  -0.25  -0.06    -0.00   0.07   0.02     0.16   0.11   0.00
   8   6    -0.27   0.16   0.08     0.09  -0.05  -0.02    -0.18  -0.05   0.01
   9   6     0.02  -0.20  -0.05     0.00   0.07   0.02    -0.33  -0.14   0.01
  10   6     0.20  -0.09  -0.05    -0.08   0.02   0.02     0.35   0.04  -0.04
  11   6    -0.11   0.24   0.08     0.04  -0.08  -0.02    -0.13   0.16   0.06
  12  16     0.02  -0.01  -0.00    -0.01   0.00   0.00     0.02  -0.01  -0.00
  13  16     0.00   0.01   0.00     0.01   0.01  -0.00    -0.01  -0.02  -0.00
  14   1    -0.08  -0.12   0.01    -0.03  -0.05   0.01     0.09   0.08  -0.01
  15   1    -0.06  -0.04   0.02    -0.05   0.00  -0.00     0.02   0.05  -0.04
  16   1     0.02  -0.06  -0.00     0.01  -0.01  -0.04    -0.02   0.08  -0.07
  17   1     0.06  -0.30   0.25    -0.01  -0.12   0.04    -0.00   0.00   0.00
  18   1     0.07  -0.26   0.21     0.12  -0.30   0.27     0.02  -0.02   0.01
  19   1    -0.07  -0.01  -0.00    -0.47   0.17  -0.24     0.05   0.02  -0.02
  20   1     0.11  -0.03   0.09    -0.31   0.09  -0.12    -0.08   0.02  -0.03
  21   1    -0.14   0.11   0.05     0.03  -0.01  -0.02     0.06  -0.14  -0.05
  22   1    -0.07   0.04   0.02     0.05   0.01  -0.01    -0.08  -0.15  -0.03
  23   1     0.06  -0.06  -0.03    -0.03   0.02   0.01     0.15  -0.05  -0.03
  24   1     0.02  -0.12  -0.03    -0.01   0.04   0.01     0.05  -0.10  -0.03
  25   1     0.11  -0.07  -0.03    -0.04   0.03   0.01     0.10  -0.09  -0.04
                     49                     50                     51
                        a                      a                      a 
 Frequencies --  1382.7645              1415.6409              1422.6667
 Red. masses --     3.1399                11.2638                 1.7471
 Frc consts  --     0.0000                 0.0000                 0.0000
 IR Inten    --   159.5345                26.1031                67.1108
 Raman Activ --     0.0000                 0.0000                 0.0000
 Depolar     --     0.0000                 0.0000                 0.0000
 Atom AN      X      Y      Z        X      Y      Z        X      Y      Z
   1   7     0.11   0.30  -0.16    -0.00   0.00   0.00     0.01   0.16   0.15
   2   6     0.03  -0.06   0.07    -0.00   0.00  -0.00     0.02  -0.01   0.07
   3   6     0.06   0.00   0.00     0.00  -0.02   0.00    -0.00   0.01  -0.01
   4   6    -0.02   0.04   0.01     0.03   0.08   0.02    -0.01  -0.01   0.00
   5   6    -0.09  -0.02   0.01    -0.23  -0.07   0.02     0.02   0.00  -0.00
   6   6     0.08  -0.01  -0.01     0.29   0.16  -0.00    -0.01   0.01   0.00
   7   6     0.04   0.04   0.01     0.01  -0.04  -0.01     0.01  -0.01  -0.00
   8   6    -0.03  -0.02  -0.00    -0.30  -0.04   0.03     0.00   0.00   0.00
   9   6    -0.06  -0.01   0.01     0.52   0.13  -0.04    -0.01   0.00   0.00
  10   6     0.06  -0.00  -0.01    -0.35  -0.45  -0.07     0.00  -0.01  -0.00
  11   6    -0.02   0.03   0.01     0.09   0.18   0.03    -0.00   0.01   0.00
  12  16     0.00  -0.00  -0.00    -0.01   0.03   0.01     0.00  -0.00  -0.00
  13  16    -0.00  -0.01  -0.00     0.00  -0.02  -0.00    -0.00   0.00  -0.00
  14   1    -0.43  -0.38   0.07     0.01   0.00  -0.00     0.40  -0.11  -0.24
  15   1    -0.14  -0.28   0.18    -0.00  -0.00   0.00    -0.35  -0.34   0.17
  16   1     0.11  -0.46   0.30    -0.00   0.00  -0.01    -0.06  -0.23  -0.61
  17   1    -0.03   0.08  -0.13    -0.00  -0.00  -0.00    -0.01  -0.01  -0.06
  18   1    -0.08   0.08  -0.08    -0.00  -0.00  -0.00    -0.05   0.07  -0.05
  19   1    -0.00  -0.01   0.01     0.03   0.01  -0.00    -0.01   0.01  -0.01
  20   1    -0.06   0.02  -0.02    -0.02   0.00  -0.01     0.01  -0.00  -0.01
  21   1     0.02  -0.03  -0.01     0.00  -0.06  -0.02    -0.01   0.01   0.00
  22   1    -0.01  -0.03  -0.01    -0.07  -0.08  -0.01     0.00   0.01   0.00
  23   1     0.02  -0.01  -0.00    -0.12   0.04   0.03     0.00   0.00  -0.00
  24   1     0.01  -0.01  -0.00     0.04   0.16   0.03     0.00   0.00  -0.00
  25   1     0.02  -0.01  -0.01    -0.01   0.09   0.02     0.00   0.00  -0.00
                     52                     53                     54
                        a                      a                      a 
 Frequencies --  1432.5429              1435.3665              1464.1443
 Red. masses --    11.0349                 1.9329                 2.0023
 Frc consts  --     0.0000                 0.0000                 0.0000
 IR Inten    --    65.4802                92.9019                24.7154
 Raman Activ --     0.0000                 0.0000                 0.0000
 Depolar     --     0.0000                 0.0000                 0.0000
 Atom AN      X      Y      Z        X      Y      Z        X      Y      Z
   1   7     0.03  -0.02   0.01     0.18  -0.09   0.05    -0.02   0.03  -0.02
   2   6     0.01  -0.02   0.01     0.03  -0.01   0.02     0.00   0.01   0.03
   3   6     0.05  -0.01  -0.01    -0.05  -0.00   0.03    -0.13  -0.07   0.23
   4   6    -0.22   0.12   0.07     0.03  -0.02  -0.01    -0.00   0.02   0.02
   5   6     0.29  -0.11  -0.07    -0.03   0.01   0.01     0.03  -0.04  -0.01
   6   6    -0.33  -0.26  -0.02     0.05   0.05   0.01     0.00   0.03   0.01
   7   6     0.40   0.29   0.02    -0.07  -0.06  -0.01    -0.01  -0.02  -0.00
   8   6    -0.16  -0.15  -0.02     0.03   0.03   0.00    -0.02   0.02   0.01
   9   6    -0.13   0.10   0.04     0.03  -0.02  -0.01     0.03  -0.02  -0.01
  10   6     0.05  -0.37  -0.10    -0.01   0.06   0.02    -0.00   0.05   0.01
  11   6    -0.04   0.31   0.08     0.01  -0.05  -0.01     0.01  -0.04  -0.01
  12  16    -0.00  -0.00  -0.00     0.00   0.00  -0.00     0.00   0.00  -0.00
  13  16    -0.01   0.01   0.01     0.00  -0.00  -0.00     0.00   0.00   0.00
  14   1    -0.04   0.08   0.05    -0.26   0.41   0.31     0.03  -0.07  -0.04
  15   1    -0.08   0.04  -0.07    -0.56   0.18  -0.36     0.10  -0.03   0.07
  16   1     0.00  -0.03  -0.02     0.03  -0.27  -0.15     0.00   0.04   0.05
  17   1     0.00   0.04   0.01     0.01   0.05  -0.01    -0.01  -0.06  -0.04
  18   1     0.03   0.01  -0.00     0.00   0.00  -0.00    -0.05  -0.01   0.00
  19   1     0.07   0.04  -0.02     0.04   0.08  -0.05     0.27   0.51  -0.35
  20   1     0.02  -0.02  -0.05     0.04  -0.05  -0.08     0.17  -0.27  -0.57
  21   1    -0.05   0.03   0.02    -0.00  -0.00   0.00    -0.03   0.01   0.01
  22   1     0.09   0.06   0.01    -0.02  -0.01   0.00    -0.02  -0.00   0.00
  23   1     0.10   0.02  -0.01    -0.02  -0.00   0.00    -0.02  -0.01   0.00
  24   1     0.12   0.09   0.01    -0.02  -0.02  -0.00    -0.01  -0.01  -0.00
  25   1     0.07   0.01  -0.01    -0.01  -0.00   0.00    -0.01  -0.00  -0.00
                     55                     56                     57
                        a                      a                      a 
 Frequencies --  1476.4994              1487.6131              1523.6124
 Red. masses --     2.3637                10.7656                11.4433
 Frc consts  --     0.0000                 0.0000                 0.0000
 IR Inten    --    21.8824                 9.8971                22.2999
 Raman Activ --     0.0000                 0.0000                 0.0000
 Depolar     --     0.0000                 0.0000                 0.0000
 Atom AN      X      Y      Z        X      Y      Z        X      Y      Z
   1   7     0.01  -0.02   0.01    -0.00   0.00  -0.00    -0.00   0.00  -0.00
   2   6     0.17   0.15   0.13    -0.05  -0.02  -0.04     0.01  -0.00   0.01
   3   6    -0.02   0.01  -0.01    -0.13   0.02   0.06     0.10  -0.02  -0.03
   4   6     0.07  -0.08  -0.03     0.33  -0.30  -0.13    -0.28   0.29   0.12
   5   6    -0.05   0.08   0.03    -0.23   0.31   0.11     0.24  -0.30  -0.11
   6   6    -0.01  -0.05  -0.01     0.02  -0.09  -0.02     0.10   0.26   0.05
   7   6    -0.01   0.03   0.01    -0.18   0.02   0.03    -0.36  -0.31  -0.03
   8   6     0.07  -0.02  -0.01     0.36  -0.07  -0.07     0.42   0.02  -0.05
   9   6    -0.05   0.04   0.02    -0.23   0.16   0.07    -0.16   0.11   0.05
  10   6     0.00  -0.09  -0.02     0.01  -0.35  -0.09    -0.01  -0.21  -0.05
  11   6    -0.01   0.07   0.02    -0.05   0.28   0.08    -0.04   0.16   0.05
  12  16    -0.00  -0.00  -0.00    -0.01  -0.01  -0.00    -0.00  -0.01  -0.00
  13  16    -0.00   0.00   0.00    -0.00  -0.01  -0.00     0.01   0.01  -0.00
  14   1    -0.00   0.05   0.02     0.00  -0.01  -0.01    -0.00  -0.00   0.00
  15   1     0.02   0.06  -0.04    -0.00  -0.02   0.01     0.01   0.00   0.00
  16   1     0.00   0.06   0.00     0.00  -0.02   0.00     0.00   0.00   0.01
  17   1    -0.04  -0.45  -0.48     0.01   0.09   0.12    -0.00  -0.00  -0.03
  18   1    -0.62  -0.19   0.00     0.14   0.04   0.00    -0.02  -0.00  -0.00
  19   1    -0.05  -0.03   0.02    -0.04   0.06  -0.04     0.05  -0.01   0.01
  20   1     0.01   0.01   0.04     0.04  -0.04  -0.05    -0.02   0.02   0.00
  21   1     0.03  -0.00  -0.00     0.13  -0.00  -0.02    -0.12   0.01   0.02
  22   1     0.02   0.01  -0.00     0.05   0.01  -0.00    -0.13  -0.04   0.01
  23   1     0.03   0.01  -0.00     0.13   0.04  -0.00     0.09   0.03  -0.00
  24   1     0.03   0.02   0.00     0.09   0.08   0.01     0.05   0.04   0.00
  25   1     0.01   0.00  -0.00     0.05   0.02  -0.00     0.03   0.01  -0.00
                     58                     59                     60
                        a                      a                      a 
 Frequencies --  2945.0306              2950.5831              2967.2273
 Red. masses --     1.9484                 1.9187                 1.5338
 Frc consts  --     0.0000                 0.0000                 0.0000
 IR Inten    --     5.4495                 5.2024                24.6712
 Raman Activ --     0.0000                 0.0000                 0.0000
 Depolar     --     0.0000                 0.0000                 0.0000
 Atom AN      X      Y      Z        X      Y      Z        X      Y      Z
   1   7     0.00   0.00   0.00     0.00  -0.00  -0.00    -0.00   0.00  -0.00
   2   6    -0.03   0.02   0.04    -0.24   0.06   0.13    -0.07  -0.01   0.01
   3   6    -0.05  -0.27  -0.08     0.02   0.05  -0.03    -0.08  -0.04   0.19
   4   6    -0.00  -0.01  -0.00     0.00   0.00  -0.00    -0.01   0.00   0.00
   5   6     0.00   0.00  -0.00    -0.00  -0.00  -0.00     0.00   0.00  -0.00
   6   6    -0.00  -0.00   0.00    -0.00   0.00   0.00     0.00  -0.00  -0.00
   7   6    -0.00  -0.00   0.00     0.00  -0.00  -0.00     0.00   0.00  -0.00
   8   6     0.00  -0.00  -0.00    -0.00   0.00   0.00    -0.00  -0.00   0.00
   9   6    -0.00   0.00   0.00     0.00  -0.00  -0.00     0.00  -0.00  -0.00
  10   6    -0.00   0.00   0.00     0.00  -0.00  -0.00     0.00  -0.00  -0.00
  11   6     0.00  -0.00   0.00    -0.00  -0.00  -0.00     0.00   0.00   0.00
  12  16     0.00   0.00  -0.00     0.00   0.00  -0.00     0.00   0.00   0.00
  13  16     0.00   0.00   0.00    -0.00   0.00  -0.00     0.00   0.00   0.00
  14   1    -0.00   0.00  -0.00     0.00  -0.00  -0.00     0.00  -0.00   0.00
  15   1    -0.00   0.00   0.00    -0.00   0.01   0.01     0.00  -0.01  -0.00
  16   1    -0.00  -0.00  -0.00    -0.02  -0.00   0.00    -0.01  -0.00   0.00
  17   1     0.06   0.01  -0.00     0.79   0.06  -0.13     0.27   0.02  -0.05
  18   1     0.04  -0.12  -0.16     0.06  -0.25  -0.35    -0.02   0.02   0.03
  19   1    -0.09   0.38   0.50    -0.00   0.05   0.05     0.08  -0.45  -0.52
  20   1     0.25   0.60  -0.21    -0.09  -0.24   0.07     0.22   0.57  -0.15
  21   1    -0.00  -0.01  -0.00     0.00   0.00   0.00    -0.00  -0.00  -0.00
  22   1    -0.00   0.00  -0.00     0.00  -0.00  -0.00    -0.00   0.00   0.00
  23   1    -0.00  -0.00  -0.00    -0.00   0.00   0.00     0.00   0.00   0.00
  24   1     0.00  -0.00  -0.00    -0.00  -0.00  -0.00    -0.00   0.00   0.00
  25   1    -0.00   0.00   0.00     0.00   0.00  -0.00    -0.00  -0.00   0.00
                     61                     62                     63
                        a                      a                      a 
 Frequencies --  2978.5945              3069.4010              3080.9411
 Red. masses --     1.5805                 1.8315                 1.8231
 Frc consts  --     0.0000                 0.0000                 0.0000
 IR Inten    --     7.0361                 7.6720                13.5175
 Raman Activ --     0.0000                 0.0000                 0.0000
 Depolar     --     0.0000                 0.0000                 0.0000
 Atom AN      X      Y      Z        X      Y      Z        X      Y      Z
   1   7    -0.00   0.00  -0.00    -0.00   0.00  -0.00    -0.00   0.00   0.00
   2   6     0.07   0.14   0.16     0.00  -0.00  -0.00     0.00  -0.00  -0.00
   3   6    -0.00   0.04   0.05    -0.00  -0.00  -0.00    -0.00  -0.00   0.00
   4   6    -0.00   0.00   0.00     0.00   0.00  -0.00    -0.01   0.00   0.00
   5   6    -0.00  -0.00  -0.00     0.00   0.00   0.00    -0.12  -0.22  -0.04
   6   6    -0.00   0.00   0.00     0.01  -0.01  -0.00    -0.06   0.08   0.03
   7   6    -0.00  -0.00   0.00     0.00   0.00  -0.00    -0.00   0.00   0.00
   8   6     0.00   0.00   0.00     0.00   0.00   0.00    -0.00  -0.00   0.00
   9   6     0.00  -0.00  -0.00     0.00   0.06   0.01    -0.00  -0.03  -0.01
  10   6     0.00  -0.00  -0.00     0.24  -0.11  -0.06     0.01  -0.01  -0.00
  11   6    -0.00  -0.00  -0.00    -0.01  -0.01  -0.00    -0.00  -0.00  -0.00
  12  16    -0.00  -0.00  -0.00    -0.00  -0.00   0.00    -0.00   0.00   0.00
  13  16    -0.00  -0.00   0.00    -0.00   0.00   0.00     0.00   0.00   0.00
  14   1     0.00   0.00   0.00     0.00  -0.00   0.00     0.00  -0.00   0.00
  15   1    -0.01   0.01   0.02     0.00  -0.00  -0.00     0.00  -0.00  -0.00
  16   1     0.02   0.00  -0.00     0.00   0.00  -0.00     0.00   0.00  -0.00
  17   1    -0.43  -0.01   0.10    -0.00  -0.00   0.00     0.00   0.00  -0.00
  18   1     0.19  -0.48  -0.66    -0.00   0.00   0.00    -0.00   0.00   0.00
  19   1     0.03  -0.14  -0.17    -0.00   0.00   0.00    -0.00   0.00   0.00
  20   1     0.00   0.01   0.01    -0.00  -0.00   0.00     0.00   0.01  -0.00
  21   1     0.00   0.00   0.00    -0.01  -0.02  -0.00     0.42   0.76   0.12
  22   1     0.00  -0.00  -0.00    -0.02   0.03   0.01     0.22  -0.28  -0.10
  23   1    -0.00  -0.00   0.00    -0.01  -0.22  -0.05     0.00   0.09   0.02
  24   1    -0.00  -0.00  -0.00    -0.83   0.38   0.20    -0.05   0.02   0.01
  25   1     0.00   0.00  -0.00     0.06   0.06   0.01     0.01   0.00   0.00
                     64                     65                     66
                        a                      a                      a 
 Frequencies --  3090.5801              3097.2155              3130.3075
 Red. masses --     1.8892                 1.8851                 1.8843
 Frc consts  --     0.0000                 0.0000                 0.0000
 IR Inten    --     2.2011                 8.8251                 0.7656
 Raman Activ --     0.0000                 0.0000                 0.0000
 Depolar     --     0.0000                 0.0000                 0.0000
 Atom AN      X      Y      Z        X      Y      Z        X      Y      Z
   1   7     0.00  -0.00  -0.00     0.00  -0.00  -0.00    -0.00   0.00  -0.00
   2   6     0.00   0.00  -0.00    -0.00   0.00   0.00    -0.00   0.00   0.00
   3   6    -0.00   0.00   0.00    -0.00   0.00   0.00     0.00   0.00  -0.00
   4   6     0.00  -0.00  -0.00     0.00  -0.00  -0.00    -0.00  -0.00  -0.00
   5   6     0.04   0.06   0.01     0.05   0.08   0.01     0.00   0.00   0.00
   6   6    -0.06   0.08   0.03    -0.14   0.18   0.07     0.00  -0.00  -0.00
   7   6    -0.00  -0.00  -0.00    -0.01  -0.00   0.00    -0.00   0.00   0.00
   8   6    -0.01  -0.00   0.00     0.00   0.00  -0.00    -0.00  -0.00  -0.00
   9   6    -0.01  -0.24  -0.06     0.01   0.11   0.03    -0.00  -0.01  -0.00
  10   6     0.06  -0.03  -0.01    -0.02   0.01   0.01     0.03  -0.02  -0.01
  11   6    -0.01  -0.01  -0.00     0.00   0.00   0.00     0.20   0.20   0.02
  12  16    -0.00   0.00   0.00     0.00  -0.00  -0.00    -0.00   0.00   0.00
  13  16     0.00  -0.00  -0.00     0.00  -0.00  -0.00     0.00   0.00   0.00
  14   1    -0.00   0.00  -0.00    -0.00   0.00  -0.00     0.00  -0.00   0.00
  15   1    -0.00   0.00   0.00    -0.00   0.00   0.00    -0.00  -0.00  -0.00
  16   1    -0.00  -0.00   0.00    -0.00  -0.00   0.00     0.00  -0.00  -0.00
  17   1    -0.00  -0.00   0.00     0.00  -0.00  -0.00    -0.00  -0.00  -0.00
  18   1    -0.00   0.00  -0.00    -0.00   0.00  -0.00     0.00  -0.00  -0.00
  19   1    -0.00  -0.00  -0.00     0.00  -0.00  -0.00    -0.00   0.00   0.00
  20   1    -0.00  -0.00   0.00    -0.00  -0.00   0.00    -0.00  -0.00   0.00
  21   1    -0.12  -0.21  -0.03    -0.14  -0.25  -0.04    -0.00  -0.00  -0.00
  22   1     0.21  -0.26  -0.09     0.49  -0.62  -0.22    -0.00   0.00   0.00
  23   1     0.04   0.81   0.20    -0.02  -0.39  -0.09     0.00   0.03   0.01
  24   1    -0.18   0.08   0.05     0.06  -0.03  -0.02    -0.08   0.04   0.02
  25   1     0.03   0.03   0.00    -0.02  -0.01  -0.00    -0.69  -0.65  -0.07
                     67                     68                     69
                        a                      a                      a 
 Frequencies --  3177.7786              3203.8147              3221.3245
 Red. masses --     1.9756                 2.0076                 1.3870
 Frc consts  --     0.0000                 0.0000                 0.0000
 IR Inten    --   218.9267                77.4954                27.9260
 Raman Activ --     0.0000                 0.0000                 0.0000
 Depolar     --     0.0000                 0.0000                 0.0000
 Atom AN      X      Y      Z        X      Y      Z        X      Y      Z
   1   7    -0.27   0.03   0.03     0.05   0.01   0.27    -0.04   0.16   0.04
   2   6    -0.01  -0.00   0.00     0.00   0.00   0.01     0.00   0.01   0.00
   3   6     0.00  -0.00  -0.00    -0.00   0.00  -0.00     0.00  -0.00  -0.00
   4   6     0.00   0.00   0.00    -0.00   0.00   0.00    -0.00  -0.00   0.00
   5   6     0.00   0.00   0.00     0.00   0.00  -0.00    -0.00   0.00   0.00
   6   6    -0.00  -0.00   0.00     0.00  -0.00  -0.00     0.00   0.00   0.00
   7   6    -0.00   0.00   0.00    -0.00  -0.00   0.00     0.00  -0.00  -0.00
   8   6     0.00  -0.00   0.00     0.00   0.00   0.00     0.00  -0.00  -0.00
   9   6    -0.00   0.00  -0.00    -0.00  -0.00  -0.00    -0.00   0.00   0.00
  10   6    -0.00   0.00   0.00     0.00  -0.00  -0.00    -0.00   0.00   0.00
  11   6     0.00  -0.00  -0.00     0.00   0.00   0.00     0.00  -0.00   0.00
  12  16    -0.00  -0.00  -0.00    -0.00  -0.00  -0.00    -0.00  -0.00  -0.00
  13  16     0.00  -0.00   0.00    -0.00  -0.00  -0.00    -0.00   0.00  -0.00
  14   1     0.06  -0.05   0.16    -0.38   0.25  -0.68     0.22  -0.13   0.41
  15   1     0.03  -0.12  -0.15     0.15  -0.31  -0.36     0.23  -0.47  -0.61
  16   1     0.91   0.09  -0.13     0.06   0.01   0.02    -0.28  -0.01   0.04
  17   1     0.02   0.00  -0.01    -0.00  -0.00  -0.00    -0.01  -0.00   0.00
  18   1     0.00  -0.00  -0.00     0.00  -0.01  -0.01     0.01  -0.01  -0.02
  19   1    -0.00   0.00   0.00    -0.00  -0.00  -0.00    -0.00   0.00   0.00
  20   1    -0.00   0.00  -0.00     0.00  -0.00   0.00    -0.00  -0.01   0.00
  21   1    -0.00  -0.01  -0.00    -0.00  -0.00  -0.00    -0.00  -0.00  -0.00
  22   1     0.00  -0.00  -0.00    -0.00   0.00  -0.00     0.00  -0.00  -0.00
  23   1    -0.00   0.00   0.00     0.00   0.00  -0.00    -0.00  -0.00  -0.00
  24   1     0.00  -0.00  -0.00    -0.00   0.00  -0.00     0.00  -0.00  -0.00
  25   1     0.00   0.00  -0.00    -0.00  -0.00  -0.00     0.00   0.00   0.00
