27
 energy: -28.822138413166 gnorm: 0.000257974886 xtb: 6.5.1 (fef0646)
N            0.94531749868339        2.13527375985685        0.16364851297956
C            2.44323378864710        2.13185862864108        0.23447666942401
C            3.00897456405268        1.06485631915293       -0.68964553605687
C            4.54822906870590        1.06232075412432       -0.71113057239891
C            5.04237978094375        0.16116360327372       -1.84678019149890
C            6.56684288407959        0.15611512911589       -1.91193748967684
C            7.15502227317543       -0.31508551208326       -0.58702470098308
C            6.66828285612712        0.57587406814205        0.54981909631907
C            5.14204532994516        0.58394112736074        0.61542124116188
H            0.53846216336509        2.84633017757702        0.78426313923927
H            0.58540894660254        1.21060803922536        0.43551663057671
H            0.64394698061460        2.32368520434965       -0.80195201370186
H            2.73396173124073        1.94321150889839        1.26760309167955
H            2.80405384536560        3.11869960397785       -0.05814308477735
H            2.65482809808327        1.24428544595101       -1.70769950836480
H            2.66431897385636        0.07720133794597       -0.37623554149157
H            4.89556736081014        2.08248372481280       -0.90491892778224
H            4.63607626659076        0.50757113459756       -2.79938554020762
H            4.68581733234752       -0.85725442276907       -1.67891540215612
H            6.92460115515212        1.16404093993687       -2.13160345895842
H            6.89388164677844       -0.49790537667136       -2.72050269432445
H            8.24366316439827       -0.29180679008114       -0.63476057660366
H            6.85049889910633       -1.34654577487860       -0.39860288373628
H            7.02817937953513        1.59478697265847        0.39267806854706
H            7.07025809640510        0.22287195346330        1.50008935426847
H            4.82839424806434        1.23219986639315        1.43655976896642
H            4.78786366732356       -0.42785142297142        0.82471254955704
