      -----------------------------------------------------------      
     |                   =====================                   |     
     |                           x T B                           |     
     |                   =====================                   |     
     |                         S. Grimme                         |     
     |          Mulliken Center for Theoretical Chemistry        |     
     |                    University of Bonn                     |     
      -----------------------------------------------------------      

   * xtb version 6.5.1 (fef0646) compiled by 'conda@b96dff2e9fd6' on 2023-01-04

   xtb is free software: you can redistribute it and/or modify it under
   the terms of the GNU Lesser General Public License as published by
   the Free Software Foundation, either version 3 of the License, or
   (at your option) any later version.
   
   xtb is distributed in the hope that it will be useful,
   but WITHOUT ANY WARRANTY; without even the implied warranty of
   MERCHANTABILITY or FITNESS FOR A PARTICULAR PURPOSE.  See the
   GNU Lesser General Public License for more details.
   
   Cite this work as:
   * C. Bannwarth, E. Caldeweyher, S. Ehlert, A. Hansen, P. Pracht,
     J. Seibert, S. Spicher, S. Grimme, WIREs Comput. Mol. Sci., 2020, 11,
     e01493. DOI: 10.1002/wcms.1493
   
   for GFN2-xTB:
   * C. Bannwarth, S. Ehlert and S. Grimme., J. Chem. Theory Comput., 2019,
     15, 1652-1671. DOI: 10.1021/acs.jctc.8b01176
   for GFN1-xTB:
   * S. Grimme, C. Bannwarth, P. Shushkov, J. Chem. Theory Comput., 2017,
     13, 1989-2009. DOI: 10.1021/acs.jctc.7b00118
   for GFN0-xTB:
   * P. Pracht, E. Caldeweyher, S. Ehlert, S. Grimme, ChemRxiv, 2019, preprint.
     DOI: 10.26434/chemrxiv.8326202.v1
   for GFN-FF:
   * S. Spicher and S. Grimme, Angew. Chem. Int. Ed., 2020, 59, 15665-15673.
     DOI: 10.1002/anie.202004239
   
   for ALPB and GBSA implicit solvation:
   * S. Ehlert, M. Stahn, S. Spicher, S. Grimme, J. Chem. Theory Comput.,
     2021, 17, 4250-4261. DOI: 10.1021/acs.jctc.1c00471
   
   for DFT-D4:
   * E. Caldeweyher, C. Bannwarth and S. Grimme, J. Chem. Phys., 2017,
     147, 034112. DOI: 10.1063/1.4993215
   * E. Caldeweyher, S. Ehlert, A. Hansen, H. Neugebauer, S. Spicher,
     C. Bannwarth and S. Grimme, J. Chem. Phys., 2019, 150, 154122.
     DOI: 10.1063/1.5090222
   * E. Caldeweyher, J.-M. Mewes, S. Ehlert and S. Grimme, Phys. Chem. Chem. Phys.
     2020, 22, 8499-8512. DOI: 10.1039/D0CP00502A
   
   for sTDA-xTB:
   * S. Grimme and C. Bannwarth, J. Chem. Phys., 2016, 145, 054103.
     DOI: 10.1063/1.4959605
   
   in the mass-spec context:
   * V. Asgeirsson, C. Bauer and S. Grimme, Chem. Sci., 2017, 8, 4879.
     DOI: 10.1039/c7sc00601b
   * J. Koopman and S. Grimme, ACS Omega 2019, 4, 12, 15120-15133.
     DOI: 10.1021/acsomega.9b02011
   
   for metadynamics refer to:
   * S. Grimme, J. Chem. Theory Comput., 2019, 155, 2847-2862
     DOI: 10.1021/acs.jctc.9b00143
   
   for SPH calculations refer to:
   * S. Spicher and S. Grimme, J. Chem. Theory Comput., 2021, 17, 1701-1714
     DOI: 10.1021/acs.jctc.0c01306
   
   with help from (in alphabetical order)
   P. Atkinson, C. Bannwarth, F. Bohle, G. Brandenburg, E. Caldeweyher
   M. Checinski, S. Dohm, S. Ehlert, S. Ehrlich, I. Gerasimov, C. Hölzer
   A. Katbashev, J. Koopman, C. Lavigne, S. Lehtola, F. März, M. Müller,
   F. Musil, H. Neugebauer, J. Pisarek, C. Plett, P. Pracht, F. Pultar,
   J. Seibert, P. Shushkov, S. Spicher, M. Stahn, M. Steiner, T. Strunk,
   J. Stückrath, T. Rose, and J. Unsleber
   
 * started run on 2023/01/23 at 13:44:09.508     

           -------------------------------------------------
          |                Calculation Setup                |
           -------------------------------------------------

          program call               : xtb init.xyz --opt -c 1 -u 0 -P 16
          hostname                   : gpg-woodward
          coordinate file            : init.xyz
          omp threads                :                    16

   ID    Z sym.   atoms
    1    7 N      1
    2    6 C      2-12
    3    1 H      13-24

           -------------------------------------------------
          |                 G F N 2 - x T B                 |
           -------------------------------------------------

        Reference                      10.1021/acs.jctc.8b01176
      * Hamiltonian:
        H0-scaling (s, p, d)           1.850000    2.230000    2.230000
        zeta-weighting                 0.500000
      * Dispersion:
        s8                             2.700000
        a1                             0.520000
        a2                             5.000000
        s9                             5.000000
      * Repulsion:
        kExp                           1.500000    1.000000
        rExp                           1.000000
      * Coulomb:
        alpha                          2.000000
        third order                    shell-resolved
        anisotropic                    true
        a3                             3.000000
        a5                             4.000000
        cn-shift                       1.200000
        cn-exp                         4.000000
        max-rad                        5.000000


          ...................................................
          :                      SETUP                      :
          :.................................................:
          :  # basis functions                  60          :
          :  # atomic orbitals                  60          :
          :  # shells                           36          :
          :  # electrons                        60          :
          :  max. iterations                   250          :
          :  Hamiltonian                  GFN2-xTB          :
          :  restarted?                      false          :
          :  GBSA solvation                  false          :
          :  PC potential                    false          :
          :  electronic temp.          300.0000000     K    :
          :  accuracy                    1.0000000          :
          :  -> integral cutoff          0.2500000E+02      :
          :  -> integral neglect         0.1000000E-07      :
          :  -> SCF convergence          0.1000000E-05 Eh   :
          :  -> wf. convergence          0.1000000E-03 e    :
          :  Broyden damping             0.4000000          :
          ...................................................

 iter      E             dE          RMSdq      gap      omega  full diag
   1    -32.5947356 -0.325947E+02  0.427E+00    2.94       0.0  T
   2    -32.7125646 -0.117829E+00  0.247E+00    2.85       1.0  T
   3    -32.7140578 -0.149317E-02  0.128E+00    2.84       1.0  T
   4    -32.7095549  0.450283E-02  0.629E-01    2.79       1.0  T
   5    -32.7182036 -0.864866E-02  0.105E-01    2.79       1.0  T
   6    -32.7181867  0.168824E-04  0.617E-02    2.80       1.0  T
   7    -32.7182428 -0.561163E-04  0.234E-02    2.80       1.0  T
   8    -32.7182526 -0.975372E-05  0.887E-03    2.80       2.3  T
   9    -32.7182533 -0.747362E-06  0.294E-03    2.80       6.9  T
  10    -32.7182534 -0.324031E-07  0.135E-03    2.80      15.1  T
  11    -32.7182534 -0.113844E-07  0.562E-04    2.80      36.3  T
  12    -32.7182534 -0.382862E-08  0.234E-04    2.80      87.3  T

   *** convergence criteria satisfied after 12 iterations ***

         #    Occupation            Energy/Eh            Energy/eV
      -------------------------------------------------------------
         1        2.0000           -0.8895546             -24.2060
       ...           ...                  ...                  ...
        24        2.0000           -0.5678463             -15.4519
        25        2.0000           -0.5588653             -15.2075
        26        2.0000           -0.5413580             -14.7311
        27        2.0000           -0.5283476             -14.3771
        28        2.0000           -0.5250822             -14.2882
        29        2.0000           -0.5176786             -14.0868
        30        2.0000           -0.4885690             -13.2946 (HOMO)
        31                         -0.3856953             -10.4953 (LUMO)
        32                         -0.3508256              -9.5464
        33                         -0.3074490              -8.3661
        34                         -0.2757483              -7.5035
        35                         -0.2294747              -6.2443
       ...                                ...                  ...
        60                          0.5760015              15.6738
      -------------------------------------------------------------
                  HL-Gap            0.1028738 Eh            2.7993 eV
             Fermi-level           -0.4371322 Eh          -11.8950 eV

 SCC (total)                   0 d,  0 h,  0 min,  0.034 sec
 SCC setup                      ...        0 min,  0.000 sec (  0.598%)
 Dispersion                     ...        0 min,  0.000 sec (  1.438%)
 classical contributions        ...        0 min,  0.000 sec (  0.316%)
 integral evaluation            ...        0 min,  0.001 sec (  3.568%)
 iterations                     ...        0 min,  0.029 sec ( 84.929%)
 molecular gradient             ...        0 min,  0.003 sec (  7.666%)
 printout                       ...        0 min,  0.000 sec (  0.583%)

         :::::::::::::::::::::::::::::::::::::::::::::::::::::
         ::                     SUMMARY                     ::
         :::::::::::::::::::::::::::::::::::::::::::::::::::::
         :: total energy             -32.147684775658 Eh    ::
         :: gradient norm              0.075853545068 Eh/a0 ::
         :: HOMO-LUMO gap              2.799337944688 eV    ::
         ::.................................................::
         :: SCC energy               -32.718253380168 Eh    ::
         :: -> isotropic ES            0.102269893349 Eh    ::
         :: -> anisotropic ES         -0.010338016791 Eh    ::
         :: -> anisotropic XC          0.023318301451 Eh    ::
         :: -> dispersion             -0.020772008901 Eh    ::
         :: repulsion energy           0.570538659938 Eh    ::
         :: add. restraining           0.000000000000 Eh    ::
         :: total charge               1.000000000000 e     ::
         :::::::::::::::::::::::::::::::::::::::::::::::::::::

      ----------------------------------------------------------- 
     |                   =====================                   |
     |                        A N C O P T                        |
     |                   =====================                   |
     |               Approximate Normal Coordinate               |
     |                Rational Function Optimizer                |
      ----------------------------------------------------------- 

          ...................................................
          :                      SETUP                      :
          :.................................................:
          :   optimization level            normal          :
          :   max. optcycles                   200          :
          :   ANC micro-cycles                  20          :
          :   degrees of freedom                66          :
          :.................................................:
          :   RF solver                   davidson          :
          :   write xtbopt.log                true          :
          :   linear?                        false          :
          :   energy convergence         0.5000000E-05 Eh   :
          :   grad. convergence          0.1000000E-02 Eh/α :
          :   maximium RF displ.         1.0000000          :
          :   Hlow (freq-cutoff)         0.1000000E-01      :
          :   Hmax (freq-cutoff)         5.0000000          :
          :   S6 in model hess.         20.0000000          :
          ...................................................

generating ANC from model Hessian ...
Using Lindh-Hessian (1995)
 Shifting diagonal of input Hessian by    8.5559785545610105E-003
 Lowest  eigenvalues of input Hessian
    0.000000    0.000000    0.000000    0.000000    0.000000    0.000000
    0.010000    0.010902    0.014775    0.015731    0.016218    0.021757
    0.024311    0.027226    0.028244    0.029391    0.042370    0.042928
 Highest eigenvalues
    1.762311    1.784618    1.798980    1.902046    2.003680    2.081920


........................................................................
.............................. CYCLE    1 ..............................
........................................................................
   1    -32.7182534 -0.327183E+02  0.997E-05    2.80       0.0  T
   2    -32.7182534 -0.680132E-10  0.639E-05    2.80     319.4  T
   3    -32.7182534 -0.395843E-10  0.404E-05    2.80     505.0  T
     SCC iter.                  ...        0 min,  0.007 sec
     gradient                   ...        0 min,  0.002 sec
 * total energy  :   -32.1476848 Eh     change       -0.2437517E-09 Eh
   gradient norm :     0.0758534 Eh/α   predicted     0.0000000E+00 (-100.00%)
   displ. norm   :     0.1606472 α      lambda       -0.5574680E-02
   maximum displ.:     0.0769013 α      in ANC's #12, #33, #13, ...

........................................................................
.............................. CYCLE    2 ..............................
........................................................................
   1    -32.7384837 -0.327385E+02  0.110E-01    2.98       0.0  T
   2    -32.7385016 -0.178528E-04  0.720E-02    2.97       1.0  T
   3    -32.7384883  0.132719E-04  0.298E-02    2.98       1.0  T
   4    -32.7385080 -0.197419E-04  0.786E-03    2.97       2.6  T
   5    -32.7385092 -0.110631E-05  0.324E-03    2.97       6.3  T
   6    -32.7385093 -0.114258E-06  0.132E-03    2.97      15.5  T
   7    -32.7385093 -0.502274E-08  0.631E-04    2.97      32.3  T
   8    -32.7385093 -0.697600E-08  0.113E-04    2.97     180.9  T
     SCC iter.                  ...        0 min,  0.017 sec
     gradient                   ...        0 min,  0.002 sec
 * total energy  :   -32.1514318 Eh     change       -0.3747018E-02 Eh
   gradient norm :     0.0303713 Eh/α   predicted    -0.2859447E-02 ( -23.69%)
   displ. norm   :     0.1082501 α      lambda       -0.1253228E-02
   maximum displ.:     0.0414386 α      in ANC's #4, #3, #12, ...

........................................................................
.............................. CYCLE    3 ..............................
........................................................................
   1    -32.7469340 -0.327469E+02  0.708E-02    3.08       0.0  T
   2    -32.7469412 -0.724700E-05  0.434E-02    3.07       1.0  T
   3    -32.7469375  0.374796E-05  0.182E-02    3.08       1.1  T
   4    -32.7469432 -0.569131E-05  0.497E-03    3.07       4.1  T
   5    -32.7469436 -0.413091E-06  0.211E-03    3.07       9.7  T
   6    -32.7469437 -0.616284E-07  0.751E-04    3.07      27.2  T
   7    -32.7469437  0.213745E-09  0.341E-04    3.07      59.8  T
     SCC iter.                  ...        0 min,  0.015 sec
     gradient                   ...        0 min,  0.002 sec
 * total energy  :   -32.1521141 Eh     change       -0.6823367E-03 Eh
   gradient norm :     0.0061436 Eh/α   predicted    -0.6340274E-03 (  -7.08%)
   displ. norm   :     0.0544810 α      lambda       -0.1063602E-03
   maximum displ.:     0.0285818 α      in ANC's #3, #1, #4, ...

........................................................................
.............................. CYCLE    4 ..............................
........................................................................
   1    -32.7460942 -0.327461E+02  0.325E-02    3.08       0.0  T
   2    -32.7460947 -0.458390E-06  0.188E-02    3.08       1.1  T
   3    -32.7460939  0.723074E-06  0.638E-03    3.08       3.2  T
   4    -32.7460948 -0.892505E-06  0.966E-04    3.08      21.1  T
   5    -32.7460949 -0.119545E-07  0.361E-04    3.08      56.5  T
     SCC iter.                  ...        0 min,  0.011 sec
     gradient                   ...        0 min,  0.002 sec
 * total energy  :   -32.1521922 Eh     change       -0.7807818E-04 Eh
   gradient norm :     0.0034021 Eh/α   predicted    -0.5334103E-04 ( -31.68%)
   displ. norm   :     0.0705094 α      lambda       -0.6219546E-04
   maximum displ.:     0.0403061 α      in ANC's #3, #1, #5, ...

........................................................................
.............................. CYCLE    5 ..............................
........................................................................
   1    -32.7450852 -0.327451E+02  0.381E-02    3.07       0.0  T
   2    -32.7450856 -0.443918E-06  0.223E-02    3.07       1.0  T
   3    -32.7450845  0.117084E-05  0.724E-03    3.07       2.8  T
   4    -32.7450859 -0.139915E-05  0.816E-04    3.07      25.0  T
   5    -32.7450859 -0.739737E-08  0.331E-04    3.07      61.6  T
   6    -32.7450859 -0.120046E-09  0.179E-04    3.07     114.1  T
     SCC iter.                  ...        0 min,  0.010 sec
     gradient                   ...        0 min,  0.002 sec
 * total energy  :   -32.1522280 Eh     change       -0.3583507E-04 Eh
   gradient norm :     0.0011551 Eh/α   predicted    -0.3125573E-04 ( -12.78%)
   displ. norm   :     0.0500789 α      lambda       -0.9025139E-05
   maximum displ.:     0.0343064 α      in ANC's #1, #3, #5, ...

........................................................................
.............................. CYCLE    6 ..............................
........................................................................
   1    -32.7451310 -0.327451E+02  0.234E-02    3.07       0.0  T
   2    -32.7451311 -0.873251E-07  0.137E-02    3.07       1.5  T
   3    -32.7451307  0.410659E-06  0.409E-03    3.07       5.0  T
   4    -32.7451312 -0.475099E-06  0.417E-04    3.07      49.0  T
   5    -32.7451312 -0.211723E-08  0.214E-04    3.07      95.3  T
     SCC iter.                  ...        0 min,  0.008 sec
     gradient                   ...        0 min,  0.002 sec
 * total energy  :   -32.1522381 Eh     change       -0.1008437E-04 Eh
   gradient norm :     0.0010945 Eh/α   predicted    -0.4517974E-05 ( -55.20%)
   displ. norm   :     0.0647071 α      lambda       -0.1045226E-04
   maximum displ.:     0.0435886 α      in ANC's #1, #3, #2, ...

........................................................................
.............................. CYCLE    7 ..............................
........................................................................
   1    -32.7455050 -0.327455E+02  0.283E-02    3.07       0.0  T
   2    -32.7455051 -0.139793E-06  0.165E-02    3.07       1.2  T
   3    -32.7455044  0.702276E-06  0.538E-03    3.07       3.8  T
   4    -32.7455053 -0.806967E-06  0.725E-04    3.07      28.1  T
   5    -32.7455053 -0.878555E-08  0.261E-04    3.07      78.3  T
     SCC iter.                  ...        0 min,  0.010 sec
     gradient                   ...        0 min,  0.002 sec
 * total energy  :   -32.1522500 Eh     change       -0.1187720E-04 Eh
   gradient norm :     0.0010202 Eh/α   predicted    -0.5237035E-05 ( -55.91%)
   displ. norm   :     0.0840316 α      lambda       -0.9175649E-05
   maximum displ.:     0.0554799 α      in ANC's #1, #2, #3, ...

........................................................................
.............................. CYCLE    8 ..............................
........................................................................
   1    -32.7455414 -0.327455E+02  0.328E-02    3.07       0.0  T
   2    -32.7455417 -0.284621E-06  0.191E-02    3.07       1.1  T
   3    -32.7455402  0.151972E-05  0.831E-03    3.07       2.5  T
   4    -32.7455420 -0.178333E-05  0.105E-03    3.07      19.4  T
   5    -32.7455420 -0.189228E-07  0.358E-04    3.07      57.1  T
   6    -32.7455420 -0.139046E-09  0.156E-04    3.07     130.6  T
     SCC iter.                  ...        0 min,  0.012 sec
     gradient                   ...        0 min,  0.002 sec
 * total energy  :   -32.1522611 Eh     change       -0.1109349E-04 Eh
   gradient norm :     0.0008795 Eh/α   predicted    -0.4604728E-05 ( -58.49%)
   displ. norm   :     0.1021564 α      lambda       -0.9631006E-05
   maximum displ.:     0.0649387 α      in ANC's #1, #2, #3, ...

........................................................................
.............................. CYCLE    9 ..............................
........................................................................
   1    -32.7455292 -0.327455E+02  0.372E-02    3.07       0.0  T
   2    -32.7455297 -0.419852E-06  0.217E-02    3.07       1.0  T
   3    -32.7455273  0.234874E-05  0.106E-02    3.07       1.9  T
   4    -32.7455301 -0.279667E-05  0.130E-03    3.07      15.7  T
   5    -32.7455301 -0.291183E-07  0.435E-04    3.07      46.9  T
   6    -32.7455301 -0.217064E-09  0.182E-04    3.07     112.4  T
     SCC iter.                  ...        0 min,  0.012 sec
     gradient                   ...        0 min,  0.002 sec
 * total energy  :   -32.1522730 Eh     change       -0.1190695E-04 Eh
   gradient norm :     0.0007568 Eh/α   predicted    -0.4838131E-05 ( -59.37%)
   displ. norm   :     0.1180981 α      lambda       -0.1013392E-04
   maximum displ.:     0.0810300 α      in ANC's #2, #1, #8, ...

........................................................................
.............................. CYCLE   10 ..............................
........................................................................
   1    -32.7454587 -0.327455E+02  0.421E-02    3.08       0.0  T
   2    -32.7454592 -0.526252E-06  0.247E-02    3.08       1.0  T
   3    -32.7454561  0.316548E-05  0.123E-02    3.08       1.7  T
   4    -32.7454598 -0.377330E-05  0.146E-03    3.08      14.0  T
   5    -32.7454599 -0.350134E-07  0.527E-04    3.08      38.7  T
   6    -32.7454599 -0.351463E-09  0.200E-04    3.08     102.0  T
     SCC iter.                  ...        0 min,  0.011 sec
     gradient                   ...        0 min,  0.002 sec
 * total energy  :   -32.1522850 Eh     change       -0.1197074E-04 Eh
   gradient norm :     0.0007848 Eh/α   predicted    -0.5099334E-05 ( -57.40%)
   displ. norm   :     0.0827578 α      lambda       -0.6736900E-05
   maximum displ.:     0.0634400 α      in ANC's #2, #1, #4, ...

........................................................................
.............................. CYCLE   11 ..............................
........................................................................
   1    -32.7454206 -0.327454E+02  0.300E-02    3.08       0.0  T
   2    -32.7454208 -0.242056E-06  0.176E-02    3.08       1.2  T
   3    -32.7454192  0.162279E-05  0.874E-03    3.08       2.3  T
   4    -32.7454211 -0.192152E-05  0.993E-04    3.08      20.6  T
   5    -32.7454211 -0.157527E-07  0.373E-04    3.08      54.8  T
   6    -32.7454211 -0.184876E-09  0.133E-04    3.08     154.0  T
     SCC iter.                  ...        0 min,  0.010 sec
     gradient                   ...        0 min,  0.002 sec
 * total energy  :   -32.1522931 Eh     change       -0.8107248E-05 Eh
   gradient norm :     0.0005146 Eh/α   predicted    -0.3379761E-05 ( -58.31%)
   displ. norm   :     0.0827578 α      lambda        0.0000000E+00
   maximum displ.:     0.0634400 α      in ANC's #2, #1, #4, ...

........................................................................
.............................. CYCLE   12 ..............................
........................................................................
   1    -32.7452915 -0.327453E+02  0.299E-02    3.08       0.0  T
   2    -32.7452917 -0.238359E-06  0.175E-02    3.08       1.2  T
   3    -32.7452902  0.159591E-05  0.864E-03    3.08       2.4  T
   4    -32.7452920 -0.188718E-05  0.989E-04    3.08      20.6  T
   5    -32.7452921 -0.156250E-07  0.370E-04    3.08      55.1  T
   6    -32.7452921 -0.167496E-09  0.132E-04    3.08     155.2  T
     SCC iter.                  ...        0 min,  0.010 sec
     gradient                   ...        0 min,  0.002 sec
 * total energy  :   -32.1522973 Eh     change       -0.4210283E-05 Eh
   gradient norm :     0.0006961 Eh/α   predicted     0.9948317E-09 (-100.02%)
   displ. norm   :     0.0303806 α      lambda       -0.3447056E-05
   maximum displ.:     0.0288622 α      in ANC's #2, #1, #18, ...

   *** GEOMETRY OPTIMIZATION CONVERGED AFTER 12 ITERATIONS ***

------------------------------------------------------------------------
 total energy gain   :        -0.0046125 Eh       -2.8944 kcal/mol
 total RMSD          :         0.1520871 a0        0.0805 Å
 total power (kW/mol):        -1.0091805 (step)  -64.3037 (real)
------------------------------------------------------------------------

 ANCopt (total)                0 d,  0 h,  0 min,  0.188 sec
 optimizer setup                ...        0 min,  0.000 sec (  0.061%)
 model hessian                  ...        0 min,  0.007 sec (  3.616%)
 ANC generation                 ...        0 min,  0.002 sec (  1.161%)
 coordinate transformation      ...        0 min,  0.000 sec (  0.166%)
 single point calculation       ...        0 min,  0.175 sec ( 92.663%)
 optimization log               ...        0 min,  0.001 sec (  0.733%)
 hessian update                 ...        0 min,  0.000 sec (  0.205%)
 rational function              ...        0 min,  0.001 sec (  0.555%)

================
 final structure:
================
24
 xtb: 6.5.1 (fef0646)
N            1.12081714714158        0.34068941690797       -0.47612516566661
C            2.48596939190206       -0.08950650907672        0.01197033085104
C            2.85433602188085       -1.38830819471821       -0.64297776146727
C            2.39354340476336       -2.59808219971380       -0.08272207707313
C            2.70375965848960       -3.79099857398911       -0.67057533135159
C            3.60302009984432       -1.40623737278126       -1.79358849522029
C            3.93655684843256       -2.62133003751216       -2.42245152790307
C            3.47976531076658       -3.83983926272598       -1.84791273528335
C            3.82494891120812       -5.05785839632425       -2.46790778020857
C            4.58432324256124       -5.06770960691844       -3.60548063787735
C            5.02965539467980       -3.86383039150569       -4.17592323220097
C            4.71387940860044       -2.66539515881436       -3.59885406443798
H            0.81001530941373        1.21220484659077       -0.02923420176996
H            0.44312277466775       -0.40632735329748       -0.27319660246202
H            1.15144197804832        0.47429911041382       -1.49540238052435
H            2.43445884590712       -0.19706199088401        1.09609087381586
H            3.19866881083045        0.69614791216317       -0.23955892333709
H            1.81377333846743       -2.57530266385162        0.82895516587942
H            2.36312439994498       -4.71772252327100       -0.23478876705438
H            3.96819183398502       -0.48478647606072       -2.22594859951149
H            3.48118099275564       -5.98113180267166       -2.02638617566440
H            4.84505525559838       -6.00274630089695       -4.07604046062196
H            5.62554982766899       -3.89301431366848       -5.07498140536277
H            5.05916179244172       -1.73776215739389       -4.03106004554767

 Bond Distances (Angstroems)
 ---------------------------
N1-C2=1.5123         N1-H13=1.0275        N1-H14=1.0288        N1-H15=1.0285        C2-N1=1.5123         C2-C3=1.5005         
C2-H16=1.0907        C2-H17=1.0902        C3-C2=1.5005         C3-C4=1.4106         C3-C6=1.3729         C4-C3=1.4106         
C4-C5=1.3656         C4-H18=1.0807        C5-C4=1.3656         C5-C8=1.4109         C5-H19=1.0792        C6-C3=1.3729         
C6-C7=1.4082         C6-H20=1.0814        C7-C6=1.4082         C7-C8=1.4225         C7-C12=1.4107        C8-C5=1.4109         
C8-C7=1.4225         C8-C9=1.4097         C9-C8=1.4097         C9-C10=1.3678        C9-H21=1.0796        C10-C9=1.3678        
C10-C11=1.4047       C10-H22=1.0788       C11-C10=1.4047       C11-C12=1.3671       C11-H23=1.0790       C12-C7=1.4107        
C12-C11=1.3671       C12-H24=1.0801       H13-N1=1.0275        H14-N1=1.0288        H15-N1=1.0285        H16-C2=1.0907        
H17-C2=1.0902        H18-C4=1.0807        H19-C5=1.0792        H20-C6=1.0814        H21-C9=1.0796        H22-C10=1.0788       
H23-C11=1.0790       H24-C12=1.0801       
 C  H  Rav=1.0822 sigma=0.0045  Rmin=1.0788  Rmax=1.0907     9
 C  C  Rav=1.4043 sigma=0.0353  Rmin=1.3656  Rmax=1.5005    12
 N  H  Rav=1.0283 sigma=0.0005  Rmin=1.0275  Rmax=1.0288     3
 N  C  Rav=1.5123 sigma=0.0000  Rmin=1.5123  Rmax=1.5123     1

 selected bond angles (degree)
 --------------------
H13-N1-C2=111.96               H14-N1-C2=108.93               H14-N1-H13=109.32              H15-N1-C2=109.27               
H15-N1-H13=109.26              H15-N1-H14=108.02              C3-C2-N1=109.08                H16-C2-N1=107.83               
H16-C2-C3=111.11               H17-C2-N1=108.10               H17-C2-C3=111.26               H17-C2-H16=109.35              
C4-C3-C2=119.26                C6-C3-C2=120.73                C6-C3-C4=119.99                C5-C4-C3=120.27                
H18-C4-C3=119.49               H18-C4-C5=120.23               C8-C5-C4=120.96                H19-C5-C4=120.30               
H19-C5-C8=118.74               C7-C6-C3=120.98                H20-C6-C3=120.54               H20-C6-C7=118.47               
C8-C7-C6=118.86                C12-C7-C6=121.99               C12-C7-C8=119.14               C7-C8-C5=118.95                
C9-C8-C5=122.11                C9-C8-C7=118.94                C10-C9-C8=120.53               H21-C9-C8=118.76               
H21-C9-C10=120.71              C11-C10-C9=120.50              H22-C10-C9=120.21              H22-C10-C11=119.28             

 selected dihedral angles (degree)
 ---------------------------------
C3-C2-N1-H13=178.03           C3-C2-N1-H14= 57.01           C3-C2-N1-H15=299.21           H16-C2-N1-H13= 57.26          
H16-C2-N1-H14=296.24          H16-C2-N1-H15=178.44          H17-C2-N1-H13=299.14          H17-C2-N1-H14=178.12          
H17-C2-N1-H15= 60.32          C4-C3-C2-N1=275.75            C4-C3-C2-H16= 34.49           C4-C3-C2-H17=156.58           
C6-C3-C2-N1= 94.12            C6-C3-C2-H16=212.87           C6-C3-C2-H17=334.96           C5-C4-C3-C2=179.25            
C5-C4-C3-C6=  0.86            H18-C4-C3-C2=357.74           H18-C4-C3-C6=179.35           C8-C5-C4-C3=359.61            
C8-C5-C4-H18=181.13           H19-C5-C4-C3=179.14           H19-C5-C4-H18=  0.67          C7-C6-C3-C2=180.86            
C7-C6-C3-C4=359.22            H20-C6-C3-C2=  2.17           H20-C6-C3-C4=180.54           C8-C7-C6-C3=  0.23            
C8-C7-C6-H20=178.94           C12-C7-C6-C3=180.54           C12-C7-C6-H20=359.25          C7-C8-C5-C4=359.85            
C7-C8-C5-H19=180.30           C9-C8-C5-C4=179.39            C9-C8-C5-H19=359.84           C5-C8-C7-C6=  0.24            
C5-C8-C7-C12=179.94           C9-C8-C7-C6=180.68            C9-C8-C7-C12=  0.38           C10-C9-C8-C5=180.31           
C10-C9-C8-C7=359.85           H21-C9-C8-C5=  0.13           H21-C9-C8-C7=179.67           C11-C10-C9-C8=359.85          
C11-C10-C9-H21=180.02         H22-C10-C9-C8=180.03          H22-C10-C9-H21=  0.21         
           -------------------------------------------------
          |                Final Singlepoint                |
           -------------------------------------------------

          ...................................................
          :                      SETUP                      :
          :.................................................:
          :  # basis functions                  60          :
          :  # atomic orbitals                  60          :
          :  # shells                           36          :
          :  # electrons                        60          :
          :  max. iterations                   250          :
          :  Hamiltonian                  GFN2-xTB          :
          :  restarted?                      false          :
          :  GBSA solvation                  false          :
          :  PC potential                    false          :
          :  electronic temp.          300.0000000     K    :
          :  accuracy                    1.0000000          :
          :  -> integral cutoff          0.2500000E+02      :
          :  -> integral neglect         0.1000000E-07      :
          :  -> SCF convergence          0.1000000E-05 Eh   :
          :  -> wf. convergence          0.1000000E-03 e    :
          :  Broyden damping             0.4000000          :
          ...................................................

 iter      E             dE          RMSdq      gap      omega  full diag
   1    -32.7452921 -0.327453E+02  0.308E-05    3.08       0.0  T
   2    -32.7452921 -0.299138E-11  0.182E-05    3.08    1122.4  T
   3    -32.7452921 -0.980549E-12  0.126E-05    3.08    1618.5  T

   *** convergence criteria satisfied after 3 iterations ***

         #    Occupation            Energy/Eh            Energy/eV
      -------------------------------------------------------------
         1        2.0000           -0.8848966             -24.0793
       ...           ...                  ...                  ...
        24        2.0000           -0.5703498             -15.5200
        25        2.0000           -0.5587916             -15.2055
        26        2.0000           -0.5445616             -14.8183
        27        2.0000           -0.5293225             -14.4036
        28        2.0000           -0.5243231             -14.2676
        29        2.0000           -0.5164138             -14.0523
        30        2.0000           -0.4940297             -13.4432 (HOMO)
        31                         -0.3809264             -10.3655 (LUMO)
        32                         -0.3532352              -9.6120
        33                         -0.3047622              -8.2930
        34                         -0.2759015              -7.5077
        35                         -0.2351904              -6.3999
       ...                                ...                  ...
        60                          0.5844287              15.9031
      -------------------------------------------------------------
                  HL-Gap            0.1131033 Eh            3.0777 eV
             Fermi-level           -0.4374781 Eh          -11.9044 eV

 SCC (total)                   0 d,  0 h,  0 min,  0.008 sec
 SCC setup                      ...        0 min,  0.000 sec (  0.918%)
 Dispersion                     ...        0 min,  0.000 sec (  2.788%)
 classical contributions        ...        0 min,  0.000 sec (  0.416%)
 integral evaluation            ...        0 min,  0.001 sec (  8.048%)
 iterations                     ...        0 min,  0.005 sec ( 64.099%)
 molecular gradient             ...        0 min,  0.002 sec ( 20.989%)
 printout                       ...        0 min,  0.000 sec (  1.150%)

         :::::::::::::::::::::::::::::::::::::::::::::::::::::
         ::                     SUMMARY                     ::
         :::::::::::::::::::::::::::::::::::::::::::::::::::::
         :: total energy             -32.152297294639 Eh    ::
         :: gradient norm              0.000696081200 Eh/a0 ::
         :: HOMO-LUMO gap              3.077697529895 eV    ::
         ::.................................................::
         :: SCC energy               -32.745292055820 Eh    ::
         :: -> isotropic ES            0.101318662332 Eh    ::
         :: -> anisotropic ES         -0.010924835542 Eh    ::
         :: -> anisotropic XC          0.022741051851 Eh    ::
         :: -> dispersion             -0.020860696794 Eh    ::
         :: repulsion energy           0.592970041398 Eh    ::
         :: add. restraining           0.000000000000 Eh    ::
         :: total charge               1.000000000000 e     ::
         :::::::::::::::::::::::::::::::::::::::::::::::::::::

           -------------------------------------------------
          |                Property Printout                |
           -------------------------------------------------

    * Orbital Energies and Occupations

         #    Occupation            Energy/Eh            Energy/eV
      -------------------------------------------------------------
         1        2.0000           -0.8848966             -24.0793
       ...           ...                  ...                  ...
        18        2.0000           -0.6113286             -16.6351
        19        2.0000           -0.6099796             -16.5984
        20        2.0000           -0.6054042             -16.4739
        21        2.0000           -0.5916953             -16.1008
        22        2.0000           -0.5827198             -15.8566
        23        2.0000           -0.5788026             -15.7500
        24        2.0000           -0.5703498             -15.5200
        25        2.0000           -0.5587916             -15.2055
        26        2.0000           -0.5445616             -14.8183
        27        2.0000           -0.5293225             -14.4036
        28        2.0000           -0.5243231             -14.2676
        29        2.0000           -0.5164138             -14.0523
        30        2.0000           -0.4940297             -13.4432 (HOMO)
        31                         -0.3809264             -10.3655 (LUMO)
        32                         -0.3532352              -9.6120
        33                         -0.3047622              -8.2930
        34                         -0.2759015              -7.5077
        35                         -0.2351904              -6.3999
        36                         -0.1736350              -4.7248
        37                         -0.1455682              -3.9611
        38                         -0.0859067              -2.3376
        39                         -0.0844956              -2.2992
        40                         -0.0429952              -1.1700
        41                         -0.0150852              -0.4105
       ...                                ...                  ...
        60                          0.5844287              15.9031
      -------------------------------------------------------------
                  HL-Gap            0.1131033 Eh            3.0777 eV
             Fermi-level           -0.4374781 Eh          -11.9044 eV

     #   Z          covCN         q      C6AA      α(0)
     1   7 N        3.482    -0.130    23.821     7.249
     2   6 C        3.735    -0.033    21.254     6.579
     3   6 C        2.968    -0.021    28.530     8.761
     4   6 C        2.917    -0.049    29.229     8.866
     5   6 C        2.917    -0.027    28.677     8.782
     6   6 C        2.921    -0.044    29.088     8.844
     7   6 C        2.986     0.018    27.601     8.618
     8   6 C        2.987     0.020    27.543     8.609
     9   6 C        2.917    -0.029    28.716     8.787
    10   6 C        2.916    -0.016    28.420     8.742
    11   6 C        2.916    -0.018    28.449     8.746
    12   6 C        2.917    -0.031    28.784     8.798
    13   1 H        0.859     0.265     0.828     1.425
    14   1 H        0.859     0.271     0.807     1.408
    15   1 H        0.859     0.269     0.813     1.413
    16   1 H        0.924     0.103     1.756     2.072
    17   1 H        0.925     0.102     1.770     2.081
    18   1 H        0.926     0.036     2.508     2.477
    19   1 H        0.926     0.058     2.218     2.329
    20   1 H        0.925     0.041     2.431     2.438
    21   1 H        0.926     0.054     2.275     2.359
    22   1 H        0.926     0.058     2.217     2.328
    23   1 H        0.926     0.057     2.234     2.337
    24   1 H        0.926     0.047     2.359     2.402

 Mol. C6AA /au·bohr⁶  :       6216.543767
 Mol. C8AA /au·bohr⁸  :     152313.504961
 Mol. α(0) /au        :        126.450085


Wiberg/Mayer (AO) data.
largest (>0.10) Wiberg bond orders for each atom

 ---------------------------------------------------------------------------
     #   Z sym  total        # sym  WBO       # sym  WBO       # sym  WBO
 ---------------------------------------------------------------------------
     1   7 N    3.670 --    13 H    0.915    15 H    0.912    14 H    0.911
                             2 C    0.899
     2   6 C    3.881 --     3 C    1.007    17 H    0.967    16 H    0.966
                             1 N    0.899
     3   6 C    3.968 --     6 C    1.509     4 C    1.290     2 C    1.007
     4   6 C    3.990 --     5 C    1.559     3 C    1.290    18 H    0.968
     5   6 C    3.990 --     4 C    1.559     8 C    1.281    19 H    0.966
                             6 C    0.109
     6   6 C    3.991 --     3 C    1.509     7 C    1.292    20 H    0.965
                             5 C    0.109
     7   6 C    3.990 --     6 C    1.292    12 C    1.277     8 C    1.240
     8   6 C    3.990 --     9 C    1.284     5 C    1.281     7 C    1.240
     9   6 C    3.990 --    10 C    1.554     8 C    1.284    21 H    0.967
                            12 C    0.116
    10   6 C    3.986 --     9 C    1.554    11 C    1.319    22 H    0.969
    11   6 C    3.990 --    12 C    1.557    10 C    1.319    23 H    0.969
    12   6 C    3.989 --    11 C    1.557     7 C    1.277    24 H    0.967
                             9 C    0.116
    13   1 H    0.929 --     1 N    0.915
    14   1 H    0.927 --     1 N    0.911
    15   1 H    0.928 --     1 N    0.912
    16   1 H    0.989 --     2 C    0.966
    17   1 H    0.989 --     2 C    0.967
    18   1 H    0.998 --     4 C    0.968
    19   1 H    0.996 --     5 C    0.966
    20   1 H    0.998 --     6 C    0.965
    21   1 H    0.997 --     9 C    0.967
    22   1 H    0.996 --    10 C    0.969
    23   1 H    0.996 --    11 C    0.969
    24   1 H    0.997 --    12 C    0.967
 ---------------------------------------------------------------------------

Topologies differ in total number of bonds
Writing topology from bond orders to xtbtopo.mol

molecular dipole:
                 x           y           z       tot (Debye)
 q only:        3.207      -0.828      -1.673
   full:        3.006      -0.652      -1.657       8.881
molecular quadrupole (traceless):
                xx          xy          yy          xz          yz          zz
 q only:        4.348     -14.873       2.525     -17.002      11.718      -6.873
  q+dip:       -0.372     -12.820       5.896     -21.156      10.850      -5.524
   full:        2.324     -13.420       3.701     -17.859      10.754      -6.024

           -------------------------------------------------
          |                Geometry Summary                 |
           -------------------------------------------------

      molecular mass/u    :      158.2200871
   center of mass at/Å    :        3.3302633      -2.5789752      -1.7720723
  moments of inertia/u·Å² :        0.2089740E+03   0.8764667E+03   0.1036373E+04
rotational constants/cm⁻¹ :        0.8066857E-01   0.1923363E-01   0.1626599E-01

 * 24 selected distances

     #   Z          #   Z                                           value/Å
     1   7 N        2   6 C                                       1.5122655 (max)
     3   6 C        4   6 C                                       1.4105920
     4   6 C        5   6 C                                       1.3655971
     3   6 C        6   6 C                                       1.3728637
     6   6 C        7   6 C                                       1.4082493
     5   6 C        8   6 C                                       1.4109195
     7   6 C        8   6 C                                       1.4225043
     8   6 C        9   6 C                                       1.4096512
     9   6 C       10   6 C                                       1.3677788
    10   6 C       11   6 C                                       1.4046533
     7   6 C       12   6 C                                       1.4107074
    11   6 C       12   6 C                                       1.3671030
     1   7 N       13   1 H                                       1.0275450 (min)
     1   7 N       14   1 H                                       1.0288265
     1   7 N       15   1 H                                       1.0284530
     2   6 C       16   1 H                                       1.0906599
     2   6 C       17   1 H                                       1.0901654
     4   6 C       18   1 H                                       1.0806516
     5   6 C       19   1 H                                       1.0792404
     6   6 C       20   1 H                                       1.0813684
     9   6 C       21   1 H                                       1.0796072
    10   6 C       22   1 H                                       1.0787500
    11   6 C       23   1 H                                       1.0790031
    12   6 C       24   1 H                                       1.0800579

 * 4 distinct bonds (by element types)

   Z      Z             #   av. dist./Å        max./Å        min./Å
   1 H    6 C           9     1.0821671     1.0906599     1.0787500
   6 C    6 C          11     1.3955109     1.4225043     1.3655971
   1 H    7 N           3     1.0282748     1.0288265     1.0275450
   6 C    7 N           1     1.5122655     1.5122655     1.5122655


optimized geometry written to: xtbopt.xyz


           -------------------------------------------------
          | TOTAL ENERGY              -32.152297294639 Eh   |
          | GRADIENT NORM               0.000696081200 Eh/α |
          | HOMO-LUMO GAP               3.077697529895 eV   |
           -------------------------------------------------

------------------------------------------------------------------------
 * finished run on 2023/01/23 at 13:44:09.756     
------------------------------------------------------------------------
 total:
 * wall-time:     0 d,  0 h,  0 min,  0.248 sec
 *  cpu-time:     0 d,  0 h,  0 min, 27.895 sec
 * ratio c/w:   112.327 speedup
 SCF:
 * wall-time:     0 d,  0 h,  0 min,  0.034 sec
 *  cpu-time:     0 d,  0 h,  0 min,  4.815 sec
 * ratio c/w:   140.848 speedup
 ANC optimizer:
 * wall-time:     0 d,  0 h,  0 min,  0.197 sec
 *  cpu-time:     0 d,  0 h,  0 min, 20.991 sec
 * ratio c/w:   106.361 speedup

