24
 energy: -32.152297294639 gnorm: 0.000696081200 xtb: 6.5.1 (fef0646)
N            1.12081714714158        0.34068941690797       -0.47612516566661
C            2.48596939190206       -0.08950650907672        0.01197033085104
C            2.85433602188085       -1.38830819471821       -0.64297776146727
C            2.39354340476336       -2.59808219971380       -0.08272207707313
C            2.70375965848960       -3.79099857398911       -0.67057533135159
C            3.60302009984432       -1.40623737278126       -1.79358849522029
C            3.93655684843256       -2.62133003751216       -2.42245152790307
C            3.47976531076658       -3.83983926272598       -1.84791273528335
C            3.82494891120812       -5.05785839632425       -2.46790778020857
C            4.58432324256124       -5.06770960691844       -3.60548063787735
C            5.02965539467980       -3.86383039150569       -4.17592323220097
C            4.71387940860044       -2.66539515881436       -3.59885406443798
H            0.81001530941373        1.21220484659077       -0.02923420176996
H            0.44312277466775       -0.40632735329748       -0.27319660246202
H            1.15144197804832        0.47429911041382       -1.49540238052435
H            2.43445884590712       -0.19706199088401        1.09609087381586
H            3.19866881083045        0.69614791216317       -0.23955892333709
H            1.81377333846743       -2.57530266385162        0.82895516587942
H            2.36312439994498       -4.71772252327100       -0.23478876705438
H            3.96819183398502       -0.48478647606072       -2.22594859951149
H            3.48118099275564       -5.98113180267166       -2.02638617566440
H            4.84505525559838       -6.00274630089695       -4.07604046062196
H            5.62554982766899       -3.89301431366848       -5.07498140536277
H            5.05916179244172       -1.73776215739389       -4.03106004554767
