 Entering Gaussian System
 *********************************************
 Gaussian 98:
 frequency output generated by the xtb code
 *********************************************
                         Standard orientation:
 --------------------------------------------------------------------
  Center     Atomic     Atomic              Coordinates (Angstroms)
  Number     Number      Type              X           Y           Z
 --------------------------------------------------------------------
    1          7             0        5.392098   -1.319811   -1.574107
    2          6             0        4.224744   -0.428064   -1.324484
    3          6             0        3.995170   -0.187781    0.162336
    4          8             0        2.895465    0.684156    0.426699
    5          6             0        1.635432    0.135762    0.277524
    6          6             0        1.369464   -1.198147   -0.011683
    7          6             0        0.078681   -1.664951   -0.145527
    8          6             0       -1.030094   -0.836115    0.000205
    9          6             0       -0.809726    0.538575    0.298492
   10          6             0       -1.900051    1.442831    0.458524
   11          6             0       -1.622613    2.770040    0.751491
   12          6             0       -0.319660    3.228424    0.887206
   13          6             0        0.733345    2.370028    0.732983
   14          6             0        0.517297    1.018788    0.438636
   15          6             0       -2.393178   -1.331378   -0.142039
   16          6             0       -2.670556   -2.661177   -0.425926
   17          6             0       -3.974669   -3.123100   -0.562111
   18          6             0       -5.030424   -2.270295   -0.418759
   19          6             0       -4.814346   -0.908075   -0.129052
   20          6             0       -5.893981   -0.014809    0.021721
   21          6             0       -5.668623    1.301030    0.302868
   22          6             0       -4.370610    1.779784    0.445712
   23          6             0       -3.268544    0.949978    0.309480
   24          6             0       -3.486213   -0.427242    0.013553
   25         17             0        8.173442    0.209427   -0.065959
   26          1             0        5.562254   -1.463384   -2.581427
   27          1             0        5.250685   -2.241460   -1.140855
   28          1             0        6.246642   -0.914285   -1.163290
   29          1             0        3.324770   -0.852461   -1.780790
   30          1             0        4.374427    0.535114   -1.825016
   31          1             0        4.880424    0.284786    0.602543
   32          1             0        3.856837   -1.122719    0.714039
   33          1             0        2.183860   -1.888422   -0.133414
   34          1             0       -0.063865   -2.706041   -0.370965
   35          1             0       -2.427079    3.471065    0.879162
   36          1             0       -0.137494    4.266293    1.114303
   37          1             0        1.746617    2.719123    0.834879
   38          1             0       -1.865780   -3.363211   -0.545348
   39          1             0       -4.151765   -4.163410   -0.782978
   40          1             0       -6.039916   -2.629580   -0.525104
   41          1             0       -6.899363   -0.384344   -0.088375
   42          1             0       -6.501759    1.975935    0.415469
   43          1             0       -4.232883    2.822394    0.666690
 --------------------------------------------------------------------
     1 basis functions        1 primitive gaussians
     1 alpha electrons        1 beta electrons

 Harmonic frequencies (cm**-1), IR intensities (km*mol⁻¹),
 Raman scattering activities (A**4/amu), Raman depolarization ratios,
 reduced masses (AMU), force constants (mDyne/A) and normal coordinates:
                      1                      2                      3
                        a                      a                      a 
 Frequencies --  -152.2341               -35.5117                 5.2908
 Red. masses --    20.4466                12.7749                15.3245
 Frc consts  --     0.0000                 0.0000                 0.0000
 IR Inten    --   102.3415                 9.8269                 3.5815
 Raman Activ --     0.0000                 0.0000                 0.0000
 Depolar     --     0.0000                 0.0000                 0.0000
 Atom AN      X      Y      Z        X      Y      Z        X      Y      Z
   1   7    -0.48  -0.31  -0.27    -0.01  -0.13   0.13     0.08   0.03   0.00
   2   6    -0.17   0.02  -0.08    -0.17  -0.31   0.09    -0.04  -0.12   0.01
   3   6    -0.01   0.00  -0.05     0.01  -0.02   0.06    -0.02  -0.09   0.01
   4   8     0.00  -0.00   0.02     0.01  -0.01   0.06    -0.01  -0.09   0.02
   5   6    -0.00  -0.00   0.02     0.01  -0.03   0.13    -0.01  -0.07   0.03
   6   6    -0.00  -0.00   0.02     0.00  -0.06   0.29    -0.03  -0.06   0.00
   7   6    -0.00  -0.00   0.01     0.00  -0.05   0.25    -0.04  -0.04   0.02
   8   6    -0.00  -0.00   0.00     0.01  -0.01   0.08    -0.03  -0.03   0.05
   9   6    -0.00   0.00   0.00     0.01  -0.00   0.04    -0.01  -0.04   0.06
  10   6    -0.00  -0.00  -0.00     0.01   0.01   0.00     0.00  -0.02   0.07
  11   6    -0.00   0.00  -0.00     0.02   0.02  -0.08     0.02  -0.06   0.21
  12   6    -0.00   0.00  -0.00     0.02   0.03  -0.11     0.02  -0.09   0.29
  13   6    -0.00   0.00   0.00     0.01   0.01  -0.05     0.01  -0.09   0.20
  14   6    -0.00   0.00   0.00     0.01  -0.00   0.03    -0.00  -0.06   0.09
  15   6    -0.00   0.00  -0.00     0.01   0.02  -0.05    -0.04  -0.02   0.08
  16   6    -0.00  -0.00  -0.00     0.01   0.05  -0.21    -0.06  -0.04   0.20
  17   6     0.00  -0.00  -0.00     0.01   0.07  -0.29    -0.07  -0.01   0.17
  18   6     0.00  -0.00  -0.00     0.01   0.05  -0.20    -0.05   0.04   0.00
  19   6    -0.00  -0.00  -0.00     0.01   0.03  -0.07    -0.02   0.05  -0.09
  20   6    -0.00  -0.00  -0.00     0.01   0.01   0.00    -0.01   0.10  -0.25
  21   6    -0.00  -0.00  -0.00     0.01  -0.02   0.13     0.02   0.12  -0.36
  22   6    -0.00  -0.00  -0.00     0.01  -0.02   0.15     0.02   0.08  -0.26
  23   6    -0.00  -0.00  -0.00     0.01  -0.00   0.05     0.00   0.02  -0.07
  24   6    -0.00  -0.00  -0.00     0.01   0.01  -0.02    -0.02   0.02  -0.02
  25  17     0.52   0.24   0.26    -0.00   0.26  -0.28     0.15   0.30  -0.29
  26   1    -0.17  -0.08  -0.08    -0.08  -0.15   0.04    -0.02  -0.04   0.00
  27   1    -0.19  -0.08  -0.08     0.11   0.01   0.16     0.09   0.03   0.06
  28   1    -0.10  -0.17  -0.10     0.00   0.08  -0.09     0.02   0.08  -0.07
  29   1    -0.10   0.08  -0.00    -0.04  -0.18   0.09     0.00  -0.07   0.01
  30   1     0.01   0.00  -0.01    -0.13  -0.11  -0.05    -0.05  -0.03  -0.01
  31   1     0.00  -0.00  -0.03     0.01   0.03  -0.04    -0.00  -0.02  -0.00
  32   1     0.01  -0.00  -0.01     0.03   0.02   0.08    -0.00  -0.02   0.01
  33   1    -0.00  -0.00   0.02    -0.00  -0.03   0.14    -0.01  -0.02  -0.01
  34   1    -0.00  -0.00   0.01    -0.00  -0.02   0.11    -0.02  -0.01  -0.00
  35   1    -0.00   0.00  -0.00     0.01   0.01  -0.04     0.01  -0.02   0.08
  36   1    -0.00   0.00  -0.00     0.01   0.01  -0.05     0.01  -0.04   0.12
  37   1    -0.00   0.00   0.00     0.00   0.00  -0.02     0.01  -0.03   0.06
  38   1     0.00  -0.00  -0.00     0.00   0.02  -0.09    -0.02  -0.02   0.09
  39   1     0.00  -0.00   0.00     0.00   0.03  -0.12    -0.02  -0.01   0.08
  40   1     0.00  -0.00  -0.00     0.00   0.02  -0.07    -0.02   0.02  -0.01
  41   1    -0.00  -0.00  -0.00     0.00   0.01  -0.01    -0.00   0.04  -0.09
  42   1    -0.00  -0.00  -0.00     0.00  -0.01   0.06     0.01   0.05  -0.15
  43   1    -0.00  -0.00  -0.00     0.00  -0.01   0.07     0.01   0.03  -0.10
                      4                      5                      6
                        a                      a                      a 
 Frequencies --    22.7695                56.9137                61.7826
 Red. masses --    18.6307                23.2666                14.9926
 Frc consts  --     0.0000                 0.0000                 0.0000
 IR Inten    --     4.0518                17.1680                 6.9381
 Raman Activ --     0.0000                 0.0000                 0.0000
 Depolar     --     0.0000                 0.0000                 0.0000
 Atom AN      X      Y      Z        X      Y      Z        X      Y      Z
   1   7     0.31   0.08   0.16    -0.03   0.09  -0.24     0.09  -0.25   0.07
   2   6     0.13  -0.10   0.05    -0.05   0.01  -0.11    -0.04  -0.33  -0.17
   3   6    -0.05  -0.15   0.03     0.03  -0.15  -0.07     0.01   0.07  -0.22
   4   8    -0.05  -0.14  -0.07     0.05  -0.20   0.05     0.02   0.13  -0.40
   5   6    -0.06  -0.08  -0.12     0.04  -0.15   0.03     0.02   0.09  -0.21
   6   6    -0.08  -0.06  -0.17     0.00  -0.14   0.02     0.02   0.07  -0.11
   7   6    -0.10  -0.03  -0.17    -0.01  -0.10   0.02     0.02   0.04  -0.02
   8   6    -0.08  -0.02  -0.11     0.01  -0.07   0.02     0.02   0.04  -0.03
   9   6    -0.05  -0.03  -0.08     0.05  -0.07   0.00     0.01   0.04  -0.04
  10   6    -0.02  -0.01  -0.05     0.09  -0.02  -0.04    -0.00   0.00   0.09
  11   6     0.01  -0.01  -0.07     0.14  -0.01  -0.12    -0.02  -0.03   0.26
  12   6     0.02  -0.04  -0.10     0.15  -0.06  -0.13    -0.02  -0.01   0.19
  13   6     0.00  -0.06  -0.10     0.12  -0.11  -0.05    -0.00   0.05  -0.04
  14   6    -0.03  -0.06  -0.10     0.07  -0.11   0.00     0.01   0.07  -0.12
  15   6    -0.09   0.01  -0.06    -0.00  -0.02   0.02     0.02   0.01   0.02
  16   6    -0.13   0.02  -0.07    -0.05  -0.01   0.04     0.04   0.02  -0.01
  17   6    -0.14   0.03   0.01    -0.07   0.03   0.04     0.04   0.00   0.00
  18   6    -0.12   0.04   0.10    -0.04   0.07   0.02     0.03  -0.01   0.03
  19   6    -0.09   0.04   0.10     0.01   0.06   0.02     0.02  -0.01   0.04
  20   6    -0.07   0.05   0.19     0.04   0.10   0.03     0.01  -0.02   0.02
  21   6    -0.03   0.04   0.19     0.08   0.09   0.04     0.00  -0.01  -0.01
  22   6    -0.02   0.02   0.10     0.10   0.05   0.02    -0.00  -0.00   0.01
  23   6    -0.04   0.01   0.02     0.07   0.02  -0.00     0.00  -0.00   0.07
  24   6    -0.07   0.02   0.02     0.03   0.02   0.01     0.01  -0.00   0.05
  25  17     0.47   0.28   0.14    -0.50   0.41   0.29    -0.21   0.09   0.33
  26   1     0.09   0.00   0.05     0.03   0.10  -0.07     0.03  -0.14   0.03
  27   1     0.13   0.03   0.07    -0.02  -0.01  -0.14     0.07  -0.04   0.09
  28   1     0.06   0.07   0.03    -0.03   0.00   0.00    -0.00   0.01  -0.01
  29   1     0.07  -0.07  -0.01    -0.02   0.01  -0.03     0.00  -0.17  -0.00
  30   1     0.01  -0.02   0.02    -0.03   0.02  -0.00    -0.06  -0.13  -0.13
  31   1    -0.03  -0.05   0.04     0.01  -0.06  -0.02     0.01   0.05  -0.12
  32   1    -0.04  -0.05  -0.01     0.01  -0.06  -0.05     0.01   0.06   0.01
  33   1    -0.03  -0.02  -0.07    -0.00  -0.05   0.00     0.01   0.02  -0.02
  34   1    -0.04  -0.00  -0.06    -0.01  -0.03   0.00     0.01   0.01   0.02
  35   1     0.01   0.00  -0.02     0.05   0.01  -0.06    -0.01  -0.02   0.13
  36   1     0.01  -0.01  -0.03     0.05  -0.01  -0.06    -0.01  -0.01   0.09
  37   1     0.00  -0.02  -0.03     0.04  -0.04  -0.01    -0.00   0.02  -0.04
  38   1    -0.04   0.00  -0.04    -0.02  -0.01   0.02     0.01   0.01  -0.02
  39   1    -0.05   0.01   0.00    -0.03   0.01   0.01     0.01   0.00  -0.00
  40   1    -0.04   0.02   0.05    -0.01   0.03   0.01     0.01  -0.01   0.01
  41   1    -0.02   0.02   0.07     0.01   0.04   0.01     0.00  -0.01   0.00
  42   1    -0.01   0.01   0.07     0.03   0.03   0.02    -0.00  -0.00  -0.02
  43   1     0.00   0.01   0.03     0.04   0.01   0.01    -0.00   0.00  -0.01
                      7                      8                      9
                        a                      a                      a 
 Frequencies --    70.1535                99.3307               128.4626
 Red. masses --    11.7999                12.1321                10.1828
 Frc consts  --     0.0000                 0.0000                 0.0000
 IR Inten    --     3.3077                11.2721                 1.0365
 Raman Activ --     0.0000                 0.0000                 0.0000
 Depolar     --     0.0000                 0.0000                 0.0000
 Atom AN      X      Y      Z        X      Y      Z        X      Y      Z
   1   7    -0.13  -0.14   0.10    -0.13  -0.30   0.21     0.09   0.11  -0.12
   2   6    -0.07  -0.06   0.13     0.06  -0.03   0.16    -0.15  -0.19  -0.13
   3   6     0.01  -0.03   0.13    -0.01  -0.07   0.15    -0.02  -0.01  -0.13
   4   8     0.02  -0.03   0.18     0.02  -0.03   0.12     0.02   0.02  -0.06
   5   6     0.02   0.00   0.04     0.02   0.02  -0.05    -0.01   0.03   0.08
   6   6     0.02   0.02  -0.02     0.02   0.07  -0.26    -0.00   0.04   0.02
   7   6     0.03   0.04  -0.17     0.02   0.08  -0.33     0.00   0.05  -0.03
   8   6     0.03   0.06  -0.23     0.02   0.03  -0.10     0.00   0.05  -0.05
   9   6     0.03   0.04  -0.15     0.02   0.01  -0.01    -0.00   0.04  -0.01
  10   6     0.03   0.04  -0.16     0.02   0.00   0.04    -0.01   0.07  -0.19
  11   6     0.02   0.01  -0.01     0.02   0.02  -0.03    -0.02   0.10  -0.33
  12   6     0.01  -0.03   0.16     0.02   0.02  -0.04    -0.04   0.02   0.10
  13   6     0.02  -0.02   0.17     0.02   0.01   0.00    -0.03  -0.04   0.42
  14   6     0.02   0.01   0.00     0.02   0.01  -0.01    -0.01   0.01   0.17
  15   6     0.03   0.05  -0.21     0.02   0.01  -0.01     0.01   0.04  -0.08
  16   6     0.04   0.06  -0.26     0.02  -0.04   0.23     0.03  -0.02   0.16
  17   6     0.03  -0.01   0.02     0.03  -0.03   0.15     0.04  -0.04   0.17
  18   6     0.02  -0.07   0.31     0.04   0.03  -0.15     0.03  -0.02  -0.02
  19   6     0.02  -0.05   0.20     0.03   0.03  -0.17     0.01   0.01  -0.12
  20   6     0.02  -0.07   0.29     0.03   0.03  -0.16    -0.00  -0.04  -0.01
  21   6     0.02  -0.00  -0.01     0.01  -0.04   0.14    -0.03  -0.07   0.18
  22   6     0.03   0.05  -0.26     0.00  -0.06   0.27    -0.03  -0.03   0.10
  23   6     0.03   0.04  -0.18     0.02  -0.01   0.05    -0.01   0.04  -0.17
  24   6     0.03   0.01  -0.05     0.02   0.02  -0.08     0.01   0.04  -0.18
  25  17    -0.18   0.09  -0.10    -0.19   0.17  -0.14     0.08  -0.10   0.11
  26   1    -0.08  -0.08   0.02    -0.09  -0.15   0.06     0.03   0.04  -0.03
  27   1    -0.02  -0.02   0.07    -0.06  -0.04   0.13     0.09   0.02  -0.03
  28   1    -0.02  -0.02  -0.03    -0.00  -0.08  -0.02    -0.01   0.09  -0.03
  29   1    -0.03  -0.01   0.05    -0.00   0.06   0.02    -0.02  -0.15   0.01
  30   1    -0.01  -0.02   0.03     0.09  -0.01   0.06    -0.14  -0.06  -0.09
  31   1     0.01  -0.01   0.03    -0.00  -0.04   0.07     0.01   0.01  -0.09
  32   1     0.01  -0.01   0.05    -0.03  -0.02   0.03     0.02   0.02  -0.00
  33   1     0.01  -0.00   0.02     0.00   0.02  -0.11    -0.00   0.01  -0.00
  34   1     0.01   0.01  -0.06     0.01   0.04  -0.17     0.00   0.02  -0.03
  35   1     0.00  -0.00   0.01     0.01   0.01  -0.03    -0.00   0.05  -0.20
  36   1     0.00  -0.02   0.09     0.00   0.01  -0.02    -0.01   0.00   0.05
  37   1     0.00  -0.02   0.09     0.01   0.00   0.00    -0.01  -0.03   0.22
  38   1     0.01   0.03  -0.15     0.01  -0.03   0.15     0.01  -0.01   0.11
  39   1     0.01  -0.00   0.01     0.01  -0.02   0.09     0.02  -0.02   0.10
  40   1     0.00  -0.04   0.17     0.01   0.01  -0.07     0.01  -0.01  -0.00
  41   1     0.00  -0.04   0.16     0.01   0.01  -0.08    -0.00  -0.02   0.01
  42   1     0.01  -0.00  -0.01     0.00  -0.02   0.08    -0.01  -0.04   0.12
  43   1     0.01   0.03  -0.15    -0.00  -0.03   0.16    -0.02  -0.02   0.09
                     10                     11                     12
                        a                      a                      a 
 Frequencies --   150.3890               165.2754               183.2838
 Red. masses --    10.5160                10.3571                 9.6016
 Frc consts  --     0.0000                 0.0000                 0.0000
 IR Inten    --     6.4265                 7.2292                 4.6142
 Raman Activ --     0.0000                 0.0000                 0.0000
 Depolar     --     0.0000                 0.0000                 0.0000
 Atom AN      X      Y      Z        X      Y      Z        X      Y      Z
   1   7     0.05  -0.29   0.15     0.08  -0.03  -0.13     0.09  -0.12  -0.10
   2   6     0.32   0.16  -0.08    -0.05  -0.21  -0.03     0.15  -0.05   0.03
   3   6     0.04   0.09  -0.11    -0.07  -0.32  -0.00    -0.01  -0.29   0.05
   4   8    -0.01   0.07  -0.25     0.08  -0.16   0.09     0.09  -0.16   0.01
   5   6    -0.00  -0.02  -0.01    -0.01   0.05   0.07    -0.00   0.03  -0.03
   6   6    -0.00  -0.00  -0.08    -0.04   0.11  -0.19    -0.06   0.01   0.12
   7   6    -0.01  -0.05   0.13    -0.04   0.13  -0.17    -0.06   0.02   0.21
   8   6    -0.02  -0.06   0.18    -0.01   0.10   0.12    -0.02   0.09   0.04
   9   6    -0.01  -0.05   0.15    -0.01   0.07   0.24    -0.01   0.12  -0.14
  10   6    -0.01  -0.01  -0.04    -0.04   0.05   0.16    -0.04   0.09  -0.12
  11   6     0.00   0.03  -0.25    -0.05   0.11  -0.10    -0.05   0.04   0.15
  12   6    -0.00  -0.03   0.03    -0.05   0.13  -0.17    -0.04   0.03   0.17
  13   6    -0.02  -0.09   0.31    -0.03   0.10   0.05    -0.02   0.09  -0.07
  14   6    -0.02  -0.07   0.20     0.01   0.07   0.19     0.02   0.10  -0.13
  15   6    -0.03  -0.03   0.10     0.02   0.05   0.13    -0.00   0.06   0.05
  16   6    -0.05   0.01  -0.06     0.11   0.08  -0.08     0.06   0.02   0.20
  17   6    -0.05   0.05  -0.18     0.15   0.01  -0.14     0.09   0.01  -0.05
  18   6    -0.04   0.03  -0.07     0.10  -0.07   0.03     0.07   0.01  -0.24
  19   6    -0.03   0.01   0.06     0.03  -0.08   0.14     0.00  -0.01  -0.10
  20   6    -0.02   0.01   0.10    -0.01  -0.10  -0.03    -0.04  -0.12   0.19
  21   6    -0.01   0.03   0.00    -0.05  -0.05  -0.20    -0.08  -0.11   0.18
  22   6     0.00   0.03  -0.10    -0.08  -0.00  -0.09    -0.08   0.02  -0.14
  23   6    -0.01   0.00  -0.03    -0.04   0.01   0.15    -0.04   0.07  -0.17
  24   6    -0.02  -0.01   0.07    -0.01  -0.01   0.21    -0.02   0.06  -0.11
  25  17    -0.06   0.13  -0.08    -0.00   0.01   0.01    -0.02   0.08  -0.06
  26   1     0.03  -0.12   0.05     0.04   0.04  -0.04     0.10   0.10  -0.03
  27   1    -0.09  -0.05   0.06     0.05  -0.03  -0.08    -0.05  -0.09  -0.17
  28   1     0.03  -0.14   0.05    -0.00   0.01  -0.00     0.01  -0.12   0.09
  29   1     0.07   0.15  -0.09     0.00  -0.08  -0.02     0.04   0.04  -0.05
  30   1     0.24   0.04   0.01    -0.05  -0.04   0.02     0.09   0.01   0.07
  31   1    -0.01   0.02   0.02     0.00  -0.14   0.01    -0.00  -0.14   0.07
  32   1    -0.01   0.01  -0.06    -0.07  -0.10  -0.02    -0.06  -0.10  -0.03
  33   1     0.00   0.02  -0.09    -0.02   0.04  -0.13    -0.02  -0.01   0.05
  34   1    -0.00  -0.01   0.04    -0.01   0.06  -0.12    -0.02  -0.00   0.12
  35   1     0.00   0.03  -0.17    -0.02   0.04  -0.08    -0.02  -0.00   0.11
  36   1    -0.00  -0.01  -0.00    -0.01   0.05  -0.11    -0.02  -0.00   0.10
  37   1    -0.01  -0.04   0.15    -0.01   0.04   0.01    -0.01   0.04  -0.03
  38   1    -0.01   0.00  -0.03     0.04   0.04  -0.06     0.02  -0.00   0.13
  39   1    -0.02   0.02  -0.10     0.06   0.01  -0.09     0.04   0.00  -0.02
  40   1    -0.01   0.02  -0.03     0.04  -0.03  -0.01     0.02   0.00  -0.12
  41   1    -0.01   0.00   0.05     0.00  -0.04  -0.03    -0.01  -0.06   0.12
  42   1    -0.00   0.01  -0.00    -0.02  -0.01  -0.12    -0.03  -0.05   0.12
  43   1     0.00   0.01  -0.06    -0.04   0.01  -0.06    -0.04   0.02  -0.08
                     13                     14                     15
                        a                      a                      a 
 Frequencies --   190.0882               242.0532               248.1513
 Red. masses --     9.4382                 4.8578                10.2824
 Frc consts  --     0.0000                 0.0000                 0.0000
 IR Inten    --     3.5746                 1.4865                 3.9121
 Raman Activ --     0.0000                 0.0000                 0.0000
 Depolar     --     0.0000                 0.0000                 0.0000
 Atom AN      X      Y      Z        X      Y      Z        X      Y      Z
   1   7     0.10  -0.15  -0.04     0.00  -0.08   0.10     0.13  -0.11  -0.09
   2   6     0.20   0.00  -0.04    -0.10  -0.21   0.10     0.16   0.01  -0.17
   3   6     0.04  -0.12  -0.04     0.01   0.12   0.07     0.21   0.08  -0.15
   4   8     0.06  -0.08  -0.07    -0.01   0.14  -0.02     0.17  -0.03   0.13
   5   6     0.00   0.00   0.05     0.02   0.05   0.05     0.08  -0.00   0.29
   6   6    -0.03  -0.02   0.20     0.06   0.05  -0.00     0.04   0.03   0.18
   7   6    -0.04   0.01   0.15     0.07   0.01  -0.12     0.05   0.07  -0.17
   8   6    -0.02   0.07  -0.08     0.03  -0.06  -0.03     0.00   0.00  -0.06
   9   6    -0.01   0.05  -0.03     0.01  -0.07   0.08     0.01  -0.05   0.21
  10   6    -0.03   0.03   0.04     0.02  -0.08   0.06    -0.03  -0.08   0.15
  11   6    -0.04   0.03   0.03    -0.03  -0.06   0.01    -0.10  -0.08   0.16
  12   6    -0.04   0.02   0.03    -0.06   0.00  -0.03    -0.11   0.04  -0.17
  13   6    -0.02   0.03   0.04    -0.05   0.01   0.02    -0.07   0.08  -0.13
  14   6     0.00   0.03   0.02    -0.01  -0.01   0.09     0.02  -0.02   0.24
  15   6    -0.01   0.09  -0.22     0.01  -0.06  -0.04    -0.03   0.02  -0.16
  16   6     0.02   0.09  -0.28    -0.06  -0.05  -0.01    -0.08  -0.01   0.03
  17   6     0.02  -0.04   0.19    -0.09   0.01  -0.03    -0.10   0.01   0.08
  18   6     0.00  -0.08   0.31    -0.07   0.05  -0.05    -0.10   0.03  -0.04
  19   6    -0.02   0.00  -0.08    -0.01   0.03  -0.01    -0.07   0.03  -0.10
  20   6    -0.03   0.03  -0.32     0.02   0.06   0.05    -0.08  -0.01   0.15
  21   6    -0.05  -0.01  -0.09     0.06   0.07   0.01    -0.05   0.01   0.06
  22   6    -0.07  -0.06   0.28     0.08   0.01  -0.04    -0.03   0.01  -0.14
  23   6    -0.04   0.01   0.08     0.03  -0.05  -0.01    -0.04  -0.02  -0.09
  24   6    -0.03   0.04  -0.11     0.02  -0.04  -0.03    -0.05   0.02  -0.19
  25  17    -0.02   0.08  -0.05     0.05   0.08  -0.13    -0.02  -0.01   0.04
  26   1     0.10   0.06  -0.01     0.29   0.36   0.02    -0.02  -0.13  -0.02
  27   1    -0.06  -0.08  -0.12    -0.17  -0.19  -0.38     0.06   0.02   0.08
  28   1     0.01  -0.12   0.10    -0.10  -0.20   0.41     0.06   0.01  -0.11
  29   1     0.05   0.06  -0.06    -0.02  -0.11   0.06     0.04   0.00  -0.03
  30   1     0.12   0.01   0.03    -0.08  -0.08  -0.02     0.07  -0.02  -0.08
  31   1     0.00  -0.06   0.03     0.01   0.08  -0.04     0.06   0.05  -0.07
  32   1    -0.02  -0.05  -0.04     0.03   0.08   0.10     0.11   0.01  -0.04
  33   1    -0.01  -0.01   0.08     0.02   0.02   0.01     0.02   0.01   0.04
  34   1    -0.01  -0.01   0.09     0.03   0.01  -0.07     0.03   0.04  -0.15
  35   1    -0.01   0.01   0.01    -0.01  -0.02  -0.01    -0.04  -0.04   0.07
  36   1    -0.01   0.01   0.01    -0.03   0.01  -0.04    -0.04   0.03  -0.13
  37   1    -0.01   0.01   0.02    -0.01   0.01  -0.01    -0.02   0.06  -0.11
  38   1     0.01   0.05  -0.16    -0.03  -0.03   0.01    -0.03  -0.02   0.06
  39   1     0.01  -0.03   0.13    -0.04   0.00  -0.00    -0.03  -0.01   0.07
  40   1    -0.00  -0.05   0.20    -0.02   0.02  -0.01    -0.03   0.01   0.00
  41   1    -0.00   0.02  -0.17     0.00   0.02   0.04    -0.03  -0.01   0.11
  42   1    -0.02  -0.00  -0.05     0.02   0.03   0.01    -0.01   0.00   0.06
  43   1    -0.03  -0.04   0.19     0.03   0.00  -0.02    -0.01   0.01  -0.05
                     16                     17                     18
                        a                      a                      a 
 Frequencies --   260.6715               288.4532               306.9156
 Red. masses --    10.9422                 9.9954                10.4927
 Frc consts  --     0.0000                 0.0000                 0.0000
 IR Inten    --     6.3780                 0.6254                 1.6469
 Raman Activ --     0.0000                 0.0000                 0.0000
 Depolar     --     0.0000                 0.0000                 0.0000
 Atom AN      X      Y      Z        X      Y      Z        X      Y      Z
   1   7    -0.09   0.05   0.26    -0.05   0.07  -0.00    -0.02  -0.01   0.28
   2   6    -0.12   0.08  -0.12    -0.07   0.01   0.04    -0.07   0.08  -0.35
   3   6    -0.22   0.06  -0.14    -0.25  -0.25   0.05    -0.13  -0.08  -0.32
   4   8    -0.26  -0.03  -0.11    -0.05   0.06  -0.17    -0.03  -0.16   0.29
   5   6    -0.15  -0.16   0.07    -0.06   0.12  -0.04    -0.06   0.01   0.13
   6   6    -0.10  -0.15   0.03    -0.02   0.12  -0.09    -0.04   0.01   0.15
   7   6    -0.12  -0.04  -0.03     0.03  -0.05   0.15    -0.00  -0.00  -0.07
   8   6    -0.03   0.05   0.03     0.03  -0.09   0.14     0.01   0.02  -0.15
   9   6    -0.06   0.01   0.19     0.02  -0.07   0.16     0.02   0.04  -0.21
  10   6     0.00   0.09   0.14     0.05  -0.08   0.05     0.02  -0.00  -0.10
  11   6     0.15   0.07   0.14    -0.11  -0.05   0.05    -0.10   0.00  -0.02
  12   6     0.22  -0.00  -0.08    -0.17   0.10  -0.01    -0.14   0.06   0.04
  13   6     0.14  -0.09  -0.09    -0.14   0.14  -0.03    -0.11   0.09   0.04
  14   6    -0.05  -0.11   0.15    -0.04   0.08   0.12    -0.02   0.09  -0.07
  15   6     0.02   0.10  -0.12     0.06  -0.12  -0.10     0.04  -0.07   0.04
  16   6     0.14   0.06  -0.02    -0.00  -0.10  -0.12     0.02  -0.08   0.06
  17   6     0.19  -0.04   0.06    -0.06  -0.04   0.05    -0.00  -0.00  -0.05
  18   6     0.17  -0.05   0.00    -0.01   0.02   0.09     0.02   0.03  -0.06
  19   6     0.10  -0.01  -0.11     0.07   0.05  -0.13     0.05  -0.01   0.12
  20   6     0.05  -0.10   0.06     0.15   0.12   0.05     0.10   0.07  -0.01
  21   6    -0.02  -0.08   0.03     0.22   0.09   0.10     0.13   0.07  -0.04
  22   6    -0.05   0.05  -0.08     0.24   0.00  -0.04     0.13  -0.01   0.07
  23   6     0.01   0.12  -0.07     0.14  -0.09  -0.14     0.07  -0.08   0.08
  24   6     0.05   0.12  -0.17     0.11  -0.05  -0.22     0.05  -0.08   0.16
  25  17     0.04   0.01  -0.03    -0.01  -0.01   0.01     0.04   0.02  -0.02
  26   1     0.08   0.01   0.09    -0.07  -0.03  -0.00     0.13  -0.06   0.11
  27   1    -0.08   0.01   0.05     0.03   0.04   0.06    -0.08   0.02   0.10
  28   1    -0.05  -0.00   0.15    -0.00   0.06  -0.07    -0.05   0.01   0.16
  29   1    -0.01   0.02  -0.07    -0.00   0.04  -0.05     0.01   0.02  -0.16
  30   1    -0.00   0.02  -0.04    -0.00   0.04   0.08     0.04   0.01  -0.10
  31   1    -0.07   0.02  -0.03    -0.05  -0.18   0.09    -0.02  -0.06  -0.09
  32   1    -0.05   0.01  -0.05    -0.20  -0.08  -0.03    -0.00  -0.07  -0.15
  33   1    -0.03  -0.04  -0.03    -0.00   0.05  -0.10    -0.01   0.00   0.08
  34   1    -0.05   0.00  -0.06     0.03  -0.02   0.05     0.00  -0.00  -0.01
  35   1     0.06   0.04   0.05    -0.05  -0.03   0.00    -0.04  -0.02   0.02
  36   1     0.09   0.01  -0.08    -0.07   0.04  -0.03    -0.05   0.01   0.04
  37   1     0.05  -0.05  -0.09    -0.04   0.06  -0.05    -0.04   0.03   0.05
  38   1     0.05   0.03   0.03    -0.01  -0.05  -0.03    -0.00  -0.03   0.01
  39   1     0.06  -0.02   0.06    -0.04  -0.02   0.06    -0.01   0.01  -0.05
  40   1     0.05  -0.03   0.03    -0.01   0.01   0.09     0.00   0.03  -0.07
  41   1     0.02  -0.05   0.07     0.03   0.05   0.06     0.03   0.04  -0.04
  42   1    -0.02  -0.05   0.04     0.07   0.03   0.08     0.05   0.04  -0.05
  43   1    -0.03   0.02  -0.02     0.09  -0.01   0.01     0.05  -0.00   0.00
                     19                     20                     21
                        a                      a                      a 
 Frequencies --   338.2407               350.2994               376.5155
 Red. masses --    11.1213                11.2605                10.6976
 Frc consts  --     0.0000                 0.0000                 0.0000
 IR Inten    --     0.4487                 0.1684                 4.5834
 Raman Activ --     0.0000                 0.0000                 0.0000
 Depolar     --     0.0000                 0.0000                 0.0000
 Atom AN      X      Y      Z        X      Y      Z        X      Y      Z
   1   7     0.07  -0.03  -0.18     0.01  -0.02  -0.03     0.13  -0.12  -0.17
   2   6     0.13  -0.00   0.15     0.01  -0.01   0.01     0.15  -0.06   0.03
   3   6    -0.08  -0.02   0.12     0.04   0.04   0.01     0.16   0.24   0.03
   4   8    -0.17   0.07  -0.36    -0.07  -0.10   0.05    -0.19  -0.17   0.20
   5   6    -0.13  -0.06   0.09    -0.03  -0.12  -0.05    -0.17  -0.09   0.01
   6   6    -0.09  -0.12   0.35     0.08  -0.14  -0.11    -0.20  -0.05  -0.12
   7   6    -0.06  -0.01  -0.19     0.09  -0.17  -0.01    -0.22  -0.00  -0.03
   8   6    -0.02   0.05  -0.31     0.12  -0.10   0.05    -0.14   0.03   0.15
   9   6    -0.05   0.01  -0.08    -0.03  -0.12  -0.00    -0.11   0.07   0.05
  10   6    -0.01   0.01   0.09    -0.09  -0.15  -0.05    -0.00   0.17  -0.06
  11   6    -0.05   0.04  -0.02    -0.26  -0.16  -0.04    -0.05   0.18   0.03
  12   6    -0.06   0.05  -0.07    -0.30  -0.15  -0.02    -0.04   0.11   0.10
  13   6    -0.08  -0.02   0.10    -0.25  -0.09  -0.05    -0.10   0.05  -0.08
  14   6    -0.08  -0.01   0.03    -0.05  -0.12  -0.03    -0.11   0.03  -0.01
  15   6     0.03  -0.00  -0.13     0.10   0.14   0.07    -0.04  -0.12   0.09
  16   6     0.06  -0.06   0.11     0.24   0.17   0.02     0.01  -0.12  -0.05
  17   6     0.07  -0.03   0.03     0.27   0.17   0.03     0.01  -0.12  -0.08
  18   6     0.09   0.04  -0.15     0.22   0.12   0.07     0.06  -0.08   0.09
  19   6     0.07  -0.01   0.12     0.07   0.15   0.01     0.10  -0.05  -0.03
  20   6     0.11   0.03   0.11     0.04   0.13   0.01     0.17   0.04  -0.07
  21   6     0.11   0.07  -0.10    -0.07   0.15   0.06     0.19   0.00   0.08
  22   6     0.09   0.04   0.02    -0.08   0.16   0.03     0.16   0.03   0.02
  23   6     0.04  -0.03   0.18    -0.11   0.09  -0.03     0.10   0.02  -0.12
  24   6     0.06  -0.02   0.12     0.04   0.12   0.00     0.07  -0.02  -0.02
  25  17    -0.02  -0.00   0.01    -0.00  -0.00   0.00    -0.01   0.00   0.01
  26   1    -0.08   0.00  -0.07    -0.00   0.00  -0.01    -0.01   0.00  -0.06
  27   1     0.05  -0.01  -0.05     0.01  -0.01  -0.01     0.05  -0.04  -0.07
  28   1     0.05  -0.02  -0.12     0.01  -0.01  -0.01     0.05  -0.05  -0.07
  29   1     0.03   0.03   0.03     0.00  -0.01   0.01     0.03  -0.04   0.06
  30   1     0.05   0.02   0.08    -0.00  -0.01  -0.01     0.02  -0.05  -0.05
  31   1    -0.05  -0.00   0.08    -0.00   0.06  -0.02    -0.00   0.21  -0.05
  32   1    -0.07   0.01   0.05     0.06   0.01   0.02     0.19   0.08   0.06
  33   1    -0.02  -0.04   0.18     0.04  -0.02  -0.04    -0.04   0.00  -0.04
  34   1    -0.02   0.01  -0.10     0.02  -0.05   0.00    -0.08   0.01  -0.03
  35   1    -0.02   0.01  -0.01    -0.09  -0.06  -0.02    -0.01   0.06   0.01
  36   1    -0.01   0.02  -0.04    -0.09  -0.04  -0.00     0.01   0.02   0.06
  37   1    -0.02  -0.02   0.07    -0.08   0.01  -0.01    -0.02   0.01  -0.05
  38   1     0.02  -0.02   0.07     0.08   0.06   0.00     0.00  -0.03  -0.03
  39   1     0.01  -0.01   0.00     0.08   0.05   0.01    -0.01  -0.03  -0.04
  40   1     0.03   0.03  -0.12     0.08  -0.00   0.03     0.01  -0.01   0.06
  41   1     0.03   0.01   0.03     0.02   0.02  -0.00     0.04   0.03  -0.03
  42   1     0.03   0.03  -0.09    -0.03   0.03   0.03     0.05  -0.01   0.06
  43   1     0.03   0.02  -0.03    -0.02   0.04   0.02     0.05   0.00   0.02
                     22                     23                     24
                        a                      a                      a 
 Frequencies --   405.1288               423.3472               428.8351
 Red. masses --     9.8911                 9.6421                10.4585
 Frc consts  --     0.0000                 0.0000                 0.0000
 IR Inten    --     0.3874                 0.5674                 0.9296
 Raman Activ --     0.0000                 0.0000                 0.0000
 Depolar     --     0.0000                 0.0000                 0.0000
 Atom AN      X      Y      Z        X      Y      Z        X      Y      Z
   1   7     0.00  -0.01   0.00     0.02  -0.01  -0.02    -0.06   0.05   0.07
   2   6    -0.00  -0.01  -0.01     0.02  -0.01   0.00    -0.04   0.05   0.01
   3   6     0.09   0.06  -0.00    -0.07  -0.02  -0.00     0.09   0.00   0.01
   4   8     0.00  -0.11   0.16    -0.02   0.07  -0.07     0.08  -0.05  -0.06
   5   6    -0.01   0.01  -0.20    -0.01  -0.00   0.14     0.05  -0.01  -0.12
   6   6    -0.04   0.02  -0.25     0.04  -0.00   0.11    -0.13  -0.03   0.12
   7   6    -0.06  -0.05   0.27     0.06   0.02  -0.15    -0.16   0.11  -0.09
   8   6    -0.03   0.06  -0.13     0.03  -0.04  -0.00    -0.11   0.12   0.10
   9   6    -0.01   0.06  -0.15    -0.02  -0.02  -0.01     0.09   0.02   0.18
  10   6    -0.01  -0.02   0.22     0.00   0.03  -0.13     0.01  -0.13   0.08
  11   6    -0.04   0.03   0.06     0.03   0.00  -0.01    -0.02  -0.09  -0.18
  12   6    -0.02   0.08  -0.25     0.03  -0.01   0.04    -0.04  -0.12   0.13
  13   6    -0.04  -0.04   0.24     0.01  -0.00  -0.05     0.07   0.05  -0.05
  14   6    -0.00   0.00   0.01    -0.03  -0.01   0.04     0.12   0.06  -0.16
  15   6    -0.01   0.03  -0.15     0.02  -0.06   0.20    -0.11   0.12   0.02
  16   6     0.01   0.01  -0.13    -0.01   0.04  -0.24     0.14   0.12  -0.05
  17   6     0.00  -0.08   0.28    -0.04  -0.04   0.24     0.20  -0.04   0.08
  18   6     0.02   0.02  -0.22     0.00   0.06  -0.08     0.01  -0.20  -0.08
  19   6     0.01   0.02  -0.18     0.05   0.06  -0.18    -0.28  -0.10  -0.12
  20   6     0.02  -0.02   0.12     0.02   0.03  -0.26    -0.11   0.13   0.04
  21   6     0.04   0.00   0.01    -0.06  -0.10   0.38     0.18   0.11   0.06
  22   6     0.04   0.04  -0.14    -0.04   0.05  -0.26     0.20   0.04  -0.06
  23   6     0.01  -0.06   0.28    -0.01   0.03   0.01     0.02  -0.16   0.04
  24   6    -0.00  -0.02   0.07     0.03  -0.07   0.40    -0.26  -0.09   0.01
  25  17     0.00  -0.00   0.00    -0.00   0.00   0.00     0.00  -0.00  -0.00
  26   1     0.01  -0.00   0.00    -0.00  -0.00  -0.01     0.01   0.01   0.02
  27   1    -0.00  -0.00   0.00     0.01  -0.01  -0.01    -0.03   0.02   0.02
  28   1    -0.00  -0.00   0.01     0.01  -0.00  -0.01    -0.02   0.01   0.03
  29   1    -0.01  -0.02   0.02     0.01   0.01  -0.02    -0.02   0.01   0.03
  30   1    -0.02  -0.01  -0.03     0.02   0.00   0.01    -0.02   0.01  -0.00
  31   1     0.02   0.06  -0.03    -0.01  -0.03   0.02     0.02   0.01  -0.01
  32   1     0.09   0.01   0.01    -0.05  -0.00  -0.00     0.04  -0.00   0.00
  33   1    -0.01   0.01  -0.06     0.01   0.00   0.03    -0.06  -0.04   0.09
  34   1    -0.03  -0.05   0.24     0.02   0.01  -0.08    -0.05   0.04  -0.08
  35   1    -0.01   0.00   0.05     0.01  -0.01   0.03     0.01   0.00  -0.13
  36   1     0.00   0.04  -0.15     0.01  -0.01   0.04    -0.04  -0.04   0.09
  37   1    -0.01  -0.02   0.13     0.01  -0.01  -0.02     0.01   0.04  -0.01
  38   1     0.00   0.01  -0.09    -0.00   0.04  -0.24     0.06   0.06  -0.02
  39   1    -0.00  -0.05   0.19    -0.02  -0.02   0.13     0.10  -0.03   0.06
  40   1     0.01   0.01  -0.09    -0.00   0.03  -0.04     0.03  -0.14  -0.03
  41   1     0.00  -0.01   0.09     0.01   0.00  -0.13    -0.07   0.12   0.05
  42   1     0.01   0.00   0.00    -0.03  -0.06   0.23     0.08   0.06   0.05
  43   1     0.02   0.03  -0.13    -0.01   0.05  -0.22     0.09   0.01  -0.04
                     25                     26                     27
                        a                      a                      a 
 Frequencies --   433.4632               464.5723               477.8360
 Red. masses --    10.2961                11.4744                11.7494
 Frc consts  --     0.0000                 0.0000                 0.0000
 IR Inten    --     0.0419                 4.2566                 3.4824
 Raman Activ --     0.0000                 0.0000                 0.0000
 Depolar     --     0.0000                 0.0000                 0.0000
 Atom AN      X      Y      Z        X      Y      Z        X      Y      Z
   1   7    -0.02   0.02   0.04    -0.12   0.10   0.11    -0.14   0.11   0.14
   2   6    -0.01   0.03  -0.02    -0.06   0.07   0.07    -0.10   0.07   0.02
   3   6     0.04  -0.04  -0.01     0.15   0.01   0.04     0.22  -0.11   0.01
   4   8     0.02  -0.11   0.06    -0.01  -0.25  -0.28     0.33   0.00  -0.20
   5   6    -0.01   0.01  -0.22    -0.00  -0.20  -0.05     0.23  -0.08  -0.04
   6   6     0.05  -0.08   0.14    -0.07  -0.23  -0.04     0.08  -0.06   0.03
   7   6     0.06  -0.04  -0.11    -0.09  -0.15  -0.06    -0.05   0.23   0.01
   8   6     0.06  -0.07   0.11     0.10   0.09  -0.03    -0.13   0.12  -0.02
   9   6    -0.03  -0.05   0.26     0.23   0.09  -0.00    -0.13   0.10   0.01
  10   6    -0.00   0.04   0.25     0.12  -0.01  -0.03    -0.11   0.18   0.04
  11   6    -0.03   0.16  -0.24    -0.11   0.00   0.08    -0.21   0.19   0.09
  12   6    -0.04   0.03   0.26    -0.15   0.15  -0.05    -0.10  -0.12  -0.09
  13   6    -0.07   0.04  -0.08    -0.02   0.22   0.10    -0.18  -0.25  -0.01
  14   6    -0.01   0.07  -0.32     0.21   0.11   0.13     0.01  -0.24  -0.00
  15   6     0.07  -0.05  -0.09     0.07   0.10   0.08    -0.05  -0.09   0.02
  16   6    -0.10  -0.03  -0.10    -0.10   0.15   0.07    -0.04  -0.12   0.01
  17   6    -0.15   0.00   0.09    -0.10   0.16  -0.03    -0.04  -0.13  -0.08
  18   6    -0.02   0.15  -0.04    -0.14   0.06   0.06     0.03  -0.05   0.04
  19   6     0.19   0.09  -0.10     0.03  -0.00   0.03     0.10  -0.04   0.01
  20   6     0.07  -0.13   0.11    -0.04  -0.13  -0.11     0.16   0.04  -0.05
  21   6    -0.09  -0.08  -0.10     0.02  -0.19   0.03     0.06   0.03   0.07
  22   6    -0.10  -0.03  -0.06     0.03  -0.17  -0.05     0.02   0.12   0.00
  23   6     0.01   0.04   0.17     0.12  -0.03  -0.08    -0.02   0.07  -0.04
  24   6     0.17   0.06  -0.05     0.04   0.01   0.03     0.05   0.01   0.02
  25  17     0.00  -0.00  -0.00     0.01  -0.00  -0.01     0.01  -0.00  -0.01
  26   1     0.01  -0.01   0.01    -0.01   0.02   0.03     0.02   0.01   0.05
  27   1    -0.02   0.01   0.02    -0.05   0.03   0.03    -0.06   0.04   0.05
  28   1    -0.01   0.01   0.02    -0.04   0.02   0.04    -0.05   0.03   0.07
  29   1    -0.01   0.01  -0.00    -0.04   0.02   0.06    -0.04   0.02   0.04
  30   1    -0.00   0.01  -0.01    -0.04   0.02   0.02    -0.05   0.03   0.01
  31   1     0.01   0.01  -0.01     0.01   0.08  -0.01     0.09  -0.07  -0.00
  32   1     0.05  -0.02  -0.01     0.11   0.00   0.04     0.02  -0.03  -0.01
  33   1     0.02  -0.03   0.13    -0.01  -0.06   0.00    -0.03  -0.08   0.01
  34   1     0.01   0.00  -0.09    -0.08  -0.04  -0.01    -0.04   0.07   0.01
  35   1    -0.01   0.07  -0.22    -0.06  -0.04   0.04    -0.03   0.08   0.04
  36   1     0.00  -0.01   0.16    -0.07   0.06  -0.05     0.05  -0.04  -0.05
  37   1    -0.02   0.01  -0.01    -0.02   0.12   0.03    -0.06  -0.05  -0.00
  38   1    -0.05  -0.03  -0.01    -0.06   0.02   0.00    -0.00  -0.03  -0.00
  39   1    -0.07  -0.01   0.09    -0.01   0.05  -0.04    -0.03  -0.03  -0.05
  40   1    -0.03   0.09   0.02    -0.04   0.04   0.02    -0.00   0.01   0.02
  41   1     0.04  -0.10   0.09    -0.00  -0.05  -0.06     0.05   0.02  -0.03
  42   1    -0.04  -0.04  -0.04     0.02  -0.04   0.03    -0.00  -0.02   0.03
  43   1    -0.05  -0.00  -0.02    -0.03  -0.04  -0.02     0.01   0.03   0.00
                     28                     29                     30
                        a                      a                      a 
 Frequencies --   498.5352               501.8285               532.2033
 Red. masses --    10.2347                11.2244                11.4274
 Frc consts  --     0.0000                 0.0000                 0.0000
 IR Inten    --     0.6105                 0.4668                 1.4175
 Raman Activ --     0.0000                 0.0000                 0.0000
 Depolar     --     0.0000                 0.0000                 0.0000
 Atom AN      X      Y      Z        X      Y      Z        X      Y      Z
   1   7    -0.02   0.01   0.01    -0.01   0.01   0.01    -0.10   0.08   0.09
   2   6    -0.02  -0.01   0.02    -0.00   0.00   0.01    -0.04   0.05   0.03
   3   6     0.03   0.01   0.01     0.01   0.01   0.01     0.23  -0.07   0.02
   4   8     0.03   0.02  -0.07    -0.03  -0.05  -0.03     0.16  -0.18  -0.15
   5   6     0.04  -0.09   0.20    -0.00  -0.07   0.02    -0.03   0.11  -0.07
   6   6     0.02  -0.01  -0.17     0.03  -0.05  -0.04    -0.16   0.11   0.00
   7   6    -0.02  -0.02   0.14    -0.02   0.12   0.04    -0.06  -0.19  -0.01
   8   6    -0.00   0.02   0.05     0.00   0.13   0.03    -0.08  -0.19  -0.12
   9   6     0.02   0.01   0.08    -0.05   0.14   0.04     0.01  -0.17   0.06
  10   6     0.02   0.08  -0.32    -0.08   0.12  -0.03     0.05  -0.06  -0.04
  11   6    -0.05   0.04  -0.09    -0.04   0.12   0.01     0.15  -0.07   0.00
  12   6    -0.06  -0.07   0.23     0.04  -0.04   0.03     0.06   0.20   0.07
  13   6    -0.03   0.04  -0.29     0.04  -0.04  -0.05     0.04   0.19   0.01
  14   6     0.03  -0.08   0.22     0.01  -0.04   0.03    -0.03   0.12   0.13
  15   6    -0.01   0.11  -0.23     0.14  -0.21  -0.07    -0.11  -0.16  -0.12
  16   6    -0.06   0.09  -0.11     0.25  -0.24  -0.06     0.08  -0.26  -0.04
  17   6    -0.04  -0.07   0.26     0.09   0.20   0.08     0.08  -0.21  -0.01
  18   6    -0.04   0.02  -0.30     0.10   0.26   0.01     0.22   0.01  -0.03
  19   6     0.02  -0.08   0.16    -0.11   0.23   0.07    -0.01   0.05   0.13
  20   6     0.05  -0.07   0.14    -0.28   0.13   0.04    -0.06   0.12  -0.02
  21   6     0.07  -0.01  -0.17    -0.20   0.11  -0.01    -0.18   0.14   0.06
  22   6     0.02  -0.01   0.17    -0.02  -0.35  -0.05    -0.15   0.15   0.03
  23   6     0.02   0.02   0.04     0.04  -0.26  -0.05    -0.09   0.14  -0.06
  24   6    -0.01   0.01   0.14     0.07  -0.24  -0.03    -0.02   0.03   0.07
  25  17     0.00  -0.00  -0.00     0.00  -0.00  -0.00     0.00  -0.00  -0.00
  26   1    -0.00   0.01   0.00    -0.00   0.00   0.00     0.01   0.00   0.03
  27   1    -0.00   0.00   0.00    -0.00   0.00   0.00    -0.05   0.03   0.04
  28   1    -0.01   0.01   0.01    -0.00   0.00   0.00    -0.03   0.02   0.04
  29   1    -0.01  -0.00   0.01    -0.00   0.00   0.01    -0.03   0.01   0.05
  30   1    -0.01  -0.00   0.00    -0.00   0.00   0.00    -0.04   0.02   0.01
  31   1     0.01   0.00  -0.00    -0.00   0.02  -0.00     0.05   0.04  -0.02
  32   1    -0.01   0.01   0.01     0.02   0.00   0.01     0.12  -0.02   0.02
  33   1    -0.00   0.01  -0.17    -0.01  -0.03  -0.03    -0.01   0.06   0.03
  34   1    -0.02   0.01  -0.00    -0.04   0.04   0.01     0.05  -0.07   0.02
  35   1    -0.02   0.00  -0.00     0.01   0.06   0.02     0.02  -0.04  -0.03
  36   1    -0.01  -0.04   0.14     0.04  -0.02   0.02    -0.03   0.07  -0.00
  37   1    -0.01   0.05  -0.16     0.01  -0.00  -0.03     0.03   0.04  -0.05
  38   1    -0.01   0.03  -0.04     0.03  -0.12  -0.03     0.05  -0.05  -0.01
  39   1     0.00  -0.04   0.14    -0.06   0.07   0.03    -0.04  -0.05  -0.02
  40   1    -0.01   0.04  -0.17     0.05   0.03  -0.02     0.06   0.01  -0.05
  41   1     0.01  -0.00  -0.01    -0.07   0.00  -0.00    -0.01   0.03  -0.05
  42   1     0.01   0.01  -0.16     0.00   0.10  -0.00    -0.06   0.03   0.01
  43   1    -0.01   0.00   0.02     0.07  -0.11  -0.02    -0.04   0.04   0.01
                     31                     32                     33
                        a                      a                      a 
 Frequencies --   550.5180               558.5895               576.0957
 Red. masses --    10.5299                11.3112                11.3222
 Frc consts  --     0.0000                 0.0000                 0.0000
 IR Inten    --     5.4950                 4.9898                 0.0345
 Raman Activ --     0.0000                 0.0000                 0.0000
 Depolar     --     0.0000                 0.0000                 0.0000
 Atom AN      X      Y      Z        X      Y      Z        X      Y      Z
   1   7     0.04  -0.03  -0.03     0.01  -0.01  -0.00     0.00  -0.00  -0.00
   2   6     0.02  -0.01  -0.02     0.01   0.00  -0.01    -0.01  -0.01  -0.01
   3   6    -0.07   0.01  -0.01     0.04   0.04  -0.00     0.00  -0.02  -0.00
   4   8    -0.07  -0.00   0.17     0.12   0.15   0.07     0.09   0.11   0.04
   5   6    -0.02   0.07  -0.32     0.05   0.12   0.00     0.06   0.01   0.01
   6   6     0.07  -0.00  -0.02    -0.35   0.19   0.03     0.05  -0.01  -0.01
   7   6     0.05   0.01   0.15    -0.32   0.11   0.03     0.06  -0.16  -0.02
   8   6     0.05   0.11  -0.32    -0.26   0.05  -0.02    -0.06  -0.22  -0.06
   9   6    -0.04  -0.03   0.29     0.05  -0.10   0.00    -0.02  -0.20  -0.04
  10   6    -0.04  -0.01   0.16     0.10  -0.19  -0.02     0.24   0.15   0.05
  11   6    -0.02   0.02  -0.03     0.02  -0.25  -0.06     0.02   0.27   0.05
  12   6     0.00  -0.07   0.08    -0.04  -0.20  -0.04    -0.01   0.27   0.07
  13   6     0.00  -0.04  -0.06     0.01  -0.09  -0.02    -0.31  -0.11  -0.04
  14   6    -0.03  -0.05   0.11     0.02  -0.05  -0.01    -0.10  -0.15  -0.04
  15   6     0.05   0.10  -0.25    -0.12   0.03  -0.02    -0.16   0.08  -0.00
  16   6    -0.02   0.04   0.14    -0.00   0.03   0.02     0.03   0.07   0.03
  17   6    -0.02   0.06  -0.01     0.01   0.12   0.02     0.10   0.04  -0.00
  18   6    -0.07  -0.02  -0.01     0.17   0.27   0.06     0.08   0.02   0.02
  19   6    -0.02  -0.11   0.33     0.20   0.16   0.06    -0.18   0.07   0.01
  20   6     0.03   0.03  -0.22     0.03  -0.14  -0.05    -0.32  -0.07  -0.04
  21   6     0.04  -0.06   0.20     0.04  -0.19  -0.02     0.11  -0.15  -0.01
  22   6     0.04  -0.00  -0.11     0.04  -0.15  -0.04     0.14  -0.16  -0.04
  23   6     0.01   0.01  -0.24     0.13   0.01  -0.01     0.26   0.06   0.04
  24   6    -0.01  -0.05   0.12     0.10   0.11   0.03    -0.12   0.12   0.02
  25  17    -0.00   0.00   0.00    -0.00   0.00  -0.00     0.00   0.00  -0.00
  26   1     0.00  -0.00  -0.01     0.01  -0.00  -0.00     0.01  -0.00   0.00
  27   1     0.01  -0.01  -0.01    -0.00  -0.00  -0.00     0.00  -0.00   0.00
  28   1     0.01  -0.01  -0.01     0.00  -0.01   0.00    -0.00   0.00   0.00
  29   1     0.01  -0.01  -0.02    -0.00  -0.01   0.02    -0.00  -0.00  -0.01
  30   1     0.01  -0.01  -0.01    -0.01  -0.01  -0.02    -0.00  -0.00  -0.00
  31   1    -0.02  -0.00   0.00     0.03  -0.04   0.01     0.02  -0.05   0.01
  32   1    -0.01  -0.00  -0.01    -0.04   0.00  -0.02    -0.04  -0.00  -0.01
  33   1     0.02  -0.02   0.09    -0.13   0.01   0.00     0.02  -0.00  -0.01
  34   1    -0.00  -0.02   0.15    -0.06   0.03   0.02     0.07  -0.06  -0.00
  35   1     0.01   0.05  -0.15    -0.01  -0.09  -0.03    -0.04   0.03  -0.00
  36   1     0.01  -0.00  -0.05    -0.04  -0.05  -0.02     0.09   0.06   0.02
  37   1     0.00   0.01  -0.13    -0.00  -0.02  -0.01    -0.07  -0.08  -0.02
  38   1    -0.01   0.01   0.04     0.00   0.02   0.01     0.04   0.06   0.02
  39   1     0.02   0.03  -0.08    -0.05   0.05   0.00     0.03   0.01  -0.00
  40   1    -0.01   0.02  -0.13     0.03   0.12   0.02     0.04  -0.03   0.00
  41   1     0.01   0.04  -0.18     0.03  -0.09  -0.03    -0.11   0.02  -0.00
  42   1     0.01  -0.02   0.07     0.02  -0.05  -0.00     0.08   0.02   0.01
  43   1     0.02  -0.00  -0.03    -0.03  -0.04  -0.01    -0.02  -0.03  -0.02
                     34                     35                     36
                        a                      a                      a 
 Frequencies --   592.1727               619.7411               625.3207
 Red. masses --    10.3868                 9.3572                10.9367
 Frc consts  --     0.0000                 0.0000                 0.0000
 IR Inten    --     0.8844                 0.0441                 9.2069
 Raman Activ --     0.0000                 0.0000                 0.0000
 Depolar     --     0.0000                 0.0000                 0.0000
 Atom AN      X      Y      Z        X      Y      Z        X      Y      Z
   1   7     0.01  -0.01  -0.00     0.01  -0.01  -0.00    -0.07   0.06   0.05
   2   6     0.01   0.01  -0.01    -0.00  -0.01  -0.00    -0.01   0.03   0.02
   3   6    -0.01  -0.01  -0.00    -0.02   0.02   0.00     0.21  -0.13   0.01
   4   8    -0.01  -0.02   0.06    -0.00   0.03   0.03     0.01  -0.31  -0.17
   5   6    -0.01   0.09  -0.28     0.02  -0.02  -0.01    -0.19   0.21   0.02
   6   6     0.00  -0.00   0.17    -0.00  -0.04   0.05    -0.03   0.29   0.06
   7   6     0.03   0.04  -0.15    -0.01  -0.00  -0.02     0.12   0.05   0.00
   8   6    -0.00  -0.04   0.17    -0.02  -0.09   0.44     0.04  -0.07   0.04
   9   6    -0.03  -0.04   0.11     0.02  -0.01   0.06    -0.24  -0.07  -0.02
  10   6     0.00   0.03  -0.10     0.02   0.03  -0.16    -0.12   0.01  -0.10
  11   6     0.00  -0.04   0.21    -0.01  -0.02   0.10     0.11  -0.04  -0.00
  12   6     0.02   0.04  -0.20    -0.01   0.04  -0.19     0.12  -0.02  -0.01
  13   6    -0.02  -0.07   0.19     0.00  -0.02   0.15    -0.03  -0.13  -0.04
  14   6    -0.04   0.00  -0.08     0.04   0.06  -0.26    -0.32  -0.01   0.04
  15   6    -0.00  -0.02   0.21     0.01   0.09  -0.46     0.09   0.11  -0.03
  16   6     0.01   0.08  -0.20    -0.00  -0.02   0.01     0.02   0.19   0.06
  17   6    -0.00  -0.02   0.26    -0.00  -0.02  -0.03     0.02   0.25   0.01
  18   6    -0.01   0.05  -0.22     0.01   0.01  -0.04    -0.14   0.01   0.02
  19   6    -0.01  -0.04   0.17    -0.01  -0.05   0.28     0.01  -0.04  -0.04
  20   6    -0.01  -0.04   0.11    -0.00   0.03  -0.13     0.08  -0.05  -0.01
  21   6     0.03   0.01  -0.16    -0.02  -0.03   0.18     0.12  -0.08   0.01
  22   6     0.02  -0.06   0.18    -0.01   0.03  -0.08     0.08  -0.08  -0.02
  23   6     0.03   0.08  -0.44    -0.00  -0.02   0.13    -0.02  -0.14   0.07
  24   6    -0.00  -0.01   0.02     0.00   0.01  -0.02     0.01  -0.07  -0.01
  25  17     0.00   0.00  -0.00    -0.00   0.00  -0.00     0.00  -0.00  -0.00
  26   1     0.00  -0.00  -0.00     0.00   0.00  -0.00     0.00  -0.01   0.02
  27   1    -0.00  -0.00  -0.00     0.00  -0.00  -0.00    -0.04   0.03   0.03
  28   1     0.00  -0.00   0.00     0.00  -0.00  -0.00    -0.02   0.02   0.03
  29   1     0.00   0.00  -0.00     0.00  -0.00  -0.00    -0.02   0.03   0.02
  30   1     0.01   0.00  -0.00     0.00  -0.00  -0.00    -0.01   0.02   0.03
  31   1    -0.01  -0.00   0.00     0.00  -0.01   0.00     0.01   0.10  -0.05
  32   1     0.01  -0.01  -0.01    -0.02   0.00  -0.00     0.20  -0.03   0.05
  33   1     0.00  -0.01   0.13    -0.00  -0.00  -0.07     0.05   0.15   0.04
  34   1     0.01   0.01  -0.05    -0.00   0.04  -0.20     0.08   0.01  -0.02
  35   1     0.00  -0.01   0.06    -0.01  -0.04   0.18     0.05   0.00   0.04
  36   1     0.01   0.02  -0.12    -0.01  -0.00   0.03     0.04  -0.01   0.01
  37   1    -0.00  -0.03   0.05    -0.01  -0.03   0.18     0.02  -0.13  -0.03
  38   1     0.01   0.05  -0.18    -0.01  -0.05   0.20    -0.01   0.03   0.06
  39   1     0.01  -0.00   0.06    -0.01  -0.02   0.06     0.05   0.06   0.03
  40   1     0.00   0.03  -0.17     0.00   0.00   0.00    -0.03  -0.02   0.03
  41   1    -0.00  -0.01   0.03     0.01   0.04  -0.20     0.02  -0.00  -0.01
  42   1     0.01   0.01  -0.05    -0.00   0.01  -0.04     0.04  -0.02  -0.02
  43   1    -0.00  -0.05   0.19     0.00   0.04  -0.18     0.05  -0.02  -0.05
                     37                     38                     39
                        a                      a                      a 
 Frequencies --   654.7097               695.8573               726.6275
 Red. masses --    11.0135                11.2603                11.5617
 Frc consts  --     0.0000                 0.0000                 0.0000
 IR Inten    --     2.3940                22.8993                 2.1740
 Raman Activ --     0.0000                 0.0000                 0.0000
 Depolar     --     0.0000                 0.0000                 0.0000
 Atom AN      X      Y      Z        X      Y      Z        X      Y      Z
   1   7    -0.02   0.02   0.01    -0.01   0.01   0.00    -0.00   0.00   0.00
   2   6    -0.01  -0.00   0.01    -0.00  -0.01   0.02     0.00  -0.00   0.00
   3   6     0.05  -0.02   0.00    -0.10  -0.04  -0.00     0.00  -0.00  -0.00
   4   8     0.01  -0.03  -0.14    -0.26  -0.30  -0.09     0.00   0.00  -0.02
   5   6    -0.03  -0.09   0.52    -0.05  -0.01   0.01    -0.00  -0.04   0.19
   6   6    -0.01   0.07  -0.18     0.29   0.08   0.01     0.00   0.03  -0.13
   7   6     0.00  -0.02   0.10     0.20   0.39   0.09    -0.01  -0.03   0.15
   8   6     0.00  -0.01  -0.01    -0.05   0.08   0.02     0.01   0.05  -0.24
   9   6    -0.03   0.02  -0.12     0.06   0.02   0.01    -0.02  -0.10   0.46
  10   6    -0.03  -0.10   0.44     0.11  -0.07  -0.01     0.01   0.04  -0.20
  11   6     0.02   0.01  -0.05    -0.03  -0.12  -0.03    -0.00  -0.03   0.11
  12   6     0.01   0.01   0.01    -0.07  -0.13  -0.03     0.01   0.03  -0.14
  13   6    -0.00  -0.01  -0.00     0.03  -0.01  -0.00    -0.00  -0.02   0.09
  14   6    -0.03   0.08  -0.37     0.03   0.01   0.00     0.01   0.07  -0.35
  15   6     0.01   0.00   0.03    -0.16  -0.02  -0.01     0.00   0.03  -0.14
  16   6     0.01   0.03  -0.05    -0.09  -0.10  -0.02    -0.00  -0.02   0.12
  17   6     0.00   0.01   0.13    -0.05  -0.24  -0.05     0.00   0.03  -0.11
  18   6    -0.02   0.02  -0.08     0.20   0.08   0.02    -0.00  -0.02   0.11
  19   6    -0.00  -0.06   0.26    -0.04   0.12   0.03     0.01   0.06  -0.31
  20   6     0.02   0.01  -0.08    -0.22  -0.05  -0.02    -0.00  -0.02   0.09
  21   6     0.01  -0.01   0.04     0.09  -0.11  -0.02     0.00   0.03  -0.13
  22   6     0.01   0.01  -0.06     0.07   0.03   0.01    -0.00  -0.02   0.11
  23   6    -0.00   0.04  -0.26     0.12   0.13   0.03     0.00   0.03  -0.16
  24   6     0.01   0.01  -0.09    -0.06   0.17   0.03    -0.01  -0.08   0.39
  25  17     0.00   0.00  -0.00     0.00  -0.00   0.00     0.00   0.00  -0.00
  26   1     0.00   0.00   0.01    -0.02   0.01  -0.00     0.00   0.00   0.00
  27   1    -0.01   0.00   0.00     0.02  -0.00  -0.00     0.00  -0.00   0.00
  28   1    -0.01   0.01   0.01     0.00   0.01  -0.01    -0.00   0.00   0.00
  29   1    -0.01   0.01   0.00     0.01   0.04  -0.06    -0.00   0.00  -0.00
  30   1    -0.00   0.01   0.02     0.04   0.02   0.06     0.00   0.00   0.00
  31   1     0.01   0.02  -0.02    -0.09   0.16  -0.06     0.00  -0.00  -0.00
  32   1     0.03   0.00   0.02     0.14   0.01   0.08     0.00   0.00   0.00
  33   1     0.01   0.04  -0.10     0.08   0.03   0.02     0.00  -0.00   0.01
  34   1     0.01  -0.00  -0.00     0.06   0.11   0.03    -0.00   0.00  -0.02
  35   1     0.01   0.02  -0.10    -0.02  -0.05  -0.01    -0.00  -0.02   0.07
  36   1     0.00  -0.00   0.03    -0.04  -0.03  -0.01    -0.00  -0.01   0.07
  37   1     0.00  -0.04   0.11    -0.00   0.02   0.01    -0.00  -0.03   0.12
  38   1     0.00   0.02  -0.10     0.03   0.03   0.00     0.00   0.00  -0.00
  39   1     0.01   0.02  -0.05    -0.08  -0.06  -0.02     0.00  -0.00   0.01
  40   1     0.00   0.03  -0.15     0.04   0.06   0.01    -0.00  -0.01   0.05
  41   1     0.01   0.00  -0.02    -0.07   0.01  -0.00    -0.00  -0.02   0.09
  42   1    -0.00  -0.02   0.07     0.06   0.01   0.00    -0.00  -0.01   0.04
  43   1     0.00  -0.03   0.12    -0.05   0.02   0.00    -0.00  -0.01   0.04
                     40                     41                     42
                        a                      a                      a 
 Frequencies --   750.0128               756.2725               764.2011
 Red. masses --     9.5594                 4.2056                10.8638
 Frc consts  --     0.0000                 0.0000                 0.0000
 IR Inten    --     0.1699                 0.6874                 1.4634
 Raman Activ --     0.0000                 0.0000                 0.0000
 Depolar     --     0.0000                 0.0000                 0.0000
 Atom AN      X      Y      Z        X      Y      Z        X      Y      Z
   1   7     0.00  -0.00   0.00    -0.01  -0.00   0.00     0.00  -0.00  -0.00
   2   6     0.00   0.00   0.00    -0.01  -0.01   0.00     0.01   0.01   0.00
   3   6    -0.00  -0.00  -0.01    -0.00   0.00   0.00    -0.02   0.02  -0.00
   4   8     0.00   0.01  -0.01     0.00  -0.01   0.02    -0.05  -0.03  -0.00
   5   6    -0.00  -0.01   0.06     0.01   0.02  -0.11     0.08  -0.12  -0.03
   6   6    -0.00   0.02  -0.09    -0.01  -0.02   0.09     0.15  -0.15  -0.02
   7   6    -0.00  -0.01   0.01    -0.00   0.00   0.00    -0.04   0.38   0.09
   8   6     0.01   0.05  -0.23    -0.01  -0.03   0.15    -0.14   0.11   0.01
   9   6    -0.01  -0.08   0.37     0.00   0.01  -0.08     0.00  -0.11  -0.02
  10   6     0.01   0.06  -0.25     0.00   0.01  -0.04     0.13  -0.18  -0.04
  11   6    -0.00   0.01  -0.02     0.00   0.01  -0.04     0.30  -0.22  -0.04
  12   6     0.00   0.02  -0.10     0.00   0.01  -0.02     0.05   0.45   0.10
  13   6     0.00   0.00  -0.00    -0.00   0.01  -0.05    -0.30   0.00  -0.00
  14   6     0.00   0.02  -0.10    -0.00  -0.02   0.09    -0.06  -0.11  -0.03
  15   6    -0.01  -0.06   0.27     0.01   0.05  -0.23     0.01  -0.03   0.00
  16   6    -0.00  -0.00   0.01    -0.00  -0.03   0.18     0.09  -0.01  -0.00
  17   6    -0.00  -0.03   0.14    -0.00  -0.02   0.09     0.02   0.16   0.03
  18   6     0.00   0.00  -0.00    -0.01  -0.04   0.18    -0.12  -0.03  -0.01
  19   6    -0.01  -0.03   0.17     0.00   0.00  -0.03     0.04  -0.07  -0.01
  20   6     0.00   0.01  -0.06     0.01   0.04  -0.17     0.16   0.01   0.01
  21   6    -0.00  -0.02   0.10    -0.00   0.03  -0.12    -0.11   0.05   0.01
  22   6     0.00   0.01  -0.05     0.00   0.03  -0.15    -0.08   0.02   0.00
  23   6    -0.01  -0.07   0.31    -0.00  -0.03   0.12    -0.05  -0.02  -0.00
  24   6     0.01   0.10  -0.48    -0.00  -0.02   0.08     0.01  -0.06  -0.02
  25  17     0.00   0.00  -0.00     0.00   0.00  -0.00     0.00   0.00   0.00
  26   1     0.00   0.00   0.00     0.00   0.01   0.00    -0.01   0.00  -0.00
  27   1    -0.00  -0.00  -0.00     0.01  -0.01  -0.00    -0.00  -0.00  -0.00
  28   1     0.00   0.00  -0.00    -0.01   0.01   0.00     0.01  -0.01  -0.00
  29   1    -0.00   0.00   0.00    -0.00   0.01  -0.02     0.00  -0.01   0.01
  30   1     0.00   0.00   0.00     0.01   0.00   0.01    -0.01  -0.01  -0.02
  31   1     0.00  -0.01   0.00     0.00   0.01  -0.01    -0.01  -0.00   0.02
  32   1    -0.00  -0.00  -0.01     0.01   0.01   0.01    -0.02  -0.00  -0.02
  33   1    -0.00  -0.02   0.11     0.00   0.02  -0.11    -0.03  -0.12  -0.04
  34   1    -0.00  -0.02   0.09     0.00   0.02  -0.10    -0.07   0.12   0.01
  35   1    -0.01  -0.04   0.19    -0.00  -0.02   0.10    -0.01  -0.16  -0.04
  36   1    -0.00  -0.03   0.15    -0.00  -0.02   0.08    -0.01   0.13   0.02
  37   1    -0.00  -0.02   0.12    -0.00  -0.02   0.07    -0.05  -0.07  -0.02
  38   1     0.01   0.04  -0.21     0.01   0.06  -0.28     0.00  -0.03  -0.01
  39   1     0.01   0.04  -0.18     0.01   0.06  -0.28     0.02   0.04   0.01
  40   1     0.01   0.03  -0.16     0.01   0.07  -0.36    -0.03  -0.03  -0.01
  41   1     0.00   0.01  -0.03    -0.01  -0.08   0.38     0.06  -0.03  -0.01
  42   1     0.00   0.02  -0.07    -0.01  -0.07   0.32    -0.06  -0.02  -0.01
  43   1     0.00   0.02  -0.11    -0.01  -0.07   0.31    -0.01   0.01  -0.00
                     43                     44                     45
                        a                      a                      a 
 Frequencies --   772.6413               784.8362               790.4159
 Red. masses --    10.8223                 4.9892                 4.1090
 Frc consts  --     0.0000                 0.0000                 0.0000
 IR Inten    --     0.1020                 4.5754                58.5341
 Raman Activ --     0.0000                 0.0000                 0.0000
 Depolar     --     0.0000                 0.0000                 0.0000
 Atom AN      X      Y      Z        X      Y      Z        X      Y      Z
   1   7     0.00  -0.00  -0.00    -0.01  -0.01   0.00    -0.02  -0.01  -0.00
   2   6     0.01   0.01  -0.00    -0.04  -0.05   0.00    -0.07  -0.09   0.00
   3   6     0.02   0.01   0.00    -0.02  -0.01   0.01    -0.05  -0.03   0.01
   4   8     0.03   0.03   0.01     0.01  -0.00   0.04     0.02   0.01   0.01
   5   6    -0.00  -0.03  -0.01     0.02   0.04  -0.16     0.04   0.02  -0.02
   6   6     0.04  -0.08  -0.02    -0.03  -0.01   0.15    -0.06   0.03   0.09
   7   6     0.01  -0.02  -0.00    -0.02  -0.04   0.11    -0.04  -0.02   0.01
   8   6    -0.02  -0.02  -0.00    -0.00   0.03  -0.15    -0.01  -0.02   0.06
   9   6    -0.07   0.02   0.00     0.02  -0.01   0.01     0.06  -0.00  -0.07
  10   6    -0.10  -0.00  -0.01     0.01  -0.04   0.23     0.06   0.00   0.05
  11   6    -0.01  -0.03  -0.01    -0.00   0.07  -0.25    -0.02   0.03   0.04
  12   6    -0.01  -0.01  -0.00     0.00   0.02  -0.12    -0.01  -0.03   0.05
  13   6     0.08   0.08   0.02    -0.00   0.03  -0.20    -0.03  -0.05   0.04
  14   6    -0.01   0.05   0.01     0.02  -0.05   0.16     0.06  -0.02  -0.05
  15   6     0.01  -0.18  -0.04     0.01  -0.03   0.10     0.03  -0.01  -0.10
  16   6     0.25  -0.29  -0.05     0.03  -0.00  -0.07     0.05  -0.08   0.19
  17   6     0.02   0.34   0.07     0.01   0.04  -0.02     0.01   0.05   0.08
  18   6    -0.13   0.12   0.02    -0.03   0.00  -0.05    -0.07  -0.06   0.13
  19   6    -0.13  -0.01  -0.01    -0.00  -0.01   0.00    -0.00   0.01  -0.21
  20   6    -0.12  -0.20  -0.05     0.01  -0.01   0.03     0.02  -0.03   0.15
  21   6     0.34  -0.31  -0.06    -0.01   0.00  -0.00    -0.03  -0.01   0.08
  22   6     0.05   0.40   0.08    -0.01   0.01   0.07    -0.03  -0.00   0.19
  23   6    -0.11   0.16   0.03     0.01   0.05  -0.17     0.01   0.05  -0.08
  24   6    -0.09  -0.01  -0.00     0.00  -0.02   0.04     0.01  -0.01  -0.04
  25  17    -0.00   0.00  -0.00     0.00  -0.00   0.00     0.01  -0.00   0.00
  26   1     0.00  -0.01   0.00     0.02   0.03  -0.00     0.03   0.04  -0.00
  27   1    -0.02   0.00   0.00     0.07  -0.02  -0.01     0.12  -0.03  -0.01
  28   1     0.00  -0.01   0.00    -0.04   0.07   0.00    -0.06   0.11   0.01
  29   1    -0.00  -0.02   0.03    -0.01   0.09  -0.10    -0.01   0.15  -0.17
  30   1    -0.03  -0.01  -0.03     0.09   0.02   0.09     0.16   0.03   0.15
  31   1     0.01  -0.04   0.03     0.00   0.06  -0.08     0.00   0.10  -0.14
  32   1    -0.03  -0.01  -0.03     0.05   0.03   0.08     0.08   0.06   0.14
  33   1     0.01  -0.03  -0.00     0.00   0.06  -0.24    -0.00   0.05  -0.15
  34   1    -0.01  -0.00  -0.00     0.00   0.03  -0.17     0.00   0.01  -0.08
  35   1     0.01   0.00   0.00    -0.02  -0.09   0.42    -0.01   0.03  -0.13
  36   1    -0.04   0.00  -0.00    -0.00  -0.08   0.36     0.02   0.02  -0.12
  37   1     0.02   0.03   0.01    -0.01  -0.08   0.35    -0.01   0.02  -0.09
  38   1     0.00  -0.15  -0.03    -0.00  -0.03   0.09     0.01   0.04  -0.34
  39   1    -0.08   0.11   0.02    -0.00  -0.01   0.08     0.01   0.06  -0.23
  40   1    -0.01  -0.02  -0.01    -0.01  -0.03   0.09    -0.01   0.02  -0.20
  41   1    -0.06   0.02   0.01     0.00   0.01  -0.05     0.01   0.04  -0.23
  42   1     0.05  -0.13  -0.02    -0.01  -0.00  -0.02    -0.01   0.04  -0.25
  43   1    -0.10   0.12   0.03    -0.01   0.01  -0.03    -0.01   0.08  -0.33
                     46                     47                     48
                        a                      a                      a 
 Frequencies --   791.4281               798.5509               806.0417
 Red. masses --     5.0506                 5.4025                 8.7678
 Frc consts  --     0.0000                 0.0000                 0.0000
 IR Inten    --    13.5933                26.1227                 3.5424
 Raman Activ --     0.0000                 0.0000                 0.0000
 Depolar     --     0.0000                 0.0000                 0.0000
 Atom AN      X      Y      Z        X      Y      Z        X      Y      Z
   1   7     0.02   0.01   0.01     0.00  -0.01   0.00     0.02   0.03   0.01
   2   6     0.09   0.11  -0.00    -0.03  -0.05   0.01     0.09   0.09   0.03
   3   6     0.07   0.04  -0.01    -0.10  -0.03  -0.02    -0.06   0.06  -0.02
   4   8    -0.02  -0.02  -0.02    -0.02  -0.00  -0.03    -0.15  -0.19  -0.04
   5   6    -0.05  -0.02   0.00     0.04   0.01   0.11     0.02   0.10  -0.00
   6   6     0.08  -0.04  -0.07    -0.09   0.14  -0.18    -0.16   0.26   0.10
   7   6     0.05   0.05  -0.12    -0.04   0.07  -0.29    -0.00   0.03   0.10
   8   6     0.01  -0.03   0.14    -0.01  -0.03   0.19     0.07   0.02  -0.05
   9   6    -0.08   0.03  -0.06     0.13  -0.03   0.01     0.24  -0.04  -0.01
  10   6    -0.08  -0.05   0.16     0.14   0.01   0.04     0.28   0.04   0.02
  11   6     0.03  -0.01  -0.15    -0.03   0.07  -0.07    -0.08   0.11   0.03
  12   6     0.01   0.03  -0.02    -0.02  -0.03  -0.04    -0.04  -0.14  -0.03
  13   6     0.04   0.07  -0.08    -0.06  -0.07  -0.08    -0.10  -0.17  -0.03
  14   6    -0.07   0.01   0.11     0.10  -0.08   0.07     0.14  -0.08  -0.03
  15   6    -0.03   0.06  -0.13     0.06  -0.02  -0.13     0.13  -0.08   0.02
  16   6    -0.07   0.01   0.16     0.08  -0.07   0.02     0.11  -0.10  -0.03
  17   6    -0.01  -0.08   0.01     0.01   0.09  -0.01     0.00   0.08   0.03
  18   6     0.08   0.02   0.11    -0.13  -0.06  -0.03    -0.22  -0.14  -0.03
  19   6     0.01   0.07  -0.14    -0.02  -0.05   0.00    -0.04  -0.08  -0.02
  20   6    -0.03  -0.02   0.11     0.03   0.01  -0.01    -0.02   0.02   0.01
  21   6     0.04  -0.02   0.03    -0.08   0.04  -0.02    -0.15   0.07   0.02
  22   6     0.03  -0.08   0.15    -0.05   0.06  -0.00    -0.09   0.08   0.02
  23   6    -0.01  -0.00  -0.17     0.04   0.07  -0.02     0.11   0.14   0.04
  24   6    -0.01   0.01   0.05     0.03  -0.03   0.06     0.07   0.01  -0.01
  25  17    -0.01   0.01  -0.00     0.00  -0.00   0.00    -0.01   0.01  -0.00
  26   1    -0.03  -0.04   0.00     0.00   0.03  -0.00    -0.08  -0.03  -0.01
  27   1    -0.16   0.03   0.01     0.08  -0.02  -0.01    -0.16   0.03  -0.01
  28   1     0.07  -0.14  -0.01    -0.03   0.06  -0.01     0.10  -0.16  -0.03
  29   1     0.02  -0.19   0.22    -0.01   0.11  -0.11     0.04  -0.19   0.16
  30   1    -0.20  -0.04  -0.20     0.12   0.03   0.12    -0.18  -0.03  -0.15
  31   1     0.00  -0.13   0.18    -0.03   0.08  -0.09    -0.08   0.01   0.12
  32   1    -0.11  -0.07  -0.18     0.07   0.04   0.09    -0.03  -0.05  -0.11
  33   1     0.00  -0.06   0.15    -0.02  -0.05   0.46    -0.03   0.11  -0.09
  34   1    -0.00  -0.02   0.16    -0.01  -0.10   0.47     0.06   0.04  -0.15
  35   1     0.01  -0.05   0.19    -0.03  -0.03   0.14    -0.05   0.00  -0.02
  36   1    -0.03  -0.02   0.14     0.04  -0.04   0.10     0.08  -0.05  -0.02
  37   1     0.01  -0.03   0.14    -0.03  -0.02   0.08    -0.04  -0.02  -0.01
  38   1     0.01   0.08  -0.21    -0.00  -0.05   0.02    -0.00  -0.07  -0.02
  39   1    -0.01   0.01  -0.13     0.01   0.01   0.06     0.03   0.02  -0.01
  40   1     0.02   0.06  -0.12    -0.03  -0.05   0.02    -0.04  -0.08  -0.03
  41   1    -0.00   0.03  -0.15     0.01  -0.01   0.02    -0.00  -0.00  -0.00
  42   1     0.03   0.04  -0.14    -0.04  -0.02   0.04    -0.06   0.00  -0.01
  43   1     0.03   0.03  -0.22    -0.04   0.01   0.05    -0.07   0.04  -0.01
                     49                     50                     51
                        a                      a                      a 
 Frequencies --   854.9443               866.3999               870.0596
 Red. masses --     4.1968                 4.0107                 4.2350
 Frc consts  --     0.0000                 0.0000                 0.0000
 IR Inten    --     0.4079                 0.2533                 0.5265
 Raman Activ --     0.0000                 0.0000                 0.0000
 Depolar     --     0.0000                 0.0000                 0.0000
 Atom AN      X      Y      Z        X      Y      Z        X      Y      Z
   1   7    -0.00   0.01   0.00    -0.00  -0.02   0.00     0.00   0.01   0.01
   2   6     0.00   0.00   0.00    -0.00   0.00  -0.00     0.00  -0.00   0.01
   3   6     0.01   0.01   0.01    -0.01  -0.00  -0.01    -0.00   0.00  -0.00
   4   8    -0.00  -0.02   0.00     0.00   0.02  -0.00     0.00  -0.01   0.00
   5   6     0.00   0.00  -0.01    -0.01   0.01  -0.03     0.01   0.00  -0.00
   6   6    -0.00  -0.02   0.15     0.01   0.04  -0.22     0.00  -0.02   0.12
   7   6     0.01   0.03  -0.13    -0.01  -0.05   0.23     0.01   0.03  -0.15
   8   6     0.00  -0.01   0.01    -0.00   0.01   0.01    -0.01  -0.01  -0.02
   9   6    -0.00  -0.01   0.04     0.01   0.02  -0.08    -0.00  -0.01   0.03
  10   6    -0.00   0.01  -0.04     0.01  -0.00  -0.01    -0.00   0.01  -0.05
  11   6    -0.00  -0.02   0.10     0.00  -0.01   0.01    -0.01  -0.04   0.20
  12   6     0.00   0.01  -0.05    -0.00   0.00  -0.01     0.00   0.02  -0.08
  13   6     0.00   0.01  -0.06    -0.00   0.01  -0.04     0.01   0.04  -0.15
  14   6    -0.00   0.01  -0.02    -0.00  -0.02   0.10     0.00  -0.00   0.02
  15   6     0.00   0.01  -0.07     0.00  -0.00   0.01    -0.01  -0.01   0.04
  16   6    -0.01  -0.06   0.29     0.00   0.00  -0.01     0.01   0.05  -0.23
  17   6     0.00   0.01  -0.07    -0.00  -0.01   0.04     0.00  -0.00   0.05
  18   6     0.01   0.05  -0.22    -0.00  -0.01   0.05    -0.01  -0.05   0.24
  19   6    -0.00  -0.01   0.03     0.00   0.02  -0.11     0.01   0.03  -0.13
  20   6    -0.01  -0.03   0.14    -0.01  -0.05   0.24     0.00  -0.03   0.14
  21   6     0.00  -0.01   0.04    -0.00  -0.01   0.06    -0.00  -0.01   0.05
  22   6     0.01   0.05  -0.23     0.01   0.05  -0.25     0.00   0.02  -0.12
  23   6    -0.00  -0.01   0.06     0.00  -0.01   0.05    -0.01  -0.01   0.03
  24   6     0.00   0.00  -0.01     0.00  -0.00   0.02    -0.01  -0.01   0.03
  25  17    -0.00   0.00  -0.00     0.00  -0.00  -0.00    -0.00   0.00  -0.00
  26   1    -0.01  -0.00  -0.00     0.01   0.02   0.00    -0.03   0.00  -0.00
  27   1    -0.02   0.00   0.00     0.05  -0.02  -0.01    -0.03   0.01  -0.00
  28   1     0.01  -0.02  -0.00    -0.02   0.04   0.00     0.03  -0.04  -0.01
  29   1     0.01  -0.02   0.01    -0.02   0.03   0.01     0.02  -0.03  -0.01
  30   1    -0.03  -0.00  -0.01     0.04  -0.00   0.01    -0.03   0.00  -0.00
  31   1     0.00   0.00   0.00    -0.00  -0.02   0.01     0.00   0.01  -0.02
  32   1    -0.01   0.00  -0.00    -0.00  -0.01  -0.02     0.00   0.01   0.01
  33   1     0.00   0.06  -0.29    -0.00  -0.09   0.44     0.00   0.05  -0.24
  34   1    -0.00  -0.05   0.22     0.00   0.09  -0.43    -0.00  -0.06   0.29
  35   1     0.00   0.03  -0.12    -0.00  -0.00  -0.00     0.01   0.07  -0.29
  36   1    -0.00  -0.02   0.08    -0.00  -0.01   0.03    -0.00  -0.03   0.13
  37   1    -0.00  -0.03   0.12    -0.00  -0.01   0.05    -0.01  -0.05   0.26
  38   1     0.01   0.09  -0.42    -0.00  -0.00  -0.01    -0.01  -0.07   0.36
  39   1    -0.00  -0.02   0.10     0.00   0.02  -0.07     0.00   0.02  -0.08
  40   1    -0.01  -0.08   0.39     0.00   0.01  -0.06     0.01   0.08  -0.38
  41   1     0.01   0.05  -0.25     0.01   0.08  -0.39     0.01   0.04  -0.21
  42   1     0.00   0.01  -0.04     0.00   0.02  -0.09     0.00   0.02  -0.09
  43   1    -0.01  -0.07   0.34    -0.01  -0.08   0.38    -0.00  -0.03   0.15
                     52                     53                     54
                        a                      a                      a 
 Frequencies --   874.2692               879.3534               886.0896
 Red. masses --     7.9897                 4.2256                 5.9536
 Frc consts  --     0.0000                 0.0000                 0.0000
 IR Inten    --     4.3078                 1.0341                18.5313
 Raman Activ --     0.0000                 0.0000                 0.0000
 Depolar     --     0.0000                 0.0000                 0.0000
 Atom AN      X      Y      Z        X      Y      Z        X      Y      Z
   1   7    -0.06  -0.10  -0.07    -0.00   0.00  -0.00    -0.08  -0.14  -0.06
   2   6    -0.03   0.01  -0.05    -0.00  -0.00  -0.00    -0.00   0.03  -0.02
   3   6     0.20   0.04   0.07     0.01   0.00   0.01     0.09   0.14   0.05
   4   8    -0.03   0.06   0.01    -0.00  -0.00  -0.00    -0.13  -0.13  -0.03
   5   6    -0.13   0.02   0.00    -0.00  -0.01   0.04     0.01  -0.01   0.00
   6   6    -0.12   0.01   0.02    -0.01  -0.02   0.10     0.10   0.04   0.03
   7   6    -0.05  -0.01  -0.03     0.00   0.02  -0.09     0.08   0.09  -0.00
   8   6     0.24   0.21   0.05     0.01   0.01  -0.01    -0.17  -0.17  -0.04
   9   6    -0.00   0.11   0.03    -0.00  -0.01   0.07     0.03  -0.11  -0.02
  10   6     0.04  -0.05  -0.01    -0.00  -0.01   0.03     0.05   0.04   0.01
  11   6     0.11  -0.15  -0.01     0.01   0.06  -0.31    -0.11   0.12   0.02
  12   6    -0.00   0.00  -0.01    -0.00  -0.02   0.09    -0.02  -0.07  -0.02
  13   6    -0.15  -0.11  -0.04    -0.01  -0.06   0.27     0.14   0.07   0.02
  14   6    -0.13  -0.01  -0.01    -0.00   0.03  -0.13     0.06   0.04   0.00
  15   6     0.33   0.01   0.01     0.01   0.00   0.01    -0.23  -0.02  -0.01
  16   6    -0.05  -0.01  -0.01    -0.00   0.02  -0.07     0.07  -0.01  -0.01
  17   6    -0.06  -0.19  -0.04    -0.00  -0.01   0.01     0.05   0.15   0.03
  18   6    -0.01  -0.08  -0.01    -0.00  -0.02   0.09    -0.05   0.01   0.00
  19   6    -0.04   0.04   0.00     0.00   0.02  -0.06     0.03  -0.04  -0.01
  20   6    -0.29  -0.00  -0.02    -0.02  -0.03   0.15     0.21   0.01   0.01
  21   6     0.03  -0.01  -0.00     0.00  -0.00   0.01    -0.07   0.03   0.00
  22   6     0.03   0.10   0.03     0.01   0.03  -0.14    -0.03  -0.09  -0.02
  23   6     0.06   0.11   0.03    -0.00  -0.00   0.01     0.02  -0.03  -0.01
  24   6     0.17   0.02   0.01     0.01  -0.00   0.02    -0.10   0.02   0.00
  25  17     0.01  -0.01  -0.00    -0.00   0.00   0.00     0.01  -0.01  -0.00
  26   1     0.20  -0.01   0.02     0.00  -0.01   0.00     0.17   0.05   0.01
  27   1     0.21  -0.04   0.03    -0.01   0.01   0.00     0.30  -0.08  -0.00
  28   1    -0.20   0.25   0.09     0.00  -0.01   0.00    -0.23   0.31   0.08
  29   1    -0.12   0.11   0.11     0.00  -0.01  -0.00    -0.15   0.12   0.18
  30   1     0.09  -0.05  -0.08    -0.01  -0.00  -0.01     0.11  -0.09  -0.17
  31   1     0.04  -0.10   0.16     0.00   0.00   0.00    -0.04  -0.08   0.25
  32   1    -0.08  -0.04  -0.11    -0.00   0.00   0.00    -0.10  -0.07  -0.20
  33   1    -0.02   0.02  -0.04     0.00   0.04  -0.20     0.01  -0.00  -0.04
  34   1    -0.12   0.00   0.04    -0.01  -0.04   0.17     0.12  -0.00   0.04
  35   1     0.00  -0.07  -0.05    -0.01  -0.11   0.48    -0.02   0.05   0.01
  36   1     0.00  -0.01   0.01     0.00   0.03  -0.14    -0.00  -0.02  -0.00
  37   1    -0.03  -0.09   0.01     0.01   0.10  -0.46     0.02   0.06   0.01
  38   1    -0.06  -0.06   0.01    -0.01  -0.02   0.11     0.05   0.04   0.02
  39   1     0.01  -0.06  -0.01     0.00   0.00  -0.02     0.01   0.04   0.01
  40   1    -0.01   0.00  -0.02     0.00   0.03  -0.14    -0.00  -0.02  -0.01
  41   1    -0.10   0.04   0.01     0.00   0.05  -0.24     0.07  -0.03  -0.00
  42   1     0.05   0.05   0.01     0.00   0.00   0.00    -0.04  -0.02  -0.01
  43   1    -0.04   0.04  -0.01    -0.01  -0.05   0.24     0.01  -0.03  -0.01
                     55                     56                     57
                        a                      a                      a 
 Frequencies --   906.9926               910.8519               916.1894
 Red. masses --     5.7165                 3.4173                 3.5569
 Frc consts  --     0.0000                 0.0000                 0.0000
 IR Inten    --    39.6530                 0.1831                 0.0223
 Raman Activ --     0.0000                 0.0000                 0.0000
 Depolar     --     0.0000                 0.0000                 0.0000
 Atom AN      X      Y      Z        X      Y      Z        X      Y      Z
   1   7     0.17  -0.07  -0.28     0.01  -0.00  -0.02     0.00   0.00  -0.00
   2   6    -0.12   0.10  -0.21    -0.01   0.01  -0.01     0.00  -0.00  -0.00
   3   6     0.09  -0.14   0.34     0.01  -0.01   0.02    -0.00   0.00   0.00
   4   8    -0.11   0.13   0.00    -0.01   0.01  -0.00    -0.00  -0.00  -0.00
   5   6    -0.06  -0.01  -0.01    -0.00  -0.00   0.00     0.00  -0.00   0.00
   6   6     0.04  -0.04  -0.02     0.00  -0.00   0.01    -0.00  -0.00   0.00
   7   6     0.00   0.03   0.01     0.00   0.01  -0.02     0.00   0.00  -0.01
   8   6    -0.05  -0.02  -0.00    -0.00  -0.00   0.00     0.00  -0.00   0.01
   9   6     0.01  -0.02  -0.01    -0.00  -0.00   0.01     0.00   0.00  -0.02
  10   6     0.06   0.01   0.00     0.00   0.00  -0.01    -0.00  -0.01   0.02
  11   6    -0.03   0.01   0.00    -0.00  -0.00   0.01     0.00  -0.00   0.00
  12   6    -0.02  -0.05  -0.01    -0.00  -0.01   0.02     0.00   0.02  -0.09
  13   6     0.05   0.03   0.00     0.00   0.01  -0.02    -0.00  -0.02   0.07
  14   6    -0.01   0.02   0.01    -0.00   0.00  -0.00     0.00  -0.00   0.00
  15   6    -0.06  -0.01  -0.00    -0.00   0.01  -0.04     0.00   0.01  -0.05
  16   6     0.04  -0.02   0.00     0.00   0.02  -0.08     0.00   0.01  -0.06
  17   6     0.02   0.05  -0.01    -0.01  -0.06   0.30    -0.01  -0.05   0.23
  18   6    -0.05  -0.03   0.01     0.00   0.03  -0.17     0.00   0.03  -0.12
  19   6     0.01  -0.02  -0.01     0.00   0.00  -0.01     0.00   0.02  -0.08
  20   6     0.05   0.01   0.00    -0.00  -0.03   0.13     0.00   0.03  -0.15
  21   6    -0.05   0.02   0.02     0.00   0.05  -0.24    -0.01  -0.06   0.28
  22   6    -0.01  -0.04  -0.02    -0.00  -0.02   0.07     0.00   0.02  -0.08
  23   6     0.06   0.03   0.01     0.00  -0.00   0.03     0.00   0.01  -0.06
  24   6    -0.01   0.03   0.00    -0.00  -0.00   0.01    -0.00  -0.02   0.11
  25  17     0.00   0.00  -0.01    -0.00   0.00  -0.00     0.00   0.00  -0.00
  26   1     0.42  -0.39   0.04     0.03  -0.02   0.00    -0.00  -0.00   0.00
  27   1    -0.26   0.16   0.21    -0.02   0.01   0.01    -0.00   0.00   0.00
  28   1    -0.07  -0.02   0.16    -0.00  -0.00   0.01     0.00  -0.00  -0.00
  29   1    -0.02  -0.01  -0.05     0.00  -0.00  -0.00     0.00  -0.00  -0.00
  30   1    -0.17   0.11   0.07    -0.01   0.01   0.00    -0.00   0.00  -0.00
  31   1     0.02   0.04   0.02     0.00   0.00   0.00    -0.00   0.00  -0.00
  32   1     0.03   0.04   0.21     0.00   0.00   0.01     0.00   0.00   0.00
  33   1     0.02  -0.00   0.02     0.00   0.00  -0.02     0.00   0.00  -0.01
  34   1    -0.00   0.01  -0.01    -0.00  -0.01   0.04    -0.00  -0.01   0.03
  35   1    -0.01  -0.00  -0.00    -0.00   0.00  -0.01     0.00   0.00  -0.01
  36   1    -0.01  -0.01   0.01     0.00   0.01  -0.04    -0.00  -0.04   0.18
  37   1     0.01   0.02   0.02    -0.00  -0.01   0.05     0.00   0.03  -0.14
  38   1     0.01  -0.00  -0.01    -0.00  -0.03   0.17    -0.00  -0.03   0.14
  39   1     0.01   0.00   0.03     0.02   0.12  -0.57     0.01   0.09  -0.44
  40   1    -0.01  -0.02  -0.04    -0.01  -0.07   0.32    -0.01  -0.05   0.25
  41   1     0.02  -0.01   0.01     0.01   0.05  -0.25    -0.01  -0.06   0.30
[...]
                        a                      a                      a 
 Frequencies --  2972.0242              2997.7153              3099.3328
 Red. masses --     1.8928                 1.5315                 1.7817
 Frc consts  --     0.0000                 0.0000                 0.0000
 IR Inten    --    11.4279                 7.9232                36.4243
 Raman Activ --     0.0000                 0.0000                 0.0000
 Depolar     --     0.0000                 0.0000                 0.0000
 Atom AN      X      Y      Z        X      Y      Z        X      Y      Z
   1   7     0.03   0.01   0.01    -0.02  -0.01  -0.01     0.00   0.00   0.00
   2   6     0.14   0.20  -0.02    -0.11   0.09  -0.15    -0.00   0.00  -0.00
   3   6     0.11   0.05   0.07    -0.03   0.01  -0.04     0.00   0.00   0.00
   4   8     0.00  -0.00  -0.00    -0.00   0.00   0.00     0.00   0.00   0.00
   5   6     0.00   0.00   0.00     0.00   0.00  -0.00    -0.00  -0.00  -0.00
   6   6    -0.00   0.00  -0.00    -0.00  -0.00   0.00     0.00  -0.00  -0.00
   7   6     0.00  -0.00   0.00    -0.00  -0.00  -0.00     0.00   0.01   0.00
   8   6     0.00  -0.00  -0.00    -0.00   0.00   0.00     0.00   0.00   0.00
   9   6     0.00   0.00   0.00    -0.00  -0.00   0.00     0.00  -0.00  -0.00
  10   6     0.00   0.00   0.00    -0.00  -0.00  -0.00    -0.00   0.00   0.00
  11   6     0.00  -0.00  -0.00    -0.00   0.00   0.00    -0.00   0.00   0.00
  12   6    -0.00   0.00   0.00     0.00   0.00   0.00    -0.00  -0.00  -0.00
  13   6     0.00   0.00   0.00    -0.00  -0.00   0.00     0.00   0.00   0.00
  14   6    -0.00   0.00   0.00    -0.00  -0.00  -0.00     0.00   0.00   0.00
  15   6     0.00  -0.00  -0.00     0.00   0.00  -0.00     0.00  -0.00  -0.00
  16   6     0.00   0.00  -0.00     0.00  -0.00  -0.00     0.02  -0.02  -0.00
  17   6    -0.00  -0.00  -0.00    -0.00  -0.00  -0.00     0.04   0.22   0.05
  18   6    -0.00  -0.00  -0.00    -0.00  -0.00  -0.00    -0.08  -0.03  -0.01
  19   6    -0.00  -0.00  -0.00    -0.00   0.00  -0.00    -0.00  -0.00  -0.00
  20   6    -0.00  -0.00  -0.00    -0.00  -0.00  -0.00     0.04   0.01   0.00
  21   6    -0.00   0.00   0.00    -0.00   0.00   0.00    -0.06   0.05   0.01
  22   6     0.00   0.00   0.00     0.00   0.00   0.00    -0.00  -0.01  -0.00
  23   6    -0.00   0.00   0.00     0.00   0.00   0.00     0.00  -0.00  -0.00
  24   6    -0.00  -0.00  -0.00    -0.00  -0.00   0.00     0.00  -0.00  -0.00
  25  17    -0.00  -0.00  -0.00     0.00   0.00   0.00     0.00  -0.00  -0.00
  26   1     0.00  -0.00  -0.00    -0.00   0.00  -0.00     0.00  -0.00  -0.00
  27   1     0.00   0.01  -0.00     0.00   0.02  -0.01    -0.00  -0.00   0.00
  28   1    -0.10  -0.05  -0.04     0.05   0.03   0.03    -0.00   0.00  -0.00
  29   1    -0.40  -0.18  -0.21     0.54   0.28   0.25     0.00   0.00   0.00
  30   1    -0.08  -0.54   0.28    -0.12  -0.61   0.29    -0.00  -0.00   0.00
  31   1    -0.42  -0.24  -0.20     0.12   0.07   0.06    -0.00  -0.00  -0.00
  32   1     0.03   0.10  -0.05    -0.02  -0.11   0.06     0.00   0.00  -0.00
  33   1     0.00  -0.00  -0.00    -0.00   0.00   0.00    -0.01   0.01   0.00
  34   1     0.00   0.00   0.00     0.00   0.00   0.00    -0.00  -0.03  -0.01
  35   1    -0.00   0.00   0.00     0.00  -0.00  -0.00     0.01  -0.01  -0.00
  36   1     0.00  -0.00   0.00    -0.00  -0.00  -0.00     0.00   0.01   0.00
  37   1    -0.00  -0.00  -0.00     0.00   0.00   0.00    -0.00  -0.00  -0.00
  38   1    -0.00   0.00  -0.00    -0.00   0.00   0.00    -0.10   0.08   0.01
  39   1     0.00   0.00   0.00     0.00   0.00   0.00    -0.14  -0.80  -0.17
  40   1     0.00   0.00  -0.00     0.00   0.00  -0.00     0.31   0.11   0.03
  41   1     0.00   0.00   0.00     0.00   0.00  -0.00    -0.14  -0.05  -0.02
  42   1     0.00  -0.00  -0.00     0.00  -0.00  -0.00     0.23  -0.18  -0.03
  43   1    -0.00  -0.00  -0.00    -0.00  -0.00  -0.00     0.01   0.04   0.01
                    112                    113                    114
                        a                      a                      a 
 Frequencies --  3100.6493              3104.9055              3116.4375
 Red. masses --     1.7827                 1.7988                 1.8666
 Frc consts  --     0.0000                 0.0000                 0.0000
 IR Inten    --    38.1026                32.8171                13.5640
 Raman Activ --     0.0000                 0.0000                 0.0000
 Depolar     --     0.0000                 0.0000                 0.0000
 Atom AN      X      Y      Z        X      Y      Z        X      Y      Z
   1   7     0.00   0.00   0.00     0.00   0.00   0.00     0.00   0.00   0.00
   2   6    -0.00   0.00  -0.00    -0.00   0.00  -0.00     0.00   0.00  -0.00
   3   6    -0.00   0.00   0.00    -0.00  -0.00  -0.00     0.00  -0.00   0.00
   4   8     0.00   0.00   0.00    -0.00  -0.00  -0.00     0.00   0.00  -0.00
   5   6    -0.00  -0.00  -0.00     0.00  -0.00  -0.00     0.00  -0.00  -0.00
   6   6     0.00  -0.00  -0.00     0.00  -0.00  -0.00     0.00  -0.00  -0.00
   7   6     0.00   0.00   0.00    -0.00  -0.00  -0.00     0.00   0.01   0.00
   8   6     0.00   0.00   0.00     0.00   0.00   0.00     0.00   0.00   0.00
   9   6    -0.00   0.00   0.00    -0.00   0.00   0.00     0.00  -0.00  -0.00
  10   6     0.00  -0.00  -0.00    -0.00   0.00   0.00    -0.00   0.00   0.00
  11   6     0.01  -0.01  -0.00    -0.03   0.02   0.00    -0.01   0.00   0.00
  12   6     0.00   0.02   0.00    -0.04  -0.25  -0.05     0.00   0.00   0.00
  13   6    -0.00  -0.00  -0.00     0.05   0.02   0.00    -0.00  -0.00  -0.00
  14   6    -0.00  -0.00  -0.00     0.00   0.00   0.00    -0.00   0.00   0.00
  15   6     0.00  -0.00  -0.00    -0.00  -0.00  -0.00     0.00  -0.00  -0.00
  16   6     0.01  -0.01  -0.00     0.00  -0.00  -0.00     0.02  -0.02  -0.00
  17   6     0.01   0.08   0.02     0.00   0.00   0.00     0.01   0.07   0.02
  18   6    -0.02  -0.01  -0.00    -0.00  -0.00  -0.00     0.17   0.06   0.02
  19   6    -0.01  -0.00  -0.00    -0.00  -0.00  -0.00     0.00  -0.01  -0.00
  20   6    -0.08  -0.03  -0.01    -0.01  -0.00  -0.00    -0.16  -0.06  -0.02
  21   6     0.18  -0.15  -0.02     0.02  -0.01  -0.00    -0.06   0.05   0.01
  22   6     0.01   0.03   0.01    -0.00  -0.01  -0.00    -0.00  -0.02  -0.00
  23   6    -0.00   0.00   0.00    -0.00  -0.00  -0.00     0.00  -0.00  -0.00
  24   6     0.00   0.00   0.00    -0.00   0.00   0.00    -0.00   0.00   0.00
  25  17     0.00   0.00  -0.00    -0.00   0.00  -0.00    -0.00   0.00  -0.00
  26   1     0.00  -0.00  -0.00     0.00  -0.00  -0.00     0.00  -0.00  -0.00
  27   1    -0.00  -0.00   0.00    -0.00  -0.00   0.00     0.00   0.00   0.00
  28   1    -0.00  -0.00  -0.00    -0.00  -0.00  -0.00    -0.00  -0.00  -0.00
  29   1     0.00   0.00   0.00     0.00   0.00   0.00     0.00   0.00   0.00
  30   1    -0.00  -0.00   0.00    -0.00  -0.00   0.00    -0.00  -0.00   0.00
  31   1    -0.00  -0.00  -0.00     0.00   0.00   0.00    -0.00  -0.00  -0.00
  32   1    -0.00   0.00  -0.00    -0.00  -0.00   0.00     0.00   0.00  -0.00
  33   1    -0.01   0.00   0.00    -0.01   0.01   0.00    -0.01   0.01   0.00
  34   1    -0.00  -0.01  -0.00    -0.00   0.00   0.00    -0.01  -0.04  -0.01
  35   1    -0.03   0.02   0.00     0.11  -0.09  -0.02     0.02  -0.02  -0.00
  36   1    -0.01  -0.07  -0.02     0.16   0.89   0.20    -0.00  -0.01  -0.00
  37   1     0.01   0.00   0.00    -0.19  -0.07  -0.02     0.01   0.00   0.00
  38   1    -0.04   0.03   0.01    -0.00   0.00   0.00    -0.08   0.07   0.01
  39   1    -0.05  -0.30  -0.06    -0.00  -0.02  -0.00    -0.04  -0.24  -0.05
  40   1     0.08   0.03   0.01     0.01   0.00   0.00    -0.60  -0.21  -0.06
  41   1     0.30   0.11   0.03     0.04   0.02   0.00     0.57   0.21   0.06
  42   1    -0.64   0.52   0.09    -0.05   0.04   0.01     0.20  -0.16  -0.03
  43   1    -0.02  -0.12  -0.02     0.00   0.02   0.00     0.01   0.08   0.02
                    115                    116                    117
                        a                      a                      a 
 Frequencies --  3120.5928              3127.2501              3131.0104
 Red. masses --     1.8507                 1.7817                 1.8448
 Frc consts  --     0.0000                 0.0000                 0.0000
 IR Inten    --   109.8670                30.5830                 7.4667
 Raman Activ --     0.0000                 0.0000                 0.0000
 Depolar     --     0.0000                 0.0000                 0.0000
 Atom AN      X      Y      Z        X      Y      Z        X      Y      Z
   1   7     0.00   0.00   0.00    -0.00  -0.00  -0.00     0.00   0.00   0.00
   2   6    -0.00   0.00  -0.00     0.00  -0.00   0.00     0.00   0.00   0.00
   3   6     0.00  -0.00   0.00    -0.00   0.00  -0.00     0.00   0.00   0.00
   4   8     0.00  -0.00   0.00    -0.00   0.00   0.00     0.00   0.00   0.00
   5   6     0.00  -0.00  -0.00    -0.01   0.00   0.00    -0.00  -0.00  -0.00
   6   6     0.01  -0.01  -0.00    -0.14   0.12   0.02    -0.01   0.01   0.00
   7   6     0.00   0.02   0.00    -0.02  -0.15  -0.03    -0.00  -0.00  -0.00
   8   6     0.00   0.00   0.00    -0.00  -0.01  -0.00    -0.00   0.00   0.00
   9   6    -0.00  -0.00  -0.00     0.00   0.00   0.00     0.00  -0.00   0.00
  10   6     0.00   0.00   0.00    -0.00  -0.00  -0.00    -0.00  -0.00  -0.00
  11   6     0.01  -0.01  -0.00     0.00  -0.00  -0.00    -0.05   0.05   0.01
  12   6    -0.00  -0.00  -0.00     0.00  -0.00  -0.00    -0.01  -0.05  -0.01
  13   6     0.01   0.00   0.00     0.01   0.00   0.00    -0.24  -0.08  -0.02
  14   6     0.00  -0.00  -0.00     0.00  -0.00  -0.00    -0.01   0.00   0.00
  15   6     0.00   0.00   0.00    -0.00  -0.00  -0.00     0.00  -0.00  -0.00
  16   6     0.02  -0.02  -0.00    -0.07   0.06   0.01     0.00  -0.00  -0.00
  17   6     0.01   0.06   0.01     0.01   0.04   0.01     0.00   0.00   0.00
  18   6     0.17   0.06   0.02     0.03   0.01   0.00     0.00   0.00   0.00
  19   6     0.01   0.00   0.00     0.00  -0.00  -0.00     0.00   0.00   0.00
  20   6     0.17   0.07   0.02     0.01   0.00   0.00     0.01   0.00   0.00
  21   6     0.05  -0.04  -0.01     0.00  -0.00  -0.00     0.01  -0.01  -0.00
  22   6     0.00   0.02   0.01     0.00   0.01   0.00    -0.01  -0.04  -0.01
  23   6     0.00   0.00   0.00    -0.00   0.00   0.00    -0.00  -0.00  -0.00
  24   6    -0.00  -0.00  -0.00     0.00  -0.00  -0.00     0.00   0.00   0.00
  25  17     0.00  -0.00  -0.00    -0.00  -0.00   0.00    -0.00   0.00   0.00
  26   1     0.00  -0.00  -0.00    -0.00   0.00   0.00     0.00  -0.00  -0.00
  27   1    -0.00  -0.00   0.00     0.00  -0.00   0.00    -0.00  -0.00   0.00
  28   1    -0.00  -0.00  -0.00     0.00   0.00   0.00    -0.00  -0.00  -0.00
  29   1     0.00   0.00   0.00    -0.00  -0.00  -0.00    -0.00  -0.00  -0.00
  30   1    -0.00  -0.00   0.00     0.00   0.00  -0.00     0.00   0.00  -0.00
  31   1    -0.00  -0.00  -0.00     0.00   0.00   0.00    -0.00  -0.00  -0.00
  32   1     0.00   0.00  -0.00    -0.00  -0.02   0.01    -0.00   0.00  -0.00
  33   1    -0.05   0.04   0.01     0.52  -0.43  -0.08     0.02  -0.02  -0.00
  34   1    -0.01  -0.07  -0.01     0.08   0.56   0.12     0.00   0.01   0.00
  35   1    -0.02   0.02   0.00    -0.00   0.00   0.00     0.18  -0.16  -0.03
  36   1     0.00   0.02   0.00     0.00   0.00   0.00     0.03   0.15   0.03
  37   1    -0.03  -0.01  -0.00    -0.03  -0.01  -0.00     0.85   0.29   0.09
  38   1    -0.10   0.08   0.01     0.24  -0.20  -0.03    -0.01   0.01   0.00
  39   1    -0.03  -0.18  -0.04    -0.02  -0.11  -0.02    -0.00  -0.01  -0.00
  40   1    -0.58  -0.21  -0.06    -0.10  -0.04  -0.01    -0.02  -0.01  -0.00
  41   1    -0.61  -0.22  -0.07    -0.04  -0.01  -0.00    -0.04  -0.01  -0.00
  42   1    -0.17   0.14   0.02    -0.01   0.01   0.00    -0.03   0.03   0.00
  43   1    -0.01  -0.09  -0.02    -0.00  -0.02  -0.00     0.02   0.15   0.03
                    118                    119                    120
                        a                      a                      a 
 Frequencies --  3135.0418              3135.9204              3147.0719
 Red. masses --     1.8613                 1.8528                 1.8207
 Frc consts  --     0.0000                 0.0000                 0.0000
 IR Inten    --     0.6585                 9.9297                94.8665
 Raman Activ --     0.0000                 0.0000                 0.0000
 Depolar     --     0.0000                 0.0000                 0.0000
 Atom AN      X      Y      Z        X      Y      Z        X      Y      Z
   1   7     0.00   0.00   0.00     0.00   0.00   0.00    -0.00  -0.00  -0.00
   2   6     0.00   0.00  -0.00     0.00   0.00  -0.00    -0.00  -0.00  -0.00
   3   6     0.00  -0.00   0.00     0.00  -0.00   0.00    -0.00   0.00  -0.00
   4   8     0.00  -0.00  -0.00    -0.00  -0.00  -0.00     0.00   0.00   0.00
   5   6     0.00   0.00   0.00     0.01   0.00   0.00    -0.00  -0.00  -0.00
   6   6     0.05  -0.04  -0.01     0.12  -0.11  -0.02    -0.06   0.05   0.01
   7   6    -0.00  -0.03  -0.01    -0.01  -0.09  -0.02     0.02   0.17   0.04
   8   6    -0.00   0.00  -0.00    -0.00   0.00   0.00     0.00   0.00   0.00
   9   6    -0.00   0.00   0.00     0.00   0.00   0.00    -0.00  -0.00  -0.00
  10   6     0.01   0.00   0.00    -0.00  -0.00  -0.00    -0.00   0.00  -0.00
  11   6     0.13  -0.11  -0.02    -0.05   0.04   0.01    -0.06   0.05   0.01
  12   6    -0.01  -0.05  -0.01     0.00   0.02   0.00     0.00   0.01   0.00
  13   6    -0.07  -0.02  -0.01     0.02   0.01   0.00     0.01   0.00   0.00
  14   6    -0.00   0.00   0.00    -0.00  -0.00  -0.00     0.00  -0.00  -0.00
  15   6    -0.00  -0.00  -0.00    -0.01  -0.00  -0.00    -0.00   0.00  -0.00
  16   6    -0.05   0.04   0.01    -0.13   0.11   0.02    -0.11   0.10   0.02
  17   6     0.00   0.01   0.00     0.00   0.04   0.01     0.00   0.02   0.01
  18   6     0.01   0.00   0.00     0.02   0.00   0.00     0.01   0.00   0.00
  19   6     0.00  -0.00  -0.00     0.00  -0.00  -0.00     0.00  -0.00  -0.00
  20   6    -0.02  -0.01  -0.00     0.01   0.00   0.00    -0.00  -0.00  -0.00
  21   6    -0.03   0.03   0.00     0.01  -0.01  -0.00    -0.01   0.01   0.00
  22   6     0.02   0.17   0.04    -0.01  -0.06  -0.01     0.01   0.08   0.02
  23   6     0.01   0.00   0.00    -0.00  -0.00  -0.00     0.00   0.00   0.00
  24   6    -0.00  -0.00  -0.00     0.00   0.00   0.00     0.00  -0.00  -0.00
  25  17     0.00  -0.00  -0.00     0.00  -0.00  -0.00     0.00  -0.00  -0.00
  26   1     0.00  -0.00  -0.00     0.00  -0.00  -0.00     0.00   0.00   0.00
  27   1    -0.00  -0.00   0.00    -0.00   0.00   0.00    -0.00  -0.00   0.00
  28   1    -0.00  -0.00  -0.00    -0.00  -0.00  -0.00     0.00   0.00   0.00
  29   1    -0.00   0.00   0.00     0.00   0.00   0.00     0.00   0.00  -0.00
  30   1     0.00   0.00  -0.00     0.00  -0.00   0.00    -0.00  -0.00   0.00
  31   1    -0.00  -0.00  -0.00    -0.00  -0.00  -0.00    -0.00  -0.00  -0.00
  32   1     0.00   0.00  -0.00     0.00   0.01  -0.01    -0.00  -0.01   0.00
  33   1    -0.16   0.14   0.02    -0.44   0.36   0.06     0.19  -0.16  -0.03
  34   1     0.02   0.11   0.02     0.04   0.29   0.06    -0.09  -0.60  -0.13
  35   1    -0.44   0.37   0.07     0.16  -0.14  -0.02     0.23  -0.19  -0.03
  36   1     0.03   0.16   0.03    -0.01  -0.06  -0.01    -0.01  -0.03  -0.01
  37   1     0.23   0.08   0.02    -0.07  -0.02  -0.01    -0.02  -0.01  -0.00
  38   1     0.17  -0.15  -0.02     0.46  -0.40  -0.07     0.41  -0.34  -0.06
  39   1    -0.01  -0.04  -0.01    -0.02  -0.11  -0.02    -0.01  -0.07  -0.01
  40   1    -0.02  -0.01  -0.00    -0.06  -0.02  -0.01    -0.03  -0.01  -0.00
  41   1     0.06   0.02   0.01    -0.02  -0.01  -0.00     0.00   0.00   0.00
  42   1     0.09  -0.08  -0.01    -0.04   0.03   0.00     0.02  -0.02  -0.00
  43   1    -0.08  -0.59  -0.13     0.03   0.23   0.05    -0.04  -0.28  -0.06
                    121                    122                    123
                        a                      a                      a 
 Frequencies --  3148.1419              3210.5089              3250.1080
 Red. masses --     1.8147                 1.8144                 1.7201
 Frc consts  --     0.0000                 0.0000                 0.0000
 IR Inten    --     6.8621                50.5334                39.4286
 Raman Activ --     0.0000                 0.0000                 0.0000
 Depolar     --     0.0000                 0.0000                 0.0000
 Atom AN      X      Y      Z        X      Y      Z        X      Y      Z
   1   7    -0.00  -0.00  -0.00    -0.05   0.01   0.24    -0.03  -0.21   0.09
   2   6     0.00  -0.00   0.00    -0.00   0.00   0.00     0.00  -0.01   0.00
   3   6     0.00  -0.00   0.00    -0.00  -0.00  -0.00     0.00   0.00  -0.00
   4   8    -0.00  -0.00  -0.00     0.00  -0.00  -0.00    -0.00   0.00   0.00
   5   6     0.00   0.00   0.00    -0.00  -0.00   0.00     0.00   0.00   0.00
   6   6     0.03  -0.03  -0.00    -0.00   0.00   0.00    -0.00  -0.00   0.00
   7   6    -0.01  -0.08  -0.02    -0.00  -0.00   0.00     0.00   0.00   0.00
   8   6    -0.00  -0.00  -0.00     0.00  -0.00  -0.00    -0.00   0.00  -0.00
   9   6     0.00   0.00   0.00     0.00   0.00   0.00    -0.00  -0.00  -0.00
  10   6    -0.01   0.00  -0.00    -0.00   0.00  -0.00     0.00  -0.00  -0.00
  11   6    -0.13   0.11   0.02    -0.00   0.00   0.00     0.00  -0.00  -0.00
  12   6     0.00   0.03   0.01     0.00   0.00   0.00    -0.00  -0.00  -0.00
  13   6     0.01   0.00   0.00     0.00   0.00  -0.00    -0.00  -0.00  -0.00
  14   6     0.00  -0.00  -0.00     0.00  -0.00  -0.00    -0.00   0.00  -0.00
  15   6     0.00  -0.00   0.00    -0.00   0.00   0.00     0.00  -0.00   0.00
  16   6     0.05  -0.05  -0.01     0.00  -0.00  -0.00    -0.00   0.00   0.00
  17   6    -0.00  -0.01  -0.00    -0.00  -0.00  -0.00     0.00   0.00   0.00
  18   6    -0.01  -0.00  -0.00    -0.00  -0.00  -0.00     0.00   0.00   0.00
  19   6    -0.00  -0.00  -0.00     0.00   0.00   0.00    -0.00  -0.00   0.00
  20   6    -0.01  -0.01  -0.00    -0.00  -0.00  -0.00     0.00   0.00   0.00
  21   6    -0.02   0.02   0.00    -0.00   0.00   0.00     0.00  -0.00  -0.00
  22   6     0.02   0.16   0.03     0.00   0.00   0.00    -0.00  -0.00  -0.00
  23   6     0.00   0.00   0.00    -0.00  -0.00  -0.00     0.00   0.00  -0.00
  24   6    -0.00  -0.00  -0.00     0.00   0.00  -0.00    -0.00   0.00  -0.00
  25  17    -0.00   0.00   0.00    -0.00   0.00   0.00     0.00   0.00   0.00
  26   1    -0.00   0.00   0.00     0.15  -0.12  -0.95    -0.02  -0.01   0.09
  27   1     0.00   0.00  -0.00     0.01   0.07  -0.01     0.15   0.86  -0.42
  28   1     0.00   0.00   0.00     0.03   0.02   0.04    -0.04  -0.04  -0.01
  29   1    -0.00  -0.00  -0.00     0.00  -0.00  -0.00    -0.00  -0.00  -0.00
  30   1     0.00   0.00  -0.00     0.00   0.00  -0.00     0.00   0.02  -0.01
  31   1    -0.00   0.00   0.00    -0.00  -0.00  -0.00    -0.00  -0.00  -0.00
  32   1     0.00   0.00  -0.00     0.00   0.00  -0.00     0.00  -0.00  -0.00
  33   1    -0.10   0.09   0.02     0.00  -0.00  -0.00     0.00  -0.00  -0.00
  34   1     0.04   0.29   0.06     0.00   0.00   0.00    -0.00  -0.00  -0.00
  35   1     0.46  -0.39  -0.07     0.00  -0.00  -0.00    -0.00   0.00   0.00
  36   1    -0.01  -0.08  -0.02    -0.00  -0.00  -0.00     0.00   0.00  -0.00
  37   1    -0.04  -0.01  -0.00    -0.00  -0.00  -0.00     0.00   0.00  -0.00
  38   1    -0.19   0.16   0.03    -0.00   0.00   0.00     0.00  -0.00  -0.00
  39   1     0.01   0.04   0.01     0.00   0.00   0.00    -0.00  -0.00  -0.00
  40   1     0.02   0.01   0.00     0.00   0.00   0.00    -0.00  -0.00   0.00
  41   1     0.03   0.01   0.00     0.00   0.00   0.00    -0.00  -0.00  -0.00
  42   1     0.06  -0.05  -0.01     0.00  -0.00  -0.00    -0.00   0.00   0.00
  43   1    -0.08  -0.58  -0.12    -0.00  -0.00  -0.00     0.00   0.00   0.00
