 Entering Gaussian System
 *********************************************
 Gaussian 98:
 frequency output generated by the xtb code
 *********************************************
                         Standard orientation:
 --------------------------------------------------------------------
  Center     Atomic     Atomic              Coordinates (Angstroms)
  Number     Number      Type              X           Y           Z
 --------------------------------------------------------------------
    1          7             0       -2.222921   -0.609507    0.661759
    2          6             0       -2.131277   -0.818780   -0.810501
    3          6             0       -0.960413   -1.720047   -1.194174
    4          6             0        0.367241   -1.139573   -0.805389
    5          6             0        0.932484   -0.113358   -1.548223
    6          6             0        2.133058    0.452357   -1.180548
    7          6             0        2.815230    0.010845   -0.044560
    8          8             0        4.036235    0.526740    0.401735
    9          6             0        4.566277    1.566146   -0.392269
   10          6             0        2.235487   -1.019401    0.700124
   11          6             0        1.035913   -1.580805    0.327909
   12         17             0       -4.855307    1.597978    1.400134
   13          1             0       -2.370034   -1.501626    1.153191
   14          1             0       -3.002797    0.024277    0.913121
   15          1             0       -1.353658   -0.195541    1.025575
   16          1             0       -2.024364    0.151728   -1.308423
   17          1             0       -3.075181   -1.238296   -1.179797
   18          1             0       -0.962128   -1.915629   -2.272724
   19          1             0       -1.079567   -2.699046   -0.718842
   20          1             0        0.415693    0.241864   -2.423862
   21          1             0        2.546761    1.245164   -1.777241
   22          1             0        5.511241    1.892081    0.043667
   23          1             0        3.877852    2.412599   -0.410268
   24          1             0        4.752852    1.206193   -1.405359
   25          1             0        2.751749   -1.364592    1.578763
   26          1             0        0.604221   -2.370852    0.918972
 --------------------------------------------------------------------
     1 basis functions        1 primitive gaussians
     1 alpha electrons        1 beta electrons

 Harmonic frequencies (cm**-1), IR intensities (km*mol⁻¹),
 Raman scattering activities (A**4/amu), Raman depolarization ratios,
 reduced masses (AMU), force constants (mDyne/A) and normal coordinates:
                      1                      2                      3
                        a                      a                      a 
 Frequencies --   -35.5473                26.2448                36.4468
 Red. masses --    28.3218                11.5444                21.5322
 Frc consts  --     0.0000                 0.0000                 0.0000
 IR Inten    --    70.5421                 3.1430                17.9487
 Raman Activ --     0.0000                 0.0000                 0.0000
 Depolar     --     0.0000                 0.0000                 0.0000
 Atom AN      X      Y      Z        X      Y      Z        X      Y      Z
   1   7     0.13  -0.22  -0.09     0.04  -0.06  -0.03     0.03  -0.24  -0.10
   2   6     0.11  -0.17  -0.09    -0.00   0.04  -0.05    -0.00  -0.22  -0.09
   3   6     0.14  -0.13  -0.10    -0.00   0.07  -0.15     0.02  -0.18  -0.11
   4   6     0.12  -0.08  -0.07    -0.01   0.05  -0.10    -0.01  -0.12  -0.07
   5   6     0.10  -0.07  -0.06     0.19  -0.17  -0.26    -0.05  -0.08  -0.05
   6   6     0.08  -0.03  -0.03     0.18  -0.18  -0.19    -0.11   0.00   0.01
   7   6     0.06  -0.00  -0.01    -0.05   0.05   0.04    -0.13   0.05   0.04
   8   8     0.03   0.04   0.02    -0.11   0.08   0.14    -0.22   0.16   0.11
   9   6     0.03   0.04   0.02     0.12  -0.15  -0.03    -0.27   0.23   0.17
  10   6     0.06  -0.01  -0.01    -0.27   0.28   0.20    -0.09   0.00   0.01
  11   6     0.09  -0.05  -0.04    -0.24   0.28   0.12    -0.03  -0.08  -0.05
  12  17    -0.63   0.47   0.31     0.07  -0.15   0.21     0.57   0.31   0.07
  13   1     0.04  -0.06  -0.03     0.01  -0.02  -0.02    -0.01  -0.06  -0.02
  14   1     0.04  -0.06  -0.02     0.01  -0.02   0.01     0.02  -0.05  -0.02
  15   1     0.04  -0.06  -0.02     0.01  -0.02  -0.01     0.02  -0.08  -0.03
  16   1     0.02  -0.05  -0.02    -0.00   0.02   0.00    -0.01  -0.06  -0.03
  17   1     0.04  -0.06  -0.03    -0.00   0.02  -0.01     0.00  -0.07  -0.02
  18   1     0.05  -0.03  -0.03    -0.01   0.05  -0.05     0.01  -0.05  -0.03
  19   1     0.05  -0.04  -0.04     0.00   0.01  -0.07     0.02  -0.06  -0.04
  20   1     0.03  -0.03  -0.02     0.11  -0.10  -0.13    -0.01  -0.03  -0.02
  21   1     0.02  -0.01  -0.01     0.10  -0.11  -0.10    -0.04   0.01   0.01
  22   1     0.00   0.02   0.01     0.00  -0.01   0.04    -0.09   0.09   0.06
  23   1     0.00   0.01  -0.00     0.04  -0.04  -0.13    -0.10   0.05   0.05
  24   1     0.02   0.01   0.01     0.11  -0.13   0.03    -0.06   0.09   0.05
  25   1     0.01   0.00   0.00    -0.13   0.14   0.11    -0.03   0.01   0.01
  26   1     0.03  -0.02  -0.01    -0.11   0.13   0.07    -0.00  -0.03  -0.02
                      4                      5                      6
                        a                      a                      a 
 Frequencies --    70.5952                93.5446               113.5320
 Red. masses --    10.2045                13.0320                11.2928
 Frc consts  --     0.0000                 0.0000                 0.0000
 IR Inten    --    16.0817                38.1609                32.3218
 Raman Activ --     0.0000                 0.0000                 0.0000
 Depolar     --     0.0000                 0.0000                 0.0000
 Atom AN      X      Y      Z        X      Y      Z        X      Y      Z
   1   7     0.15   0.33   0.06    -0.09   0.43  -0.46     0.58   0.22   0.13
   2   6     0.08   0.23   0.06     0.05   0.01  -0.37     0.13   0.06   0.12
   3   6    -0.07   0.03   0.06     0.06  -0.16   0.06    -0.02  -0.05  -0.10
   4   6     0.02  -0.11  -0.04     0.03  -0.11   0.10     0.01  -0.12  -0.13
   5   6     0.11  -0.24  -0.16    -0.04  -0.07   0.09    -0.07   0.01  -0.02
   6   6     0.12  -0.25  -0.18    -0.07  -0.00   0.08    -0.15   0.09   0.08
   7   6     0.06  -0.15  -0.10    -0.03   0.03   0.07    -0.16   0.06   0.08
   8   8     0.00  -0.08  -0.05    -0.04   0.09   0.04    -0.26   0.15   0.19
   9   6    -0.30   0.33   0.27     0.00  -0.06  -0.12     0.01  -0.18  -0.09
  10   6     0.03  -0.09  -0.05     0.03   0.00   0.08    -0.09  -0.06  -0.03
  11   6     0.00  -0.07  -0.01     0.05  -0.06   0.10    -0.00  -0.16  -0.14
  12  17    -0.10  -0.07   0.03     0.04  -0.11   0.30    -0.06  -0.04  -0.08
  13   1     0.04   0.09   0.03    -0.01   0.15  -0.07     0.20   0.07   0.07
  14   1     0.04   0.09   0.02    -0.04   0.11  -0.16     0.16   0.05   0.07
  15   1     0.04   0.09   0.00    -0.04   0.16  -0.14     0.18   0.08  -0.04
  16   1     0.06   0.06   0.00     0.05  -0.04  -0.18     0.02   0.00   0.00
  17   1     0.00   0.10   0.03     0.02  -0.01  -0.10     0.00   0.03   0.11
  18   1    -0.04  -0.01   0.02     0.06  -0.13   0.03    -0.04   0.01  -0.03
  19   1    -0.05   0.02   0.04    -0.02  -0.01   0.09    -0.01  -0.02  -0.05
  20   1     0.04  -0.09  -0.06    -0.02  -0.03   0.03    -0.02   0.01   0.00
  21   1     0.05  -0.10  -0.07    -0.04   0.01   0.03    -0.06   0.05   0.05
  22   1    -0.12   0.14   0.11     0.01  -0.02  -0.06     0.00  -0.05  -0.02
  23   1    -0.16   0.03   0.15     0.02  -0.00  -0.05     0.04  -0.02  -0.12
  24   1    -0.04   0.20   0.05    -0.02  -0.06  -0.02     0.02  -0.15   0.01
  25   1    -0.00  -0.01  -0.00     0.02   0.01   0.02    -0.03  -0.02  -0.01
  26   1    -0.01   0.00   0.01     0.03  -0.02   0.03     0.01  -0.07  -0.07
                      7                      8                      9
                        a                      a                      a 
 Frequencies --   157.9657               191.9279               241.7063
 Red. masses --     9.4257                 8.1598                 7.0260
 Frc consts  --     0.0000                 0.0000                 0.0000
 IR Inten    --     9.6370                 2.4512                 2.3066
 Raman Activ --     0.0000                 0.0000                 0.0000
 Depolar     --     0.0000                 0.0000                 0.0000
 Atom AN      X      Y      Z        X      Y      Z        X      Y      Z
   1   7     0.32   0.12  -0.07    -0.15   0.21   0.05     0.10  -0.04  -0.06
   2   6    -0.12  -0.32  -0.03    -0.29  -0.32   0.10    -0.13  -0.03  -0.07
   3   6     0.04  -0.08  -0.08    -0.04  -0.03   0.12     0.01   0.20  -0.17
   4   6    -0.08   0.13   0.02    -0.03   0.11  -0.07    -0.05   0.14   0.14
   5   6    -0.07   0.14   0.04     0.05   0.05  -0.11     0.04   0.11   0.19
   6   6    -0.03   0.07   0.04     0.12  -0.04  -0.15     0.15  -0.14   0.12
   7   6     0.01  -0.04  -0.03     0.06   0.02  -0.09     0.11  -0.17   0.13
   8   8     0.20  -0.35  -0.21    -0.09   0.14   0.20     0.09   0.06  -0.00
   9   6    -0.03   0.04   0.13     0.20  -0.02   0.20    -0.30   0.05  -0.28
  10   6    -0.13   0.12   0.08     0.10  -0.08  -0.19     0.05  -0.17   0.09
  11   6    -0.18   0.22   0.11     0.09  -0.03  -0.19    -0.03  -0.02   0.07
  12  17    -0.00  -0.02  -0.01     0.01   0.01   0.02     0.01   0.01  -0.01
  13   1     0.20   0.06   0.07     0.08   0.10   0.12     0.13  -0.02  -0.00
  14   1     0.07  -0.00  -0.00    -0.09   0.01  -0.02    -0.00  -0.06   0.02
  15   1     0.09   0.12  -0.14    -0.07   0.19  -0.07     0.02   0.06  -0.07
  16   1    -0.15  -0.12  -0.10    -0.22  -0.13  -0.07    -0.12  -0.00  -0.03
  17   1    -0.03  -0.20   0.11    -0.05  -0.23   0.12    -0.02  -0.07   0.02
  18   1     0.03  -0.01  -0.02    -0.04  -0.04   0.04     0.05   0.15  -0.07
  19   1     0.06  -0.04  -0.04     0.06  -0.01   0.06     0.01   0.01  -0.14
  20   1    -0.02   0.05   0.01     0.02   0.02  -0.03     0.02   0.06   0.06
  21   1    -0.00   0.02   0.02     0.06  -0.03  -0.05     0.07  -0.08   0.00
  22   1     0.05  -0.08  -0.02    -0.03   0.07   0.18    -0.22   0.28   0.00
  23   1     0.01   0.03   0.24     0.03  -0.03  -0.12    -0.26  -0.13  -0.30
  24   1    -0.12   0.16  -0.03     0.23  -0.08   0.11     0.13  -0.11  -0.00
  25   1    -0.05   0.04   0.03     0.04  -0.04  -0.07     0.00  -0.09   0.02
  26   1    -0.08   0.09   0.05     0.03  -0.02  -0.07    -0.02  -0.02   0.00
                     10                     11                     12
                        a                      a                      a 
 Frequencies --   269.6654               318.5358               332.3065
 Red. masses --     5.7478                 2.4861                 9.4875
 Frc consts  --     0.0000                 0.0000                 0.0000
 IR Inten    --     4.1546                 0.3501                26.6482
 Raman Activ --     0.0000                 0.0000                 0.0000
 Depolar     --     0.0000                 0.0000                 0.0000
 Atom AN      X      Y      Z        X      Y      Z        X      Y      Z
   1   7    -0.15   0.08   0.08     0.02   0.12   0.01     0.22  -0.13  -0.13
   2   6    -0.13  -0.07   0.09    -0.08  -0.15   0.03    -0.22   0.07  -0.14
   3   6    -0.00   0.13  -0.10     0.01  -0.04   0.02    -0.16   0.15  -0.06
   4   6     0.08  -0.01  -0.12    -0.01   0.09  -0.08    -0.20   0.05   0.31
   5   6     0.24  -0.11  -0.11     0.07   0.08  -0.04    -0.09  -0.15   0.13
   6   6     0.14  -0.05   0.12     0.09  -0.01   0.05     0.00  -0.17  -0.13
   7   6     0.05  -0.02   0.18     0.05  -0.04   0.07     0.06  -0.02  -0.12
   8   8     0.01   0.17   0.15     0.04   0.03   0.07    -0.11   0.27   0.08
   9   6    -0.16   0.01  -0.19    -0.09  -0.01  -0.07     0.22   0.09   0.07
  10   6     0.02  -0.11   0.04    -0.00  -0.06   0.00     0.18  -0.13  -0.15
  11   6     0.03  -0.06  -0.10    -0.03   0.05  -0.08    -0.02   0.00   0.21
  12  17     0.00   0.01   0.01    -0.03  -0.03   0.01    -0.00  -0.01  -0.01
  13   1     0.08   0.02   0.06    -0.53   0.13   0.01     0.02  -0.05  -0.07
  14   1    -0.12  -0.06   0.00     0.31   0.43  -0.05     0.13   0.02   0.06
  15   1    -0.09   0.15  -0.01     0.22  -0.45   0.04     0.13  -0.14  -0.09
  16   1    -0.12  -0.02   0.00    -0.05  -0.06  -0.04    -0.10   0.03  -0.03
  17   1    -0.02  -0.09   0.05    -0.02  -0.07   0.05    -0.07   0.01  -0.00
  18   1    -0.03   0.10  -0.04    -0.02  -0.03   0.01     0.05   0.09  -0.03
  19   1     0.02   0.01  -0.08     0.05  -0.01   0.03    -0.09   0.02  -0.08
  20   1     0.11  -0.03  -0.06     0.04   0.04  -0.02    -0.04  -0.08   0.03
  21   1     0.02   0.02   0.06     0.03  -0.00   0.02    -0.01  -0.06  -0.07
  22   1     0.15  -0.21  -0.33    -0.01   0.01  -0.06     0.15  -0.14  -0.03
  23   1     0.10   0.13   0.23    -0.03  -0.01  -0.01     0.19   0.13   0.11
  24   1    -0.43   0.04  -0.14    -0.06  -0.02  -0.02    -0.07   0.05  -0.01
  25   1    -0.02  -0.06   0.02    -0.02  -0.04   0.00     0.10  -0.06  -0.08
  26   1    -0.01  -0.01  -0.04    -0.02   0.01  -0.04     0.03   0.01   0.09
                     13                     14                     15
                        a                      a                      a 
 Frequencies --   359.1753               375.7990               397.1788
 Red. masses --     9.5463                 8.8301                 9.1939
 Frc consts  --     0.0000                 0.0000                 0.0000
 IR Inten    --    12.3609                 0.5499                 4.4339
 Raman Activ --     0.0000                 0.0000                 0.0000
 Depolar     --     0.0000                 0.0000                 0.0000
 Atom AN      X      Y      Z        X      Y      Z        X      Y      Z
   1   7     0.11  -0.13  -0.07    -0.02   0.02   0.02     0.13  -0.14  -0.07
   2   6     0.14   0.03  -0.07     0.01  -0.01   0.02    -0.15   0.11  -0.10
   3   6     0.14  -0.03   0.31     0.01  -0.00  -0.04    -0.30  -0.18   0.20
   4   6    -0.00   0.34   0.06     0.01  -0.03  -0.01    -0.18  -0.02  -0.21
   5   6     0.01   0.21  -0.11     0.20  -0.29  -0.23     0.03   0.00  -0.05
   6   6     0.11  -0.00  -0.15    -0.22   0.30   0.25     0.03  -0.08   0.23
   7   6    -0.02  -0.12  -0.11    -0.01   0.02   0.02     0.15  -0.01   0.21
   8   8    -0.25  -0.04   0.20     0.03  -0.03  -0.03     0.30   0.14   0.01
   9   6    -0.27  -0.19  -0.01     0.01  -0.00  -0.00     0.15   0.17  -0.07
  10   6     0.09  -0.16  -0.13     0.19  -0.26  -0.22    -0.09  -0.04   0.02
  11   6    -0.07   0.21   0.02    -0.20   0.27   0.23    -0.11   0.08  -0.21
  12  17     0.01   0.00  -0.00    -0.00   0.00   0.00     0.00   0.00  -0.01
  13   1     0.10  -0.07  -0.05    -0.01   0.01   0.01     0.12  -0.08  -0.06
  14   1    -0.01  -0.09   0.01    -0.01   0.01  -0.01     0.02  -0.09   0.08
  15   1     0.01   0.01  -0.01    -0.01   0.01   0.01     0.04  -0.02  -0.06
  16   1     0.09   0.01  -0.01    -0.00  -0.00   0.00     0.03   0.03  -0.01
  17   1     0.04   0.04  -0.05     0.00  -0.01   0.01    -0.08   0.10  -0.03
  18   1     0.05  -0.20   0.12     0.00   0.03  -0.01    -0.12  -0.28   0.10
  19   1     0.08   0.07   0.26    -0.00  -0.01  -0.03    -0.09   0.05   0.27
  20   1     0.00   0.05  -0.03     0.12  -0.18  -0.14     0.07   0.06  -0.03
  21   1     0.06  -0.01  -0.03    -0.13   0.17   0.14     0.01  -0.01   0.08
  22   1    -0.03  -0.08  -0.10    -0.05   0.08   0.06     0.03   0.08  -0.03
  23   1    -0.05  -0.02   0.04    -0.04  -0.04  -0.09     0.02   0.03  -0.03
  24   1    -0.18  -0.08  -0.01     0.10  -0.03   0.03     0.05   0.04  -0.02
  25   1     0.06  -0.07  -0.07     0.12  -0.17  -0.14    -0.10  -0.08   0.03
  26   1    -0.06   0.07  -0.00    -0.11   0.16   0.13    -0.04   0.02  -0.06
                     16                     17                     18
                        a                      a                      a 
 Frequencies --   455.2624               498.4270               536.9520
 Red. masses --     9.8367                10.4195                 8.7555
 Frc consts  --     0.0000                 0.0000                 0.0000
 IR Inten    --     3.3808                 7.5301                 6.3267
 Raman Activ --     0.0000                 0.0000                 0.0000
 Depolar     --     0.0000                 0.0000                 0.0000
 Atom AN      X      Y      Z        X      Y      Z        X      Y      Z
   1   7    -0.09   0.10   0.09     0.00  -0.00  -0.01    -0.03   0.06   0.05
   2   6     0.27  -0.09   0.10     0.09  -0.03   0.00     0.20  -0.08   0.05
   3   6     0.08  -0.21  -0.17     0.18   0.10   0.08    -0.03  -0.25  -0.15
   4   6    -0.05  -0.05  -0.13     0.01   0.27   0.10    -0.33   0.18   0.17
   5   6    -0.17   0.19   0.12     0.03   0.04  -0.17    -0.07  -0.03   0.07
   6   6     0.03  -0.18   0.03    -0.03  -0.11   0.08     0.04  -0.09  -0.07
   7   6     0.19  -0.34  -0.13    -0.33  -0.02   0.25    -0.09   0.36   0.22
   8   8    -0.06   0.27   0.02    -0.19   0.05  -0.41     0.25  -0.06   0.14
   9   6     0.15   0.15  -0.03     0.20   0.17  -0.04    -0.02  -0.02  -0.00
  10   6    -0.04  -0.19  -0.05    -0.08  -0.25   0.22    -0.00   0.02  -0.22
  11   6    -0.26   0.16   0.07    -0.05  -0.14  -0.04    -0.08   0.06  -0.07
  12  17     0.00   0.00   0.01     0.00  -0.00   0.00     0.00   0.00   0.00
  13   1    -0.05   0.05   0.06    -0.01   0.00   0.00    -0.02   0.04   0.05
  14   1    -0.07   0.01  -0.08    -0.00   0.00  -0.02    -0.04   0.01  -0.07
  15   1    -0.08   0.09   0.09    -0.01  -0.00   0.02    -0.05   0.06   0.06
  16   1     0.17  -0.03   0.04     0.01  -0.01  -0.00     0.20  -0.03   0.04
  17   1     0.05   0.06  -0.01     0.04  -0.04  -0.01     0.01   0.11  -0.02
  18   1    -0.01   0.02  -0.06     0.07   0.00   0.03     0.02   0.04  -0.06
  19   1     0.05  -0.09  -0.11     0.08   0.03   0.04     0.03  -0.11  -0.12
  20   1    -0.08   0.15   0.09     0.07  -0.07  -0.11     0.09  -0.12  -0.09
  21   1    -0.01   0.00   0.07     0.14  -0.11   0.03     0.08  -0.18  -0.18
  22   1     0.06  -0.02   0.01     0.04  -0.07   0.12     0.01   0.05  -0.08
  23   1     0.10   0.09  -0.01     0.13   0.11   0.00    -0.05  -0.04   0.03
  24   1     0.03   0.04  -0.01     0.14   0.13  -0.02    -0.06  -0.02  -0.01
  25   1    -0.09  -0.04   0.04     0.01  -0.16   0.00     0.08  -0.16  -0.18
  26   1    -0.15   0.12   0.07    -0.03  -0.12  -0.13     0.10  -0.11  -0.10
                     19                     20                     21
                        a                      a                      a 
 Frequencies --   608.2134               678.9127               710.3899
 Red. masses --    11.2090                11.1543                10.5654
 Frc consts  --     0.0000                 0.0000                 0.0000
 IR Inten    --     0.0560                 6.2777                89.2099
 Raman Activ --     0.0000                 0.0000                 0.0000
 Depolar     --     0.0000                 0.0000                 0.0000
 Atom AN      X      Y      Z        X      Y      Z        X      Y      Z
   1   7    -0.01   0.01  -0.00     0.02   0.00  -0.01    -0.02   0.02   0.03
   2   6    -0.02   0.01  -0.00     0.09  -0.05   0.01    -0.11  -0.04   0.00
   3   6    -0.03  -0.00  -0.07     0.06   0.02   0.04    -0.25  -0.29  -0.14
   4   6    -0.02   0.05  -0.08    -0.26   0.35   0.28    -0.16   0.08   0.05
   5   6    -0.34   0.01  -0.30     0.05  -0.22  -0.21     0.29   0.01   0.16
   6   6    -0.30  -0.31   0.10    -0.22   0.14   0.14     0.22   0.16   0.13
   7   6     0.03  -0.05   0.09     0.24  -0.32  -0.27     0.09  -0.08  -0.05
   8   8     0.01  -0.04   0.06     0.09   0.07   0.13    -0.39  -0.04  -0.26
   9   6    -0.03  -0.07   0.06     0.03   0.03  -0.00    -0.10  -0.09   0.02
  10   6     0.37   0.02   0.29    -0.21   0.18   0.09     0.15   0.10   0.13
  11   6     0.35   0.35  -0.12     0.07  -0.23  -0.19     0.20   0.13  -0.07
  12  17    -0.00   0.00  -0.00     0.00  -0.00   0.00     0.00  -0.00  -0.00
  13   1     0.00   0.00  -0.00    -0.01   0.01   0.01     0.02   0.02   0.05
  14   1    -0.00   0.00   0.00    -0.00   0.00  -0.04     0.00   0.01   0.01
  15   1     0.00   0.00  -0.00    -0.01   0.01   0.01     0.01   0.02  -0.05
  16   1     0.00   0.01   0.01     0.08  -0.02   0.01     0.18  -0.01   0.05
  17   1    -0.01   0.02  -0.00     0.02   0.02  -0.02    -0.11   0.20  -0.04
  18   1     0.00   0.07  -0.03     0.08   0.07   0.00    -0.07  -0.03  -0.05
  19   1    -0.02  -0.03  -0.09     0.05  -0.02  -0.04    -0.04  -0.10  -0.08
  20   1    -0.06   0.03  -0.09     0.02  -0.08  -0.07     0.16   0.02   0.00
  21   1    -0.05  -0.09   0.05    -0.09   0.07   0.06     0.10   0.02   0.03
  22   1    -0.01  -0.01   0.00     0.01   0.04  -0.04    -0.04  -0.13   0.12
  23   1    -0.02  -0.03   0.02    -0.01  -0.00  -0.01     0.05   0.04   0.00
  24   1    -0.02  -0.02   0.02    -0.02  -0.02   0.01     0.04   0.03   0.00
  25   1     0.08  -0.02   0.08    -0.10   0.08   0.06     0.06   0.02   0.02
  26   1     0.08   0.09  -0.05     0.02  -0.07  -0.06     0.10   0.01  -0.01
                     22                     23                     24
                        a                      a                      a 
 Frequencies --   799.0625               815.3861               857.9844
 Red. masses --     5.0061                 8.2239                 5.0555
 Frc consts  --     0.0000                 0.0000                 0.0000
 IR Inten    --    41.5768                10.1178                22.5796
 Raman Activ --     0.0000                 0.0000                 0.0000
 Depolar     --     0.0000                 0.0000                 0.0000
 Atom AN      X      Y      Z        X      Y      Z        X      Y      Z
   1   7     0.00  -0.02  -0.04    -0.06  -0.02   0.01    -0.03  -0.06  -0.16
   2   6    -0.01  -0.08   0.02    -0.22  -0.06   0.00    -0.01  -0.09   0.09
   3   6    -0.03  -0.02   0.08    -0.10  -0.16   0.01     0.05   0.14   0.28
   4   6    -0.10   0.15   0.12     0.18   0.01  -0.01     0.06  -0.08  -0.06
   5   6     0.10  -0.11  -0.12    -0.06   0.21  -0.24    -0.06   0.04   0.13
   6   6     0.14  -0.18  -0.16     0.01   0.26  -0.23    -0.14   0.04   0.23
   7   6    -0.16   0.22   0.18    -0.13  -0.10  -0.06     0.06   0.03   0.03
   8   8     0.04  -0.05  -0.04     0.19   0.03   0.16    -0.06   0.00  -0.04
   9   6     0.00  -0.00  -0.01     0.07   0.08  -0.03    -0.02  -0.02   0.00
  10   6     0.09  -0.14  -0.12     0.03  -0.16   0.26     0.01  -0.04  -0.25
  11   6     0.07  -0.11  -0.11    -0.04  -0.17   0.23     0.04  -0.02  -0.17
  12  17    -0.00  -0.00   0.00    -0.00  -0.00  -0.00    -0.00  -0.00  -0.00
  13   1     0.02   0.03   0.06     0.08   0.06   0.15     0.06   0.05   0.09
  14   1     0.02   0.02  -0.02     0.05   0.05   0.08     0.05   0.04   0.01
  15   1     0.02   0.02  -0.08     0.08   0.01  -0.25     0.07   0.00  -0.24
  16   1     0.14  -0.01   0.05     0.22   0.02   0.12     0.15  -0.00   0.09
  17   1    -0.03   0.11  -0.07    -0.12   0.25  -0.15     0.03   0.06  -0.14
  18   1     0.04   0.11   0.00    -0.03   0.06  -0.02    -0.02   0.24   0.04
  19   1     0.03  -0.06  -0.08    -0.00  -0.09  -0.10     0.06  -0.05  -0.11
  20   1    -0.17   0.24   0.19    -0.05  -0.04  -0.09     0.13  -0.13  -0.11
  21   1    -0.22   0.32   0.26     0.11   0.01  -0.07     0.19  -0.33  -0.23
  22   1    -0.02   0.02   0.02     0.03   0.09  -0.09    -0.00  -0.04   0.02
  23   1    -0.01  -0.01  -0.01    -0.02  -0.01  -0.00     0.01   0.00   0.01
  24   1     0.02   0.00   0.00    -0.03  -0.02  -0.00     0.01   0.02  -0.00
  25   1    -0.17   0.22   0.19     0.10  -0.02   0.03    -0.21   0.19   0.13
  26   1    -0.16   0.21   0.17    -0.06  -0.09  -0.02    -0.14   0.22   0.15
                     25                     26                     27
                        a                      a                      a 
 Frequencies --   860.8943               889.0568               898.4070
 Red. masses --     5.0829                 5.1928                 2.7572
 Frc consts  --     0.0000                 0.0000                 0.0000
 IR Inten    --    33.0585                24.6783                 0.7569
 Raman Activ --     0.0000                 0.0000                 0.0000
 Depolar     --     0.0000                 0.0000                 0.0000
 Atom AN      X      Y      Z        X      Y      Z        X      Y      Z
   1   7    -0.05  -0.06  -0.15    -0.09  -0.08   0.29    -0.01   0.01  -0.02
   2   6    -0.02  -0.09   0.10    -0.10  -0.02  -0.19    -0.01   0.01   0.02
   3   6     0.07   0.14   0.27     0.21   0.11  -0.32     0.01  -0.00   0.04
   4   6     0.07  -0.10  -0.08     0.01   0.03   0.02     0.01  -0.01  -0.01
   5   6     0.03  -0.10   0.02    -0.03  -0.07   0.07    -0.14   0.19   0.16
   6   6     0.03  -0.21   0.04    -0.07  -0.13   0.08     0.09  -0.13  -0.09
   7   6     0.10  -0.01  -0.01     0.04   0.04   0.01     0.02  -0.02  -0.02
   8   8    -0.06   0.00  -0.04    -0.02  -0.00  -0.02     0.00  -0.01  -0.01
   9   6    -0.02  -0.02   0.01    -0.01  -0.02   0.01    -0.00  -0.00  -0.00
  10   6    -0.18   0.22  -0.03    -0.01   0.04  -0.10     0.07  -0.10  -0.09
  11   6    -0.12   0.19   0.01     0.01  -0.01  -0.00    -0.07   0.09   0.07
  12  17    -0.00  -0.00  -0.00    -0.00  -0.00   0.00     0.00   0.00  -0.00
  13   1     0.07   0.05   0.11     0.03   0.16   0.42     0.02  -0.01  -0.03
  14   1     0.06   0.05   0.01     0.06   0.11   0.02     0.00  -0.00   0.03
  15   1     0.08  -0.00  -0.26     0.06   0.08  -0.23     0.01  -0.02  -0.02
  16   1     0.14   0.00   0.11    -0.00   0.12   0.20     0.01  -0.01  -0.01
  17   1     0.03   0.07  -0.16    -0.00   0.08  -0.20     0.00  -0.01  -0.00
  18   1    -0.01   0.23   0.04     0.14  -0.35  -0.02    -0.01   0.03   0.00
  19   1     0.05  -0.05  -0.10     0.04   0.19   0.24     0.01  -0.01  -0.02
  20   1    -0.06   0.12   0.11    -0.00  -0.05   0.01     0.31  -0.42  -0.35
  21   1    -0.15   0.14   0.16    -0.06  -0.02   0.01    -0.20   0.28   0.23
  22   1    -0.01  -0.02   0.03    -0.01  -0.01   0.02    -0.01   0.01   0.01
  23   1     0.01   0.01  -0.01     0.00  -0.00  -0.00     0.00   0.00  -0.01
  24   1     0.01  -0.00   0.00     0.00   0.00   0.00     0.01  -0.01   0.00
  25   1     0.14  -0.30  -0.26    -0.03   0.04   0.00    -0.19   0.26   0.21
  26   1     0.18  -0.22  -0.21     0.02   0.01   0.02     0.17  -0.24  -0.20
                     28                     29                     30
                        a                      a                      a 
 Frequencies --   915.2603               938.5726              1001.8501
 Red. masses --     3.8714                 6.3965                 9.1519
 Frc consts  --     0.0000                 0.0000                 0.0000
 IR Inten    --     0.1867                46.8776                 9.5247
 Raman Activ --     0.0000                 0.0000                 0.0000
 Depolar     --     0.0000                 0.0000                 0.0000
 Atom AN      X      Y      Z        X      Y      Z        X      Y      Z
   1   7    -0.01   0.01   0.01     0.15  -0.22  -0.28     0.08  -0.02  -0.09
   2   6    -0.00   0.00  -0.00     0.21  -0.12   0.22    -0.08  -0.03   0.09
   3   6     0.01  -0.02  -0.00    -0.28   0.24  -0.04    -0.08  -0.02  -0.07
   4   6    -0.01   0.01   0.01    -0.08  -0.02  -0.02     0.14   0.08   0.03
   5   6     0.12  -0.17  -0.14     0.01  -0.02   0.04    -0.08   0.21  -0.33
   6   6    -0.08   0.12   0.10     0.03   0.10  -0.09    -0.02  -0.22   0.25
   7   6    -0.00   0.01   0.00    -0.05  -0.02  -0.03     0.17   0.09   0.05
   8   8     0.00  -0.00  -0.00     0.02  -0.00   0.02     0.04   0.11  -0.10
   9   6     0.00  -0.00  -0.00     0.02   0.01   0.00    -0.14  -0.14   0.05
  10   6     0.13  -0.17  -0.15     0.08  -0.07   0.13    -0.04   0.17  -0.25
  11   6    -0.15   0.21   0.17     0.02   0.02   0.03    -0.06  -0.30   0.32
  12  17     0.00  -0.00  -0.00     0.00  -0.00   0.01     0.00   0.00   0.00
  13   1     0.01  -0.01  -0.01    -0.13   0.16   0.27    -0.05   0.00  -0.03
  14   1    -0.00  -0.00   0.02    -0.02   0.04  -0.50    -0.03  -0.02  -0.13
  15   1     0.00  -0.01   0.00    -0.09   0.14   0.01    -0.05   0.03   0.10
  16   1    -0.00   0.00  -0.00    -0.02   0.04   0.17     0.04  -0.01   0.02
  17   1    -0.00   0.00  -0.00     0.07  -0.05   0.03    -0.09   0.10   0.08
  18   1     0.02   0.00  -0.00    -0.19  -0.06   0.02    -0.06  -0.05  -0.01
  19   1    -0.01  -0.00  -0.00    -0.12   0.13   0.12     0.01   0.01   0.02
  20   1    -0.19   0.26   0.22    -0.00  -0.03  -0.00     0.07   0.15  -0.11
  21   1     0.12  -0.17  -0.14    -0.00   0.03  -0.03     0.11  -0.05   0.15
  22   1     0.00  -0.01  -0.00     0.01   0.02  -0.02    -0.05  -0.12   0.10
  23   1    -0.00  -0.00   0.01    -0.01  -0.01  -0.00     0.03   0.02   0.01
  24   1    -0.00   0.01  -0.00    -0.01  -0.01   0.00     0.04   0.02   0.00
  25   1    -0.22   0.31   0.25     0.03   0.02   0.05     0.13   0.18  -0.10
  26   1     0.27  -0.38  -0.32     0.02  -0.03  -0.02     0.08  -0.08   0.16
                     31                     32                     33
                        a                      a                      a 
 Frequencies --  1037.1559              1040.7285              1051.4252
 Red. masses --     8.2466                 9.7473                 5.4520
 Frc consts  --     0.0000                 0.0000                 0.0000
 IR Inten    --    23.5282                67.9685                34.5831
 Raman Activ --     0.0000                 0.0000                 0.0000
 Depolar     --     0.0000                 0.0000                 0.0000
 Atom AN      X      Y      Z        X      Y      Z        X      Y      Z
   1   7    -0.11   0.08  -0.32     0.15  -0.03   0.13    -0.20  -0.03   0.05
   2   6    -0.06   0.03   0.48    -0.13  -0.07  -0.22     0.36   0.12  -0.03
   3   6     0.14   0.01  -0.27    -0.04   0.04   0.11    -0.15  -0.13   0.01
   4   6    -0.02   0.09  -0.02     0.09  -0.02  -0.02    -0.12   0.02   0.04
   5   6     0.02  -0.07   0.08     0.03   0.04  -0.00     0.01   0.11  -0.15
   6   6    -0.04  -0.08   0.06    -0.01  -0.10   0.12     0.06  -0.02   0.07
   7   6    -0.06  -0.00  -0.04    -0.10  -0.05  -0.03    -0.02  -0.02   0.01
   8   8    -0.14  -0.19   0.10    -0.27  -0.37   0.21    -0.11  -0.15   0.08
   9   6     0.15   0.18  -0.08     0.27   0.35  -0.19     0.08   0.13  -0.08
  10   6     0.01   0.01  -0.02    -0.04   0.08  -0.13     0.02   0.06  -0.06
  11   6     0.04  -0.02   0.04     0.05   0.04   0.01     0.01  -0.08   0.08
  12  17    -0.00   0.00  -0.00     0.00  -0.00   0.00    -0.00  -0.00  -0.00
  13   1     0.08  -0.08  -0.23    -0.10   0.04   0.07     0.11   0.02   0.11
  14   1     0.01  -0.01   0.13    -0.04  -0.02  -0.18     0.07   0.07   0.20
  15   1     0.06  -0.08  -0.16    -0.09   0.08   0.23     0.11  -0.06  -0.29
  16   1     0.05  -0.01   0.09     0.07  -0.02  -0.04    -0.21   0.05  -0.02
  17   1    -0.04   0.09   0.10    -0.12   0.12   0.00     0.29  -0.33  -0.08
  18   1    -0.19  -0.19  -0.03     0.13   0.07   0.02    -0.12   0.04  -0.01
  19   1     0.29   0.07   0.14    -0.03  -0.02  -0.05    -0.28  -0.03  -0.05
  20   1    -0.00  -0.01   0.03     0.09   0.06  -0.02     0.09   0.13  -0.05
  21   1    -0.04  -0.02  -0.00     0.05  -0.03   0.07     0.11   0.01   0.10
  22   1     0.05   0.12  -0.11     0.08   0.21  -0.18     0.02   0.06  -0.05
  23   1    -0.04  -0.02  -0.01    -0.05  -0.02  -0.02    -0.01   0.00  -0.00
  24   1    -0.04  -0.02  -0.01    -0.05  -0.02  -0.02    -0.00  -0.00  -0.01
  25   1     0.07   0.07  -0.02     0.08   0.10  -0.06     0.11   0.12  -0.04
  26   1     0.04   0.01   0.06     0.06   0.00   0.02     0.07  -0.00   0.10
                     34                     35                     36
                        a                      a                      a 
 Frequencies --  1087.0407              1126.6513              1131.2643
 Red. masses --     6.8008                 4.9889                 3.7734
 Frc consts  --     0.0000                 0.0000                 0.0000
 IR Inten    --    22.1684                50.6608                 2.7425
 Raman Activ --     0.0000                 0.0000                 0.0000
 Depolar     --     0.0000                 0.0000                 0.0000
 Atom AN      X      Y      Z        X      Y      Z        X      Y      Z
   1   7     0.03  -0.12  -0.20     0.01  -0.05  -0.03     0.00  -0.00  -0.00
   2   6    -0.18   0.35   0.26    -0.05   0.13   0.03    -0.00   0.00  -0.00
   3   6     0.22  -0.35   0.02     0.08  -0.11   0.06     0.00  -0.00   0.00
   4   6     0.06  -0.04   0.11    -0.04   0.06  -0.10     0.00  -0.00   0.00
   5   6    -0.00   0.05  -0.06     0.09  -0.05   0.14    -0.00   0.00  -0.00
   6   6     0.03   0.04  -0.03    -0.05  -0.12   0.10    -0.00   0.00   0.00
   7   6     0.02  -0.04   0.06    -0.13   0.04  -0.16     0.00   0.00   0.00
   8   8    -0.02  -0.04   0.03     0.04   0.18  -0.18     0.11  -0.15  -0.13
   9   6    -0.01   0.04  -0.05     0.09  -0.14   0.25    -0.21   0.29   0.24
  10   6    -0.06   0.02  -0.08     0.05  -0.04   0.09     0.00  -0.00  -0.00
  11   6     0.02   0.07  -0.09    -0.08  -0.05  -0.02    -0.00   0.00   0.00
  12  17    -0.00   0.00   0.00    -0.00  -0.00   0.00    -0.00  -0.00  -0.00
  13   1    -0.05   0.06   0.10    -0.02   0.03   0.06    -0.00   0.00   0.00
  14   1     0.00   0.02  -0.18     0.01   0.01  -0.05     0.00  -0.00   0.00
  15   1    -0.03   0.06  -0.07    -0.01   0.03  -0.02    -0.00   0.00   0.00
  16   1    -0.28   0.17   0.16    -0.08   0.04   0.01     0.00  -0.00  -0.00
  17   1    -0.05   0.01   0.15    -0.00  -0.01   0.03    -0.00   0.00   0.00
  18   1     0.38  -0.01  -0.01     0.11   0.03   0.00    -0.00   0.00   0.00
  19   1    -0.20  -0.11  -0.10    -0.02  -0.05  -0.05    -0.00  -0.00  -0.00
  20   1    -0.06  -0.04  -0.01     0.27   0.21  -0.01    -0.00   0.00   0.00
  21   1     0.07   0.02   0.04    -0.15  -0.05  -0.08     0.01  -0.01  -0.01
  22   1    -0.01  -0.03   0.03     0.06   0.20  -0.19     0.12  -0.17  -0.14
  23   1     0.02   0.03  -0.00    -0.12  -0.14   0.01     0.26   0.30  -0.43
  24   1     0.03   0.02  -0.01    -0.15  -0.10   0.04    -0.11  -0.53   0.25
  25   1    -0.15  -0.11   0.01     0.33   0.28  -0.05    -0.01   0.00   0.01
  26   1     0.01   0.03  -0.01    -0.30  -0.03  -0.22     0.00  -0.00  -0.00
                     37                     38                     39
                        a                      a                      a 
 Frequencies --  1147.6530              1162.0361              1193.4817
 Red. masses --     5.7436                 7.0427                 4.2801
 Frc consts  --     0.0000                 0.0000                 0.0000
 IR Inten    --   107.2716               270.1776                12.6948
 Raman Activ --     0.0000                 0.0000                 0.0000
 Depolar     --     0.0000                 0.0000                 0.0000
 Atom AN      X      Y      Z        X      Y      Z        X      Y      Z
   1   7     0.01  -0.00  -0.01    -0.01  -0.01   0.00     0.03  -0.19   0.07
   2   6    -0.03   0.02   0.01     0.01   0.02  -0.01    -0.07   0.36  -0.18
   3   6     0.04   0.01   0.02    -0.02  -0.04   0.00     0.13  -0.19   0.08
   4   6    -0.07  -0.02  -0.05     0.08   0.08  -0.02    -0.04   0.10  -0.06
   5   6     0.04  -0.07   0.12    -0.05   0.01  -0.05    -0.00  -0.04   0.03
   6   6    -0.04  -0.02  -0.00    -0.02   0.00  -0.02     0.00  -0.01   0.01
   7   6    -0.26  -0.15  -0.05     0.46   0.27   0.08    -0.01   0.01  -0.02
   8   8     0.24  -0.05   0.27    -0.20  -0.22   0.09     0.01  -0.01   0.02
   9   6    -0.19   0.09  -0.27    -0.01   0.13  -0.17    -0.01   0.01  -0.02
  10   6     0.03   0.03  -0.01     0.09  -0.03   0.12    -0.02  -0.04   0.02
  11   6    -0.02   0.06  -0.10    -0.09  -0.14   0.09     0.02  -0.02   0.05
  12  17    -0.00   0.00   0.00     0.00   0.00   0.00     0.00  -0.00   0.00
  13   1    -0.00   0.00  -0.00    -0.00   0.00   0.01    -0.06   0.08   0.23
  14   1     0.00  -0.00   0.00    -0.00  -0.00  -0.01     0.03   0.03  -0.13
  15   1    -0.00   0.00   0.00     0.00   0.00  -0.01    -0.04   0.09  -0.04
  16   1    -0.00   0.01   0.01    -0.02  -0.00  -0.01    -0.14   0.04  -0.18
  17   1    -0.00   0.00  -0.01    -0.00  -0.00   0.03    -0.00  -0.05   0.07
  18   1     0.04   0.01   0.00    -0.04  -0.01  -0.00    -0.49   0.13  -0.01
  19   1     0.04  -0.00   0.00    -0.06  -0.01  -0.02     0.48  -0.13  -0.06
  20   1     0.04   0.01   0.03     0.02   0.04  -0.02    -0.04  -0.03   0.02
  21   1     0.06  -0.01   0.05    -0.36  -0.02  -0.30    -0.06  -0.00  -0.04
  22   1    -0.09  -0.31   0.28    -0.03  -0.15   0.15    -0.01  -0.03   0.03
  23   1     0.18   0.20  -0.01     0.04   0.05  -0.02     0.01   0.01  -0.00
  24   1     0.22   0.14  -0.05     0.05   0.05  -0.03     0.01   0.01  -0.00
  25   1     0.36   0.33  -0.09     0.00  -0.04   0.05    -0.02  -0.02   0.01
  26   1    -0.12   0.01  -0.12    -0.36  -0.06  -0.24     0.14  -0.00   0.12
                     40                     41                     42
                        a                      a                      a 
 Frequencies --  1199.2786              1237.4346              1253.5893
 Red. masses --     2.4560                 3.5598                 7.0064
 Frc consts  --     0.0000                 0.0000                 0.0000
 IR Inten    --     9.0686                 3.8192                64.1971
 Raman Activ --     0.0000                 0.0000                 0.0000
 Depolar     --     0.0000                 0.0000                 0.0000
 Atom AN      X      Y      Z        X      Y      Z        X      Y      Z
   1   7    -0.01  -0.01   0.01    -0.19  -0.18   0.00     0.05   0.06  -0.01
   2   6     0.03   0.01  -0.04     0.19   0.07   0.01    -0.04  -0.07  -0.04
   3   6    -0.07  -0.06  -0.02    -0.12   0.08  -0.05    -0.05  -0.14  -0.07
   4   6     0.18   0.10   0.07     0.18   0.04   0.07     0.39   0.19   0.20
   5   6    -0.03  -0.04   0.02     0.05   0.00   0.05     0.14   0.01   0.11
   6   6     0.09  -0.03   0.11    -0.07  -0.06   0.01    -0.16  -0.15   0.04
   7   6     0.09   0.02   0.06    -0.11  -0.03  -0.05    -0.26  -0.06  -0.15
   8   8    -0.07   0.01  -0.06     0.05   0.02   0.03     0.12   0.04   0.06
   9   6     0.03  -0.02   0.05    -0.01  -0.01  -0.00    -0.02  -0.01  -0.01
  10   6     0.00   0.08  -0.09    -0.03   0.03  -0.06    -0.08   0.06  -0.15
  11   6    -0.02   0.04  -0.07     0.06   0.05   0.00     0.18   0.09   0.05
  12  17    -0.00   0.00   0.00    -0.00  -0.00  -0.00    -0.00   0.00  -0.00
  13   1     0.00   0.01   0.02     0.06   0.04   0.19    -0.02  -0.01  -0.06
  14   1     0.00   0.00   0.01     0.05   0.06   0.03    -0.01  -0.02   0.01
  15   1    -0.00   0.00  -0.01     0.03  -0.01  -0.22    -0.01  -0.00   0.07
  16   1    -0.02   0.00  -0.02     0.17  -0.23  -0.46    -0.07   0.08   0.16
  17   1    -0.00   0.00   0.02    -0.21   0.15   0.52     0.04  -0.02  -0.14
  18   1    -0.18  -0.01  -0.01     0.11  -0.04  -0.00    -0.38  -0.01  -0.02
  19   1    -0.05  -0.03  -0.03    -0.09   0.05   0.02    -0.23  -0.01  -0.02
  20   1    -0.51  -0.46   0.11     0.05   0.03   0.01     0.14   0.10   0.02
  21   1     0.26   0.01   0.22    -0.03  -0.02  -0.00    -0.12  -0.05  -0.04
  22   1     0.02   0.09  -0.08    -0.00  -0.01   0.01    -0.01  -0.02   0.02
  23   1    -0.04  -0.04   0.01     0.01   0.01  -0.00     0.03   0.03  -0.01
  24   1    -0.04  -0.04   0.01     0.01   0.01  -0.00     0.03   0.03  -0.01
  25   1     0.14   0.15  -0.06    -0.10  -0.07  -0.00    -0.26  -0.19   0.01
  26   1    -0.32  -0.00  -0.27    -0.06   0.01  -0.06    -0.14   0.02  -0.14
                     43                     44                     45
                        a                      a                      a 
 Frequencies --  1279.0531              1326.3292              1328.4981
 Red. masses --     3.9613                 4.5553                 9.5978
 Frc consts  --     0.0000                 0.0000                 0.0000
 IR Inten    --     2.2199                12.4483                10.1185
 Raman Activ --     0.0000                 0.0000                 0.0000
 Depolar     --     0.0000                 0.0000                 0.0000
 Atom AN      X      Y      Z        X      Y      Z        X      Y      Z
   1   7    -0.02   0.02  -0.01    -0.08   0.05  -0.08     0.05  -0.05   0.03
   2   6     0.05  -0.05  -0.03     0.14  -0.20  -0.25    -0.16   0.07   0.10
   3   6    -0.08  -0.06   0.02     0.34   0.02   0.08     0.21   0.02  -0.07
   4   6     0.17   0.18  -0.08    -0.15  -0.08   0.03    -0.05  -0.23   0.30
   5   6     0.16   0.13  -0.01    -0.03  -0.02  -0.01     0.18   0.18  -0.06
   6   6     0.00  -0.05   0.06    -0.01   0.05  -0.07    -0.22   0.03  -0.23
   7   6    -0.05  -0.20   0.20     0.06  -0.00   0.06     0.06  -0.24   0.35
   8   8     0.02   0.05  -0.05    -0.02  -0.00  -0.01    -0.05   0.01  -0.05
   9   6     0.05   0.00   0.04     0.00   0.00   0.00     0.03  -0.01   0.03
  10   6    -0.13  -0.07  -0.03     0.05   0.00   0.04     0.21   0.21  -0.07
  11   6    -0.06   0.05  -0.11    -0.08  -0.01  -0.06    -0.22  -0.01  -0.19
  12  17    -0.00   0.00   0.00    -0.00   0.00  -0.00     0.00  -0.00   0.00
  13   1     0.03  -0.00  -0.01     0.08   0.02   0.03    -0.06   0.00   0.01
  14   1    -0.00   0.00   0.01     0.01   0.00   0.10    -0.00  -0.01  -0.04
  15   1     0.01  -0.03   0.00    -0.00  -0.08   0.05    -0.01   0.05  -0.01
  16   1    -0.04   0.02   0.06    -0.19   0.17   0.31     0.17  -0.13  -0.22
  17   1    -0.03   0.03   0.05    -0.29   0.27   0.39     0.06  -0.05  -0.13
  18   1     0.04   0.01  -0.00    -0.32   0.11   0.01    -0.23  -0.01  -0.01
  19   1    -0.17  -0.01  -0.03    -0.22   0.05   0.04    -0.13   0.06   0.06
  20   1    -0.24  -0.23   0.06     0.06   0.06  -0.02     0.05   0.06  -0.02
  21   1    -0.46  -0.05  -0.35     0.08   0.02   0.04    -0.01   0.01  -0.03
  22   1     0.01  -0.02   0.03     0.00   0.01  -0.01     0.01   0.04  -0.03
  23   1    -0.02  -0.03  -0.04    -0.01  -0.00   0.01    -0.02  -0.02   0.00
  24   1    -0.05   0.01  -0.01     0.00  -0.01   0.01    -0.02  -0.01   0.01
  25   1     0.20   0.20  -0.06     0.05   0.04   0.00     0.05   0.05  -0.01
  26   1     0.32   0.04   0.24     0.02   0.00   0.02    -0.05   0.00  -0.04
                     46                     47                     48
                        a                      a                      a 
 Frequencies --  1342.8032              1397.3482              1405.4284
 Red. masses --     6.3627                 2.4418                 2.8303
 Frc consts  --     0.0000                 0.0000                 0.0000
 IR Inten    --     7.9610                 0.1729               216.2168
 Raman Activ --     0.0000                 0.0000                 0.0000
 Depolar     --     0.0000                 0.0000                 0.0000
 Atom AN      X      Y      Z        X      Y      Z        X      Y      Z
   1   7    -0.06   0.05  -0.02    -0.00  -0.00  -0.00     0.05  -0.08  -0.36
   2   6     0.20  -0.04  -0.13    -0.00  -0.00   0.00    -0.02   0.01   0.02
   3   6    -0.39   0.01   0.02     0.02  -0.00   0.01    -0.04  -0.00  -0.02
   4   6     0.11  -0.12   0.15    -0.02   0.01  -0.03     0.01  -0.01   0.01
   5   6     0.17   0.13  -0.01     0.01   0.01  -0.01    -0.01   0.01  -0.02
   6   6    -0.20  -0.04  -0.12     0.01  -0.01   0.02     0.02   0.00   0.01
   7   6    -0.01  -0.13   0.15     0.03   0.03  -0.01    -0.00  -0.01   0.01
   8   8    -0.01   0.00  -0.01    -0.05  -0.09   0.07    -0.00  -0.00  -0.00
   9   6     0.01  -0.01   0.02    -0.15  -0.24   0.16     0.01   0.00   0.00
  10   6     0.17   0.18  -0.07     0.03   0.01   0.02    -0.01   0.00  -0.01
  11   6    -0.11  -0.03  -0.06    -0.02  -0.02   0.01     0.01   0.00   0.01
  12  17    -0.00   0.00   0.00     0.00   0.00  -0.00    -0.00   0.00  -0.01
  13   1     0.07  -0.00  -0.01     0.00  -0.00  -0.00    -0.12   0.22   0.34
  14   1     0.00   0.01   0.02     0.00   0.00   0.00     0.20  -0.03   0.63
  15   1     0.02  -0.06   0.00    -0.00   0.00   0.00    -0.25   0.14   0.39
  16   1    -0.22   0.17   0.26     0.01  -0.00  -0.00     0.07  -0.01  -0.00
  17   1    -0.03   0.03   0.11    -0.00   0.00   0.00     0.04  -0.07  -0.02
  18   1     0.20  -0.06   0.02     0.00   0.01   0.00     0.04   0.01  -0.01
  19   1     0.52  -0.10  -0.04    -0.02   0.00  -0.00     0.03   0.01   0.02
  20   1     0.04   0.01  -0.00    -0.02  -0.02   0.00    -0.01  -0.00  -0.00
  21   1    -0.01  -0.01  -0.00    -0.05  -0.01  -0.03    -0.02   0.00  -0.01
  22   1     0.01   0.02  -0.02     0.04   0.33  -0.36     0.00  -0.00   0.00
  23   1     0.00   0.00  -0.00     0.37   0.29  -0.31    -0.00  -0.00  -0.01
  24   1    -0.00   0.00   0.00     0.21   0.50  -0.14    -0.01   0.01  -0.00
  25   1    -0.05  -0.04   0.00    -0.00  -0.01   0.01    -0.00  -0.00  -0.00
  26   1    -0.09  -0.02  -0.07     0.00  -0.01   0.01    -0.00  -0.00  -0.01
                     49                     50                     51
                        a                      a                      a 
 Frequencies --  1419.2155              1425.9832              1431.6831
 Red. masses --     2.0345                 9.1307                 1.9761
 Frc consts  --     0.0000                 0.0000                 0.0000
 IR Inten    --    83.2813                15.4971                84.0662
 Raman Activ --     0.0000                 0.0000                 0.0000
 Depolar     --     0.0000                 0.0000                 0.0000
 Atom AN      X      Y      Z        X      Y      Z        X      Y      Z
   1   7     0.15  -0.05   0.10     0.06   0.02  -0.01    -0.08  -0.18   0.07
   2   6     0.09  -0.06  -0.04     0.01  -0.00   0.01     0.00  -0.04  -0.00
   3   6    -0.03   0.01  -0.01     0.02  -0.05   0.05     0.01  -0.00   0.02
   4   6    -0.00  -0.05   0.05    -0.01   0.19  -0.23     0.00   0.04  -0.05
   5   6    -0.07  -0.02  -0.04     0.31   0.10   0.15     0.07   0.02   0.03
   6   6     0.07   0.05   0.01    -0.30  -0.20  -0.02    -0.07  -0.04  -0.01
   7   6    -0.00  -0.05   0.06    -0.01   0.20  -0.25     0.01   0.05  -0.06
   8   8    -0.00   0.01  -0.01     0.01  -0.03   0.05     0.00  -0.01   0.01
   9   6     0.01  -0.00   0.01    -0.04   0.01  -0.05    -0.01   0.00  -0.01
  10   6    -0.07  -0.02  -0.04     0.30   0.08   0.17     0.06   0.01   0.04
  11   6     0.07   0.05   0.01    -0.31  -0.19  -0.05    -0.08  -0.04  -0.02
  12  17    -0.00   0.00  -0.00     0.00   0.00  -0.00    -0.00  -0.00   0.00
  13   1    -0.63  -0.03  -0.24    -0.18   0.05   0.03     0.15  -0.21  -0.30
  14   1    -0.06  -0.18   0.22    -0.10  -0.16   0.08     0.44   0.55  -0.03
  15   1    -0.02   0.43  -0.40     0.04   0.01  -0.08    -0.25   0.44   0.04
  16   1    -0.07   0.03   0.06     0.00  -0.01  -0.02    -0.02   0.01   0.04
  17   1    -0.04   0.06   0.08    -0.00   0.01   0.01    -0.01   0.02  -0.02
  18   1     0.00   0.03  -0.00     0.06   0.05  -0.00     0.01  -0.01   0.00
  19   1     0.04   0.01   0.03    -0.12   0.00  -0.00    -0.04  -0.01  -0.02
  20   1     0.02   0.03  -0.02    -0.09  -0.14   0.09    -0.02  -0.03   0.02
  21   1    -0.03   0.01  -0.04     0.09  -0.05   0.14     0.02  -0.01   0.03
  22   1     0.00   0.00  -0.00    -0.01  -0.00  -0.00    -0.00  -0.00   0.00
  23   1    -0.00  -0.00  -0.03     0.01   0.02   0.11     0.00   0.00   0.03
  24   1    -0.02   0.02  -0.01     0.08  -0.07   0.03     0.02  -0.02   0.01
  25   1     0.02   0.03  -0.02    -0.07  -0.12   0.09    -0.01  -0.02   0.02
  26   1    -0.02   0.00  -0.04     0.12  -0.04   0.15     0.03  -0.01   0.03
                     52                     53                     54
                        a                      a                      a 
 Frequencies --  1472.8693              1477.3502              1481.4083
 Red. masses --     4.4883                 1.5103                 2.5986
 Frc consts  --     0.0000                 0.0000                 0.0000
 IR Inten    --    88.3914                 5.5068                11.4202
 Raman Activ --     0.0000                 0.0000                 0.0000
 Depolar     --     0.0000                 0.0000                 0.0000
 Atom AN      X      Y      Z        X      Y      Z        X      Y      Z
   1   7     0.00   0.00  -0.01     0.00   0.00  -0.00     0.01  -0.01  -0.01
   2   6     0.01  -0.00   0.02     0.00  -0.00   0.00     0.15  -0.10   0.16
   3   6    -0.08  -0.01  -0.02     0.00   0.00   0.00    -0.06  -0.07  -0.04
   4   6     0.22   0.09   0.09    -0.01  -0.00  -0.00     0.12   0.05   0.03
   5   6    -0.10  -0.13   0.07     0.00   0.00  -0.00    -0.03  -0.07   0.05
   6   6    -0.11   0.04  -0.14     0.01  -0.00   0.00    -0.09   0.01  -0.09
   7   6     0.20   0.06   0.10    -0.01  -0.00  -0.00     0.09   0.06   0.01
   8   8    -0.05   0.01  -0.05    -0.02   0.02   0.02    -0.01  -0.01   0.01
   9   6    -0.15  -0.03  -0.09    -0.10   0.14   0.12     0.04  -0.00   0.03
  10   6    -0.19  -0.17   0.04     0.00   0.00  -0.00    -0.06  -0.08   0.04
  11   6    -0.03   0.08  -0.12     0.00  -0.00   0.00    -0.05   0.02  -0.07
  12  17     0.00  -0.00  -0.00    -0.00  -0.00   0.00    -0.00   0.00   0.00
  13   1    -0.01   0.01   0.01     0.00   0.00   0.00     0.01   0.02   0.05
  14   1    -0.00  -0.01   0.01    -0.00  -0.00   0.00     0.01  -0.01   0.03
  15   1    -0.00   0.00   0.01     0.00  -0.00   0.00    -0.01  -0.01   0.05
  16   1    -0.04  -0.01  -0.02    -0.01  -0.00  -0.01    -0.50  -0.11  -0.30
  17   1     0.01   0.02  -0.04    -0.00   0.01  -0.01    -0.05   0.46  -0.37
  18   1    -0.02  -0.05   0.00     0.00  -0.01   0.00     0.03   0.14  -0.03
  19   1     0.01  -0.02  -0.04     0.00  -0.00  -0.01     0.01   0.06   0.14
  20   1     0.12   0.09  -0.01    -0.00  -0.00  -0.00     0.06   0.04  -0.00
  21   1     0.05   0.02   0.02    -0.02   0.02   0.01     0.10   0.01   0.07
  22   1     0.03   0.18  -0.22     0.35  -0.48  -0.39    -0.01  -0.05   0.07
  23   1     0.14   0.12   0.48    -0.36  -0.29  -0.13    -0.04  -0.03  -0.17
  24   1     0.42  -0.25   0.17     0.44   0.17   0.03    -0.15   0.10  -0.06
  25   1     0.12   0.11  -0.03    -0.00  -0.00  -0.00     0.05   0.04  -0.00
  26   1     0.10   0.03   0.05    -0.00  -0.00  -0.00     0.05   0.01   0.03
                     55                     56                     57
                        a                      a                      a 
 Frequencies --  1484.6221              1487.8905              1573.5533
 Red. masses --     4.9426                 3.0221                11.6159
 Frc consts  --     0.0000                 0.0000                 0.0000
 IR Inten    --    36.7787                27.8052                 6.7453
 Raman Activ --     0.0000                 0.0000                 0.0000
 Depolar     --     0.0000                 0.0000                 0.0000
 Atom AN      X      Y      Z        X      Y      Z        X      Y      Z
   1   7    -0.01  -0.00   0.01    -0.01   0.01   0.01    -0.00   0.00   0.00
   2   6     0.05  -0.04   0.04    -0.07   0.04  -0.07    -0.00  -0.00  -0.00
   3   6     0.05  -0.08  -0.04    -0.11  -0.23  -0.13    -0.01   0.03  -0.04
   4   6    -0.23  -0.12  -0.07     0.15   0.06   0.04     0.04  -0.34   0.45
   5   6     0.05   0.14  -0.12    -0.03  -0.06   0.05     0.10   0.24  -0.20
   6   6     0.19  -0.01   0.19    -0.09   0.00  -0.09     0.14  -0.11   0.26
   7   6    -0.20  -0.12  -0.03     0.10   0.05   0.03    -0.03   0.29  -0.38
   8   8     0.01   0.02  -0.02    -0.01  -0.01   0.00     0.02  -0.02   0.04
   9   6    -0.07  -0.00  -0.06     0.02   0.00   0.02    -0.02  -0.00  -0.01
  10   6     0.14   0.17  -0.09    -0.08  -0.08   0.03    -0.09  -0.21   0.18
  11   6     0.10  -0.06   0.16    -0.03   0.03  -0.06    -0.16   0.12  -0.29
  12  17    -0.00   0.00   0.00    -0.00  -0.00  -0.00     0.00   0.00   0.00
  13   1     0.03  -0.01   0.00     0.03  -0.02  -0.03     0.00   0.00   0.00
  14   1     0.01   0.02  -0.01     0.00   0.02  -0.04    -0.00  -0.00  -0.00
  15   1    -0.00  -0.01   0.02     0.01  -0.01  -0.01     0.00  -0.01  -0.00
  16   1    -0.16  -0.04  -0.10     0.22   0.05   0.14    -0.00   0.00  -0.00
  17   1    -0.03   0.16  -0.11     0.04  -0.22   0.14    -0.00   0.00   0.00
  18   1     0.06   0.32  -0.05     0.09   0.54  -0.11    -0.06  -0.02  -0.00
  19   1     0.03   0.14   0.30     0.05   0.23   0.52     0.08   0.01   0.03
  20   1    -0.13  -0.09  -0.01     0.04   0.03   0.00    -0.06  -0.02  -0.03
  21   1    -0.20  -0.02  -0.15     0.08   0.01   0.06    -0.08  -0.03  -0.03
  22   1     0.01   0.10  -0.10     0.00  -0.04   0.02    -0.01  -0.01   0.01
  23   1     0.07   0.07   0.30    -0.03  -0.02  -0.09     0.00   0.01   0.00
  24   1     0.24  -0.17   0.10    -0.06   0.06  -0.03     0.01   0.00  -0.00
  25   1    -0.11  -0.09   0.01     0.05   0.04  -0.01     0.06   0.02   0.03
  26   1    -0.14  -0.03  -0.09     0.04   0.01   0.02     0.07   0.04   0.01
                     58                     59                     60
                        a                      a                      a 
 Frequencies --  1619.1149              2946.3617              2955.3155
 Red. masses --    11.5766                 1.9428                 1.9204
 Frc consts  --     0.0000                 0.0000                 0.0000
 IR Inten    --    39.2401                13.9973                 3.4624
 Raman Activ --     0.0000                 0.0000                 0.0000
 Depolar     --     0.0000                 0.0000                 0.0000
 Atom AN      X      Y      Z        X      Y      Z        X      Y      Z
   1   7    -0.00  -0.00  -0.00    -0.00   0.00  -0.00     0.00  -0.00  -0.00
   2   6     0.01  -0.01  -0.00     0.01   0.04  -0.01    -0.20  -0.20  -0.01
   3   6     0.04   0.03   0.02    -0.02  -0.10   0.27    -0.00   0.03   0.04
   4   6    -0.27  -0.14  -0.07     0.00  -0.00   0.01     0.00   0.00   0.00
   5   6     0.40   0.29  -0.01    -0.00  -0.00  -0.00    -0.00   0.00  -0.00
   6   6    -0.35  -0.12  -0.17     0.00  -0.00   0.00     0.00  -0.00   0.00
   7   6     0.16   0.09   0.03    -0.00   0.00  -0.00    -0.00   0.00  -0.00
   8   8     0.00   0.00   0.00     0.00   0.00  -0.00    -0.00   0.00  -0.00
   9   6    -0.01  -0.01   0.00    -0.00   0.00   0.00    -0.00   0.00  -0.00
  10   6    -0.36  -0.24  -0.03    -0.00  -0.00   0.00    -0.00  -0.00  -0.00
  11   6     0.40   0.10   0.23     0.00   0.00  -0.00    -0.00  -0.00   0.00
  12  17    -0.00   0.00   0.00    -0.00   0.00  -0.00    -0.00   0.00   0.00
  13   1    -0.00  -0.00  -0.00     0.00  -0.00  -0.00    -0.00  -0.01   0.01
  14   1     0.00   0.00   0.00    -0.00   0.00   0.00    -0.00   0.00  -0.00
  15   1    -0.00   0.00   0.00     0.00   0.00   0.00    -0.02  -0.01  -0.01
  16   1    -0.01  -0.00  -0.00    -0.02  -0.13   0.07     0.03   0.42  -0.22
  17   1    -0.00   0.01   0.00    -0.02  -0.01  -0.01     0.68   0.30   0.27
  18   1     0.01  -0.00   0.00    -0.00  -0.14  -0.75     0.00  -0.03  -0.21
  19   1     0.01   0.00  -0.00     0.06   0.51  -0.23    -0.01  -0.11   0.06
  20   1    -0.07  -0.08   0.04     0.00  -0.00   0.00     0.00  -0.00   0.00
  21   1     0.04  -0.02   0.06    -0.00   0.00  -0.00     0.00   0.00  -0.00
  22   1    -0.00  -0.00  -0.00     0.00   0.00   0.00     0.00   0.00   0.00
  23   1     0.00   0.00  -0.01     0.00  -0.00   0.00     0.00  -0.01  -0.00
  24   1     0.00   0.01  -0.00     0.00  -0.00  -0.00    -0.00   0.00   0.01
  25   1     0.04   0.06  -0.04    -0.00   0.00  -0.00     0.00   0.00   0.00
  26   1    -0.07   0.01  -0.08    -0.00  -0.00   0.00     0.00   0.00  -0.00
                     61                     62                     63
                        a                      a                      a 
 Frequencies --  2965.2422              2972.7445              2973.0144
 Red. masses --     1.9576                 1.5503                 1.5501
 Frc consts  --     0.0000                 0.0000                 0.0000
 IR Inten    --    52.6701                55.9865                22.4130
 Raman Activ --     0.0000                 0.0000                 0.0000
 Depolar     --     0.0000                 0.0000                 0.0000
 Atom AN      X      Y      Z        X      Y      Z        X      Y      Z
   1   7    -0.00   0.00  -0.00    -0.00   0.00   0.00    -0.00   0.00   0.00
   2   6    -0.00  -0.00  -0.00    -0.04  -0.02  -0.02    -0.04  -0.02  -0.02
   3   6     0.00   0.00  -0.00    -0.02  -0.13  -0.04    -0.02  -0.15  -0.04
   4   6    -0.00   0.00   0.00    -0.00  -0.00  -0.00    -0.00  -0.00  -0.00
   5   6    -0.00   0.00   0.00     0.00   0.00  -0.00     0.00   0.00   0.00
   6   6     0.00  -0.00  -0.00     0.00   0.00  -0.00    -0.00  -0.00   0.00
   7   6     0.00  -0.00  -0.00     0.00   0.00   0.00    -0.00  -0.00  -0.00
   8   8    -0.00   0.00   0.00    -0.00  -0.01   0.01     0.00   0.01  -0.01
   9   6    -0.14   0.20   0.16     0.09  -0.04   0.13    -0.09   0.03  -0.12
  10   6     0.00  -0.00   0.00    -0.00  -0.00  -0.00     0.00   0.00  -0.00
  11   6    -0.00  -0.00   0.00     0.00   0.00  -0.00     0.00   0.00  -0.00
  12  17    -0.00   0.00  -0.00     0.00  -0.00   0.00     0.00  -0.00   0.00
  13   1    -0.00  -0.00   0.00     0.00  -0.00  -0.00     0.00  -0.00  -0.00
  14   1     0.00   0.00  -0.00     0.01  -0.01  -0.00     0.01  -0.01  -0.00
  15   1    -0.00   0.00  -0.00    -0.01  -0.00  -0.00    -0.01  -0.00  -0.00
  16   1     0.00   0.00  -0.00    -0.00  -0.01  -0.00    -0.00  -0.01   0.00
  17   1     0.00   0.00   0.00     0.16   0.07   0.06     0.16   0.07   0.06
  18   1     0.00   0.00   0.00    -0.00   0.04   0.37    -0.00   0.05   0.41
  19   1    -0.00  -0.00   0.00     0.05   0.44  -0.24     0.06   0.49  -0.27
  20   1    -0.00  -0.00  -0.00    -0.00   0.00  -0.00    -0.00   0.00  -0.00
  21   1     0.00  -0.00  -0.00    -0.01  -0.01   0.00     0.01   0.01  -0.00
  22   1    -0.02   0.03   0.03    -0.10  -0.04  -0.04     0.10   0.04   0.04
  23   1     0.44  -0.51   0.03    -0.32   0.40   0.02     0.28  -0.36  -0.01
  24   1     0.09  -0.21  -0.63     0.10  -0.18  -0.46    -0.09   0.16   0.41
  25   1    -0.00   0.00   0.00     0.00  -0.00   0.00    -0.00  -0.00  -0.00
  26   1     0.00   0.00  -0.00    -0.00  -0.00   0.00    -0.00  -0.00   0.00
                     64                     65                     66
                        a                      a                      a 
 Frequencies --  2983.7075              3006.7123              3109.1722
 Red. masses --     1.5648                 1.5802                 1.8368
 Frc consts  --     0.0000                 0.0000                 0.0000
 IR Inten    --    22.6986                34.3422               174.8272
 Raman Activ --     0.0000                 0.0000                 0.0000
 Depolar     --     0.0000                 0.0000                 0.0000
 Atom AN      X      Y      Z        X      Y      Z        X      Y      Z
   1   7    -0.00   0.00   0.00    -0.00   0.00  -0.00     0.10  -0.08  -0.02
   2   6     0.09  -0.15   0.14    -0.00  -0.00   0.00     0.00  -0.00  -0.00
   3   6    -0.00  -0.04   0.02    -0.00  -0.00   0.00    -0.00  -0.00  -0.00
   4   6    -0.00  -0.00   0.00    -0.00   0.00  -0.00     0.00   0.00  -0.00
   5   6    -0.00   0.00  -0.00    -0.00  -0.00   0.00    -0.04   0.03  -0.07
   6   6     0.00  -0.00   0.00     0.00   0.00  -0.00    -0.01  -0.01   0.01
   7   6    -0.00   0.00  -0.00    -0.00  -0.00  -0.00     0.00  -0.00   0.00
   8   8    -0.00  -0.00   0.00     0.01   0.01  -0.00    -0.00   0.00  -0.00
   9   6    -0.00  -0.00   0.00     0.20   0.08   0.08     0.00   0.00   0.00
  10   6    -0.00  -0.00  -0.00    -0.00  -0.00  -0.00     0.02  -0.02   0.04
  11   6     0.00   0.00  -0.00     0.00   0.00  -0.00     0.09   0.16  -0.12
  12  17     0.00  -0.00  -0.00     0.00  -0.00  -0.00    -0.00   0.00   0.00
  13   1    -0.00  -0.02   0.01    -0.00  -0.00   0.00     0.02   0.03  -0.02
  14   1     0.00  -0.00   0.00     0.00  -0.00  -0.00    -0.35   0.28   0.10
  15   1     0.01   0.01   0.01     0.00   0.00   0.00    -0.03  -0.02  -0.02
  16   1     0.11   0.73  -0.36     0.00   0.00  -0.00     0.00   0.00  -0.00
  17   1    -0.41  -0.22  -0.14     0.00   0.00   0.00    -0.00   0.00  -0.00
  18   1     0.00  -0.01  -0.01     0.00  -0.00  -0.00     0.00   0.00   0.01
  19   1     0.02   0.16  -0.08     0.00   0.00  -0.00    -0.00   0.00  -0.00
  20   1     0.00   0.00   0.00    -0.00   0.00  -0.00     0.15  -0.10   0.25
  21   1    -0.00   0.00  -0.00    -0.00  -0.00   0.00     0.02   0.04  -0.03
  22   1     0.00   0.00   0.00    -0.82  -0.27  -0.40    -0.00   0.00  -0.00
  23   1    -0.00   0.00   0.00     0.11  -0.09   0.02    -0.00   0.00  -0.00
  24   1     0.00  -0.00  -0.00     0.01   0.05   0.13     0.00  -0.00  -0.00
  25   1    -0.00   0.00  -0.00     0.00  -0.00   0.00    -0.10   0.07  -0.17
  26   1    -0.00  -0.00   0.00    -0.00  -0.00   0.00    -0.30  -0.55   0.42
                     67                     68                     69
                        a                      a                      a 
 Frequencies --  3110.5907              3112.9391              3131.1304
 Red. masses --     1.8798                 1.8128                 1.8561
 Frc consts  --     0.0000                 0.0000                 0.0000
 IR Inten    --   388.9768               109.9002                76.5131
 Raman Activ --     0.0000                 0.0000                 0.0000
 Depolar     --     0.0000                 0.0000                 0.0000
 Atom AN      X      Y      Z        X      Y      Z        X      Y      Z
   1   7    -0.17   0.13   0.03    -0.05   0.04   0.01    -0.01   0.00   0.00
   2   6    -0.00   0.00   0.00    -0.00   0.00   0.00    -0.00   0.00  -0.00
   3   6     0.00   0.00  -0.00     0.00   0.00   0.00    -0.00   0.00  -0.00
   4   6    -0.00   0.00  -0.00     0.01   0.00   0.00     0.00  -0.00   0.00
   5   6    -0.06   0.04  -0.10     0.10  -0.07   0.18    -0.00   0.00  -0.00
   6   6    -0.01  -0.01   0.01     0.02   0.03  -0.02     0.02   0.03  -0.02
   7   6     0.00  -0.00   0.00     0.00   0.00  -0.00    -0.01  -0.00  -0.00
   8   8    -0.00  -0.00  -0.00     0.00   0.00   0.00     0.00   0.00  -0.00
   9   6    -0.00  -0.00   0.00    -0.00  -0.00  -0.00    -0.00  -0.00  -0.00
  10   6     0.01  -0.01   0.02     0.02  -0.01   0.03    -0.13   0.08  -0.21
  11   6     0.03   0.06  -0.04     0.05   0.09  -0.07     0.03   0.06  -0.05
  12  17     0.00  -0.00  -0.00     0.00  -0.00  -0.00     0.00  -0.00  -0.00
  13   1    -0.03  -0.04   0.03    -0.01  -0.01   0.01    -0.00   0.00  -0.00
  14   1     0.61  -0.49  -0.18     0.20  -0.16  -0.06     0.02  -0.02  -0.01
  15   1     0.05   0.04   0.03     0.01   0.01   0.01     0.00   0.00  -0.00
  16   1     0.00  -0.01   0.00    -0.00   0.00  -0.00     0.00  -0.00   0.00
  17   1     0.00   0.00   0.00     0.00   0.00   0.00    -0.00  -0.00   0.00
  18   1     0.00  -0.00  -0.01    -0.00  -0.00  -0.01    -0.00  -0.00  -0.00
  19   1    -0.00  -0.01   0.01    -0.00  -0.01   0.00    -0.00  -0.00   0.00
  20   1     0.21  -0.14   0.35    -0.37   0.26  -0.63     0.00  -0.00   0.00
  21   1     0.03   0.06  -0.05    -0.07  -0.13   0.10    -0.05  -0.10   0.07
  22   1     0.00   0.00   0.00     0.00   0.00   0.00     0.00   0.00   0.00
  23   1    -0.00   0.00  -0.00     0.00  -0.00   0.00     0.00  -0.00   0.00
  24   1     0.00  -0.00  -0.00     0.00   0.00   0.00    -0.00   0.00   0.00
  25   1    -0.05   0.03  -0.08    -0.08   0.05  -0.14     0.44  -0.29   0.74
  26   1    -0.11  -0.21   0.16    -0.18  -0.33   0.25    -0.11  -0.20   0.15
                     70                     71                     72
                        a                      a                      a 
 Frequencies --  3140.9245              3227.4686              3243.0167
 Red. masses --     1.8435                 2.0498                 1.4499
 Frc consts  --     0.0000                 0.0000                 0.0000
 IR Inten    --    49.6390               151.6547                63.5059
 Raman Activ --     0.0000                 0.0000                 0.0000
 Depolar     --     0.0000                 0.0000                 0.0000
 Atom AN      X      Y      Z        X      Y      Z        X      Y      Z
   1   7    -0.00   0.00   0.00     0.17   0.22  -0.02    -0.10   0.06  -0.14
   2   6     0.00  -0.00   0.00     0.00   0.01  -0.00    -0.00   0.00  -0.01
   3   6    -0.00   0.00   0.00     0.00   0.00  -0.00    -0.00   0.00  -0.00
   4   6     0.00   0.00  -0.00    -0.00   0.00  -0.00     0.00   0.00   0.00
   5   6     0.03  -0.02   0.05    -0.00   0.00  -0.00    -0.00  -0.00   0.00
   6   6    -0.10  -0.20   0.15     0.00   0.00  -0.00     0.00   0.00  -0.00
   7   6    -0.01  -0.01  -0.00     0.00   0.00   0.00    -0.00  -0.00  -0.00
   8   8     0.00  -0.00   0.00    -0.00  -0.00  -0.00    -0.00  -0.00   0.00
   9   6     0.00  -0.00   0.00     0.00   0.00  -0.00    -0.00   0.00  -0.00
  10   6    -0.02   0.01  -0.03     0.00   0.00   0.00    -0.00  -0.00  -0.00
  11   6     0.01   0.01  -0.01     0.00   0.00   0.00     0.00   0.00  -0.00
  12  17     0.00  -0.00  -0.00    -0.00  -0.00   0.00     0.00  -0.00   0.00
  13   1    -0.00  -0.00   0.00    -0.09  -0.60   0.32    -0.11  -0.60   0.31
  14   1     0.01  -0.01  -0.00     0.02   0.02  -0.00    -0.11   0.08   0.02
  15   1    -0.00  -0.00  -0.00    -0.57  -0.26  -0.24     0.58   0.29   0.23
  16   1    -0.00   0.00   0.00    -0.00  -0.01   0.01    -0.00  -0.02   0.01
  17   1    -0.00   0.00  -0.00    -0.01  -0.01  -0.00     0.02   0.01   0.01
  18   1    -0.00  -0.00  -0.00    -0.00   0.00   0.00    -0.00   0.00   0.01
  19   1    -0.00  -0.00   0.00    -0.00  -0.00   0.00    -0.00  -0.00   0.00
  20   1    -0.09   0.07  -0.16     0.00  -0.00   0.00    -0.00   0.00   0.00
  21   1     0.36   0.69  -0.51    -0.00  -0.00   0.00    -0.00  -0.00   0.00
  22   1    -0.00  -0.00  -0.00    -0.00  -0.00  -0.00     0.00   0.00   0.00
  23   1    -0.01   0.01  -0.00    -0.00   0.00  -0.00    -0.00   0.00   0.00
  24   1    -0.00  -0.00  -0.01     0.00   0.00   0.00    -0.00   0.00   0.00
  25   1     0.06  -0.04   0.10    -0.00   0.00  -0.00    -0.00  -0.00   0.00
  26   1    -0.02  -0.04   0.03    -0.00  -0.00   0.00    -0.00  -0.01   0.00
