22
 energy: -30.745038961543 gnorm: 0.000509846483 xtb: 6.5.1 (fef0646)
N            1.04794879980799       -0.14697367567632        0.22639568160366
C            2.52408200568017       -0.13670066669933        0.19604835219159
C            3.01233594212260       -0.05855943864742       -1.25048292822693
C            4.49646237010878        0.17980121821593       -1.28665453006589
C            5.38897297274026       -0.88416959941826       -1.25925109050223
C            6.75445133841682       -0.65822271169497       -1.25960173183379
C            7.24390739029650        0.63692380645121       -1.28533737626181
C            6.36149696415748        1.70423446071704       -1.31079312942526
C            4.99677827703699        1.47544645251763       -1.30856465576268
Cl           0.08055846157783        2.44150763900492       -1.08635594707894
H            0.69083398713568       -0.17622316844025        1.18373381739196
H            0.67727504667260       -0.93694832874972       -0.30728721500839
H            0.68652867507588        0.73358961198039       -0.22281509014069
H            2.91186608364954       -1.03472999238213        0.67844701424353
H            2.87704422507590        0.74104460366862        0.73721545289708
H            2.49425884404210        0.76818312747573       -1.74009159476969
H            2.77623200685566       -0.98314510293486       -1.77814055701305
H            5.01548380675256       -1.89724636973821       -1.24557172516647
H            7.43987774049241       -1.49254552147880       -1.24144091491592
H            8.30897839181849        0.81569090736288       -1.28841166691503
H            6.73782167809459        2.71666054713426       -1.33445522981094
H            4.30910499238653        2.30930220133064       -1.33195493542994
