17
 energy: -17.279329182548 gnorm: 0.000363849237 xtb: 6.5.1 (fef0646)
N            0.92968281612971        0.05428934589040       -0.04608266150865
C            2.41312032554540        0.06007279664378       -0.06092875318109
C            2.93649590899382        0.45167698454742       -1.43805732681788
C            4.46498108697796        0.46006733045779       -1.46194944407772
C            4.99660890751193        0.85080959020940       -2.83651476703251
H            0.57446371183310       -0.20424310749414        0.88142422851861
H            0.57325346062058       -0.61758869104669       -0.73593386216593
H            0.57155215569999        0.98544602490720       -0.28944484415710
H            2.77779787681623       -0.93294932051063        0.20129001178553
H            2.77619552284384        0.76814227151452        0.68380118547302
H            2.58251407010643        1.44744007348483       -1.70843203746922
H            2.58363957470392       -0.25334344280912       -2.19196858087224
H            4.84456245996214       -0.52955378461638       -1.20124129956999
H            4.84250661750069        1.16607864430204       -0.72000338239632
H            4.65884813871136        0.14906255534140       -3.59609065016033
H            6.08393931954082        0.85335275526411       -2.83999857326102
H            4.65644804650208        1.84599997391408       -3.11465924310716
