28
 energy: -40.300807339999 gnorm: 0.000448404127 xtb: 6.5.1 (fef0646)
N            2.46571526163313        0.83372705038246       -0.91583539131018
C            2.31945632359971       -0.01819923592011        0.26641397397222
C            0.84574445743404       -0.39596939417242        0.41742738140284
C            2.82344345688664        0.60768039240770        1.55061368170974
C            3.44626868597566       -0.21538580494291        2.51008800001376
C            3.88585957101334        0.29585232043229        3.69667749052577
C            2.65906263881715        1.94065817447609        1.82321238956734
C            3.10632204380492        2.50363518289741        3.03599531110407
C            3.73233220726864        1.66611909987668        3.99457659623098
C            4.17739491881705        2.22907799529186        5.20815001636894
C            4.00941396990060        3.56165983875656        5.46118746834943
C            3.38922717222302        4.39060271925091        4.51325405906629
C            2.94759304593582        3.87452882355467        3.32743220172676
Cl           1.61095651940829       -0.60302926956357       -3.31823473312202
H            3.42694413165660        1.13634573384435       -1.03294338192135
H            1.86777149034727        1.65053507448387       -0.84831915869057
H            2.01767476513423        0.06615410899441       -2.18408716937661
H            2.89889551355627       -0.92672647811122        0.06651088501213
H            0.24998473866436        0.49034932864254        0.62562815441585
H            0.72094637547951       -1.09524797011205        1.23932131631014
H            0.48868049313256       -0.85506855390593       -0.49984302420933
H            3.57077679301045       -1.26600996862022        2.28995836254404
H            4.36123449628696       -0.34404244274038        4.42612835126016
H            2.17675838557048        2.59873593598116        1.11225674695061
H            4.65366393436533        1.58601224428872        5.93442163970148
H            4.35252150807033        3.98779168992441        6.39250521251717
H            3.26453962680241        5.44135805910525        4.73029940290045
H            2.46933747524093        4.51088534545533        2.59603421701314
