22
 energy: -27.942681198084 gnorm: 0.000544657334 xtb: 6.5.1 (fef0646)
N            2.17709405384493        0.46629544523892       -1.31383809260464
C            2.43046605979079       -0.07451337817078        0.05128080342698
C            2.98477941157644       -1.47098501456363       -0.03738773993161
C            4.35752330099617       -1.68711409693410       -0.07473009440667
C            4.86649528240752       -2.96570906015765       -0.18520468538151
C            4.01498498174787       -4.06883056688235       -0.26609546334562
C            4.50070338609326       -5.43880229146932       -0.38262514628037
C            5.75549586412781       -5.84636462524633       -0.23396151452797
C            2.63728762224913       -3.84176462500461       -0.23435733884308
C            2.12908642925225       -2.56341296847909       -0.11887768969477
H            1.78264291247854        1.41254173893167       -1.26070633942258
H            1.51884587764321       -0.14114983468380       -1.81602115611517
H            3.05330382460770        0.50017772243222       -1.84833646980388
H            1.49276695384059       -0.08364368998165        0.60653571576901
H            3.13997543333311        0.57498288560621        0.56314746647713
H            5.04056162206623       -0.85401034827706       -0.00549914363879
H            5.93456319846697       -3.11078021217336       -0.21599979581348
H            3.73419325071496       -6.17411928807201       -0.59685014568008
H            6.56455833696677       -5.17701047746427        0.00076431003838
H            6.02193173396443       -6.88437953251300       -0.33353007211445
H            1.96385621445827       -4.68441341004768       -0.29308542100640
H            1.05945424937315       -2.42274437208820       -0.08016198710060
