      -----------------------------------------------------------      
     |                   =====================                   |     
     |                           x T B                           |     
     |                   =====================                   |     
     |                         S. Grimme                         |     
     |          Mulliken Center for Theoretical Chemistry        |     
     |                    University of Bonn                     |     
      -----------------------------------------------------------      

   * xtb version 6.5.1 (fef0646) compiled by 'conda@b96dff2e9fd6' on 2023-01-04

   xtb is free software: you can redistribute it and/or modify it under
   the terms of the GNU Lesser General Public License as published by
   the Free Software Foundation, either version 3 of the License, or
   (at your option) any later version.
   
   xtb is distributed in the hope that it will be useful,
   but WITHOUT ANY WARRANTY; without even the implied warranty of
   MERCHANTABILITY or FITNESS FOR A PARTICULAR PURPOSE.  See the
   GNU Lesser General Public License for more details.
   
   Cite this work as:
   * C. Bannwarth, E. Caldeweyher, S. Ehlert, A. Hansen, P. Pracht,
     J. Seibert, S. Spicher, S. Grimme, WIREs Comput. Mol. Sci., 2020, 11,
     e01493. DOI: 10.1002/wcms.1493
   
   for GFN2-xTB:
   * C. Bannwarth, S. Ehlert and S. Grimme., J. Chem. Theory Comput., 2019,
     15, 1652-1671. DOI: 10.1021/acs.jctc.8b01176
   for GFN1-xTB:
   * S. Grimme, C. Bannwarth, P. Shushkov, J. Chem. Theory Comput., 2017,
     13, 1989-2009. DOI: 10.1021/acs.jctc.7b00118
   for GFN0-xTB:
   * P. Pracht, E. Caldeweyher, S. Ehlert, S. Grimme, ChemRxiv, 2019, preprint.
     DOI: 10.26434/chemrxiv.8326202.v1
   for GFN-FF:
   * S. Spicher and S. Grimme, Angew. Chem. Int. Ed., 2020, 59, 15665-15673.
     DOI: 10.1002/anie.202004239
   
   for ALPB and GBSA implicit solvation:
   * S. Ehlert, M. Stahn, S. Spicher, S. Grimme, J. Chem. Theory Comput.,
     2021, 17, 4250-4261. DOI: 10.1021/acs.jctc.1c00471
   
   for DFT-D4:
   * E. Caldeweyher, C. Bannwarth and S. Grimme, J. Chem. Phys., 2017,
     147, 034112. DOI: 10.1063/1.4993215
   * E. Caldeweyher, S. Ehlert, A. Hansen, H. Neugebauer, S. Spicher,
     C. Bannwarth and S. Grimme, J. Chem. Phys., 2019, 150, 154122.
     DOI: 10.1063/1.5090222
   * E. Caldeweyher, J.-M. Mewes, S. Ehlert and S. Grimme, Phys. Chem. Chem. Phys.
     2020, 22, 8499-8512. DOI: 10.1039/D0CP00502A
   
   for sTDA-xTB:
   * S. Grimme and C. Bannwarth, J. Chem. Phys., 2016, 145, 054103.
     DOI: 10.1063/1.4959605
   
   in the mass-spec context:
   * V. Asgeirsson, C. Bauer and S. Grimme, Chem. Sci., 2017, 8, 4879.
     DOI: 10.1039/c7sc00601b
   * J. Koopman and S. Grimme, ACS Omega 2019, 4, 12, 15120-15133.
     DOI: 10.1021/acsomega.9b02011
   
   for metadynamics refer to:
   * S. Grimme, J. Chem. Theory Comput., 2019, 155, 2847-2862
     DOI: 10.1021/acs.jctc.9b00143
   
   for SPH calculations refer to:
   * S. Spicher and S. Grimme, J. Chem. Theory Comput., 2021, 17, 1701-1714
     DOI: 10.1021/acs.jctc.0c01306
   
   with help from (in alphabetical order)
   P. Atkinson, C. Bannwarth, F. Bohle, G. Brandenburg, E. Caldeweyher
   M. Checinski, S. Dohm, S. Ehlert, S. Ehrlich, I. Gerasimov, C. Hölzer
   A. Katbashev, J. Koopman, C. Lavigne, S. Lehtola, F. März, M. Müller,
   F. Musil, H. Neugebauer, J. Pisarek, C. Plett, P. Pracht, F. Pultar,
   J. Seibert, P. Shushkov, S. Spicher, M. Stahn, M. Steiner, T. Strunk,
   J. Stückrath, T. Rose, and J. Unsleber
   
 * started run on 2023/01/24 at 16:05:58.176     

           -------------------------------------------------
          |                Calculation Setup                |
           -------------------------------------------------

          program call               : xtb init.xyz --opt -c 0 -u 0 -P 16 --alpb water
          hostname                   : gpg-woodward
          coordinate file            : init.xyz
          omp threads                :                    16

   ID    Z sym.   atoms
    1    7 N      1
    2    6 C      2-6
    3   17 Cl     7
    4    1 H      8-21

molecular fragmentation (1/2 indicates fragments):
111111211111111111111
# atoms in fragment 1/2:    20     1
 fragment masses (1/2) :       88.17       35.45
CMA distance (Bohr)    :  10.030
constraining FC (au)   :  0.0500

           -------------------------------------------------
          |                 G F N 2 - x T B                 |
           -------------------------------------------------

        Reference                      10.1021/acs.jctc.8b01176
      * Hamiltonian:
        H0-scaling (s, p, d)           1.850000    2.230000    2.230000
        zeta-weighting                 0.500000
      * Dispersion:
        s8                             2.700000
        a1                             0.520000
        a2                             5.000000
        s9                             5.000000
      * Repulsion:
        kExp                           1.500000    1.000000
        rExp                           1.000000
      * Coulomb:
        alpha                          2.000000
        third order                    shell-resolved
        anisotropic                    true
        a3                             3.000000
        a5                             4.000000
        cn-shift                       1.200000
        cn-exp                         4.000000
        max-rad                        5.000000

      * Solvation model:               ALPB
        Solvent                        water
        Parameter file                 internal GFN2-xTB/ALPB
        Dielectric constant                8.0200E+01
        Reference state                gsolv [1 M gas/solution]
        Free energy shift                  1.0808E-03 Eh       6.7819E-01 kcal/mol
        Temperature                        2.9815E+02 K
        Density                            1.0000E+00 kg/L
        Solvent mass                       1.8000E+01 g/mol
        Interaction kernel             P16
        Born radius scaling (c1)           1.4744E+00
        Born radii integrator          GBOBC
        Born offset                        0.0000E+00 a0       0.0000E+00 AA
        H-bond correction              true
        Ion screening                  false
        Surface tension                    1.0000E-05 Eh       1.5569E+01 dyn/cm
        Grid points                               230 per atom

          ...................................................
          :                      SETUP                      :
          :.................................................:
          :  # basis functions                  48          :
          :  # atomic orbitals                  47          :
          :  # shells                           29          :
          :  # electrons                        46          :
          :  max. iterations                   250          :
          :  Hamiltonian                  GFN2-xTB          :
          :  restarted?                      false          :
          :  GBSA solvation                   true          :
          :  PC potential                    false          :
          :  electronic temp.          300.0000000     K    :
          :  accuracy                    1.0000000          :
          :  -> integral cutoff          0.2500000E+02      :
          :  -> integral neglect         0.1000000E-07      :
          :  -> SCF convergence          0.1000000E-05 Eh   :
          :  -> wf. convergence          0.1000000E-03 e    :
          :  Broyden damping             0.4000000          :
          ...................................................

 iter      E             dE          RMSdq      gap      omega  full diag
   1    -25.5416345 -0.255416E+02  0.354E+00   10.94       0.0  T
   2    -25.6332884 -0.916538E-01  0.196E+00   10.33       1.0  T
   3    -25.6378077 -0.451938E-02  0.112E+00    9.97       1.0  T
   4    -25.6394420 -0.163425E-02  0.331E-01   10.11       1.0  T
   5    -25.6399976 -0.555604E-03  0.192E-01   10.20       1.0  T
   6    -25.6402724 -0.274822E-03  0.849E-02   10.27       1.0  T
   7    -25.6403077 -0.352398E-04  0.186E-02   10.27       1.2  T
   8    -25.6403088 -0.117062E-05  0.475E-03   10.27       4.6  T
   9    -25.6403089 -0.387810E-07  0.244E-03   10.27       9.0  T
  10    -25.6403089 -0.158682E-07  0.100E-03   10.27      21.8  T
  11    -25.6403089 -0.300977E-08  0.544E-04   10.27      40.1  T
  12    -25.6403089 -0.135071E-08  0.262E-04   10.27      83.3  T

   *** convergence criteria satisfied after 12 iterations ***

         #    Occupation            Energy/Eh            Energy/eV
      -------------------------------------------------------------
         1        2.0000           -1.0088435             -27.4520
       ...           ...                  ...                  ...
        17        2.0000           -0.4348113             -11.8318
        18        2.0000           -0.4281208             -11.6498
        19        2.0000           -0.4264543             -11.6044
        20        2.0000           -0.4153528             -11.3023
        21        2.0000           -0.4028767             -10.9628
        22        2.0000           -0.4024077             -10.9501
        23        2.0000           -0.4021274             -10.9424 (HOMO)
        24                         -0.0248637              -0.6766 (LUMO)
        25                          0.0716638               1.9501
        26                          0.0851401               2.3168
        27                          0.1005780               2.7369
        28                          0.1083188               2.9475
       ...                                ...                  ...
        47                          0.3161654               8.6033
      -------------------------------------------------------------
                  HL-Gap            0.3772637 Eh           10.2659 eV
             Fermi-level           -0.2134956 Eh           -5.8095 eV

 SCC (total)                   0 d,  0 h,  0 min,  0.020 sec
 SCC setup                      ...        0 min,  0.000 sec (  1.890%)
 Dispersion                     ...        0 min,  0.001 sec (  2.609%)
 classical contributions        ...        0 min,  0.000 sec (  0.323%)
 integral evaluation            ...        0 min,  0.001 sec (  4.517%)
 iterations                     ...        0 min,  0.016 sec ( 79.705%)
 molecular gradient             ...        0 min,  0.002 sec (  8.943%)
 printout                       ...        0 min,  0.000 sec (  0.715%)

         :::::::::::::::::::::::::::::::::::::::::::::::::::::
         ::                     SUMMARY                     ::
         :::::::::::::::::::::::::::::::::::::::::::::::::::::
         :: total energy             -25.350035699992 Eh    ::
         :: total w/o Gsasa/hb       -25.343254072670 Eh    ::
         :: gradient norm              0.036303161570 Eh/a0 ::
         :: HOMO-LUMO gap             10.265867898058 eV    ::
         ::.................................................::
         :: SCC energy               -25.640308880220 Eh    ::
         :: -> isotropic ES            0.109588662628 Eh    ::
         :: -> anisotropic ES         -0.025534729968 Eh    ::
         :: -> anisotropic XC          0.004786544900 Eh    ::
         :: -> dispersion             -0.011073592678 Eh    ::
         :: -> Gsolv                  -0.063354916092 Eh    ::
         ::    -> Gelec               -0.056573288770 Eh    ::
         ::    -> Gsasa               -0.000932588496 Eh    ::
         ::    -> Ghb                 -0.006929798524 Eh    ::
         ::    -> Gshift               0.001080759698 Eh    ::
         :: repulsion energy           0.290320629902 Eh    ::
         :: add. restraining           0.000000000000 Eh    ::
         :: total charge              -0.000000000000 e     ::
         :::::::::::::::::::::::::::::::::::::::::::::::::::::

      ----------------------------------------------------------- 
     |                   =====================                   |
     |                        A N C O P T                        |
     |                   =====================                   |
     |               Approximate Normal Coordinate               |
     |                Rational Function Optimizer                |
      ----------------------------------------------------------- 

          ...................................................
          :                      SETUP                      :
          :.................................................:
          :   optimization level            normal          :
          :   max. optcycles                   200          :
          :   ANC micro-cycles                  20          :
          :   degrees of freedom                57          :
          :.................................................:
          :   RF solver                   davidson          :
          :   write xtbopt.log                true          :
          :   linear?                        false          :
          :   energy convergence         0.5000000E-05 Eh   :
          :   grad. convergence          0.1000000E-02 Eh/α :
          :   maximium RF displ.         1.0000000          :
          :   Hlow (freq-cutoff)         0.1000000E-01      :
          :   Hmax (freq-cutoff)         5.0000000          :
          :   S6 in model hess.         20.0000000          :
          ...................................................

generating ANC from model Hessian ...
Using Lindh-Hessian (1995)
 Shifting diagonal of input Hessian by    9.3959536792332394E-003
 Lowest  eigenvalues of input Hessian
    0.000000    0.000000    0.000000    0.000000    0.000000    0.000000
    0.010000    0.010063    0.011493    0.012340    0.012808    0.016099
    0.019737    0.020243    0.023177    0.024362    0.031720    0.039796
 Highest eigenvalues
    1.191839    1.214061    1.271035    1.307912    1.458431    1.562012


........................................................................
.............................. CYCLE    1 ..............................
........................................................................
   1    -25.6403089 -0.256403E+02  0.141E-04   10.27       0.0  T
   2    -25.6403089 -0.345040E-10  0.106E-04   10.27     205.3  T
   3    -25.6403089 -0.494786E-10  0.461E-05   10.27     473.2  T
     SCC iter.                  ...        0 min,  0.004 sec
     gradient                   ...        0 min,  0.002 sec
 * total energy  :   -25.3500357 Eh     change       -0.4575860E-09 Eh
   gradient norm :     0.0363022 Eh/α   predicted     0.0000000E+00 (-100.00%)
   displ. norm   :     0.4262217 α      lambda       -0.7202347E-02
   maximum displ.:     0.2189569 α      in ANC's #2, #9, #12, ...

........................................................................
.............................. CYCLE    2 ..............................
........................................................................
   1    -25.6501148 -0.256501E+02  0.205E-01   10.13       0.0  T
   2    -25.6501993 -0.844295E-04  0.110E-01   10.10       1.0  T
   3    -25.6502058 -0.651877E-05  0.357E-02   10.09       1.0  T
   4    -25.6502072 -0.141311E-05  0.117E-02   10.10       1.9  T
   5    -25.6502076 -0.372925E-06  0.818E-03   10.10       2.7  T
   6    -25.6502079 -0.347244E-06  0.403E-03   10.10       5.4  T
   7    -25.6502080 -0.969327E-07  0.188E-03   10.09      11.6  T
   8    -25.6502080 -0.188404E-07  0.317E-04   10.09      68.9  T
   9    -25.6502080 -0.292722E-09  0.157E-04   10.09     138.8  T
     SCC iter.                  ...        0 min,  0.011 sec
     gradient                   ...        0 min,  0.002 sec
 * total energy  :   -25.3542912 Eh     change       -0.4255517E-02 Eh
   gradient norm :     0.0257342 Eh/α   predicted    -0.4255531E-02 (   0.00%)
   displ. norm   :     0.2329374 α      lambda       -0.1862313E-02
   maximum displ.:     0.1751968 α      in ANC's #2, #5, #34, ...

........................................................................
.............................. CYCLE    3 ..............................
........................................................................
   1    -25.6531020 -0.256531E+02  0.900E-02   10.04       0.0  T
   2    -25.6531123 -0.102678E-04  0.508E-02   10.04       1.0  T
   3    -25.6531145 -0.228412E-05  0.145E-02   10.04       1.5  T
   4    -25.6531150 -0.481557E-06  0.857E-03   10.04       2.5  T
   5    -25.6531153 -0.269151E-06  0.514E-03   10.04       4.2  T
   6    -25.6531154 -0.157247E-06  0.247E-03   10.04       8.8  T
   7    -25.6531155 -0.319506E-07  0.856E-04   10.04      25.5  T
   8    -25.6531155 -0.338404E-08  0.189E-04   10.04     115.3  T
     SCC iter.                  ...        0 min,  0.009 sec
     gradient                   ...        0 min,  0.002 sec
 * total energy  :   -25.3555186 Eh     change       -0.1227406E-02 Eh
   gradient norm :     0.0114602 Eh/α   predicted    -0.9816938E-03 ( -20.02%)
   displ. norm   :     0.2290335 α      lambda       -0.6803570E-03
   maximum displ.:     0.1856027 α      in ANC's #2, #5, #3, ...

........................................................................
.............................. CYCLE    4 ..............................
........................................................................
   1    -25.6535574 -0.256536E+02  0.546E-02   10.04       0.0  T
   2    -25.6535598 -0.238978E-05  0.339E-02   10.05       1.0  T
   3    -25.6535617 -0.191378E-05  0.116E-02   10.05       1.9  T
   4    -25.6535621 -0.421407E-06  0.828E-03   10.05       2.6  T
   5    -25.6535626 -0.426594E-06  0.279E-03   10.04       7.8  T
   6    -25.6535626 -0.356233E-07  0.113E-03   10.04      19.3  T
   7    -25.6535626 -0.357211E-08  0.189E-04   10.04     115.2  T
   8    -25.6535626 -0.931806E-10  0.101E-04   10.04     216.6  T
     SCC iter.                  ...        0 min,  0.009 sec
     gradient                   ...        0 min,  0.002 sec
 * total energy  :   -25.3560261 Eh     change       -0.5075032E-03 Eh
   gradient norm :     0.0077650 Eh/α   predicted    -0.3580235E-03 ( -29.45%)
   displ. norm   :     0.2849153 α      lambda       -0.5669645E-03
   maximum displ.:     0.2248398 α      in ANC's #2, #5, #12, ...

........................................................................
.............................. CYCLE    5 ..............................
........................................................................
   1    -25.6539096 -0.256539E+02  0.564E-02   10.06       0.0  T
   2    -25.6539125 -0.295250E-05  0.372E-02   10.06       1.0  T
   3    -25.6539157 -0.317002E-05  0.146E-02   10.06       1.5  T
   4    -25.6539167 -0.992551E-06  0.825E-03   10.06       2.6  T
   5    -25.6539171 -0.416664E-06  0.225E-03   10.06       9.7  T
   6    -25.6539171 -0.216847E-07  0.926E-04   10.06      23.6  T
   7    -25.6539171 -0.135011E-08  0.152E-04   10.06     143.6  T
     SCC iter.                  ...        0 min,  0.008 sec
     gradient                   ...        0 min,  0.002 sec
 * total energy  :   -25.3564839 Eh     change       -0.4577901E-03 Eh
   gradient norm :     0.0083246 Eh/α   predicted    -0.3064972E-03 ( -33.05%)
   displ. norm   :     0.3840171 α      lambda       -0.6480959E-03
   maximum displ.:     0.2920128 α      in ANC's #2, #5, #12, ...

........................................................................
.............................. CYCLE    6 ..............................
........................................................................
   1    -25.6538075 -0.256538E+02  0.709E-02   10.06       0.0  T
   2    -25.6538136 -0.603843E-05  0.487E-02   10.07       1.0  T
   3    -25.6538201 -0.651709E-05  0.207E-02   10.07       1.1  T
   4    -25.6538221 -0.200315E-05  0.124E-02   10.07       1.8  T
   5    -25.6538230 -0.918587E-06  0.201E-03   10.07      10.9  T
   6    -25.6538230 -0.128618E-07  0.782E-04   10.07      27.9  T
   7    -25.6538230 -0.561425E-09  0.197E-04   10.07     110.5  T
     SCC iter.                  ...        0 min,  0.008 sec
     gradient                   ...        0 min,  0.002 sec
 * total energy  :   -25.3569649 Eh     change       -0.4809491E-03 Eh
   gradient norm :     0.0082075 Eh/α   predicted    -0.3718352E-03 ( -22.69%)
   displ. norm   :     0.3204838 α      lambda       -0.4364547E-03
   maximum displ.:     0.2349939 α      in ANC's #2, #12, #5, ...

........................................................................
.............................. CYCLE    7 ..............................
........................................................................
   1    -25.6542702 -0.256543E+02  0.596E-02   10.08       0.0  T
   2    -25.6542756 -0.547620E-05  0.415E-02   10.09       1.0  T
   3    -25.6542805 -0.482211E-05  0.188E-02   10.09       1.2  T
   4    -25.6542821 -0.168394E-05  0.113E-02   10.09       1.9  T
   5    -25.6542829 -0.738702E-06  0.263E-03   10.09       8.3  T
   6    -25.6542829 -0.396514E-07  0.648E-04   10.09      33.7  T
   7    -25.6542829 -0.523439E-09  0.272E-04   10.09      80.1  T
     SCC iter.                  ...        0 min,  0.008 sec
     gradient                   ...        0 min,  0.002 sec
 * total energy  :   -25.3572687 Eh     change       -0.3038126E-03 Eh
   gradient norm :     0.0070769 Eh/α   predicted    -0.2406536E-03 ( -20.79%)
   displ. norm   :     0.2073584 α      lambda       -0.2141306E-03
   maximum displ.:     0.1436557 α      in ANC's #2, #12, #9, ...

........................................................................
.............................. CYCLE    8 ..............................
........................................................................
   1    -25.6546457 -0.256546E+02  0.430E-02   10.11       0.0  T
   2    -25.6546485 -0.278293E-05  0.289E-02   10.12       1.0  T
   3    -25.6546504 -0.190977E-05  0.126E-02   10.12       1.7  T
   4    -25.6546511 -0.677568E-06  0.790E-03   10.12       2.8  T
   5    -25.6546514 -0.353241E-06  0.273E-03   10.12       8.0  T
   6    -25.6546515 -0.476829E-07  0.581E-04   10.12      37.5  T
   7    -25.6546515 -0.498964E-09  0.203E-04   10.12     107.5  T
     SCC iter.                  ...        0 min,  0.007 sec
     gradient                   ...        0 min,  0.001 sec
 * total energy  :   -25.3574161 Eh     change       -0.1474045E-03 Eh
   gradient norm :     0.0043427 Eh/α   predicted    -0.1116730E-03 ( -24.24%)
   displ. norm   :     0.1686444 α      lambda       -0.9819998E-04
   maximum displ.:     0.1311491 α      in ANC's #2, #9, #12, ...

........................................................................
.............................. CYCLE    9 ..............................
........................................................................
   1    -25.6548354 -0.256548E+02  0.320E-02   10.14       0.0  T
   2    -25.6548363 -0.943210E-06  0.217E-02   10.14       1.0  T
   3    -25.6548375 -0.120948E-05  0.853E-03   10.14       2.6  T
   4    -25.6548378 -0.339994E-06  0.485E-03   10.14       4.5  T
   5    -25.6548380 -0.147342E-06  0.101E-03   10.14      21.6  T
   6    -25.6548380 -0.479829E-08  0.381E-04   10.14      57.3  T
   7    -25.6548380 -0.137128E-09  0.620E-05   10.14     352.1  T
     SCC iter.                  ...        0 min,  0.006 sec
     gradient                   ...        0 min,  0.001 sec
 * total energy  :   -25.3574917 Eh     change       -0.7565471E-04 Eh
   gradient norm :     0.0028584 Eh/α   predicted    -0.5050459E-04 ( -33.24%)
   displ. norm   :     0.2078559 α      lambda       -0.1128077E-03
   maximum displ.:     0.1637817 α      in ANC's #2, #9, #3, ...

........................................................................
.............................. CYCLE   10 ..............................
........................................................................
   1    -25.6552023 -0.256552E+02  0.389E-02   10.16       0.0  T
   2    -25.6552033 -0.965222E-06  0.255E-02   10.16       1.0  T
   3    -25.6552046 -0.127958E-05  0.896E-03   10.16       2.4  T
   4    -25.6552050 -0.416911E-06  0.426E-03   10.16       5.1  T
   5    -25.6552051 -0.119948E-06  0.108E-03   10.16      20.1  T
   6    -25.6552051 -0.281942E-08  0.421E-04   10.16      51.8  T
   7    -25.6552051 -0.224368E-09  0.555E-05   10.16     393.0  T
     SCC iter.                  ...        0 min,  0.006 sec
     gradient                   ...        0 min,  0.001 sec
 * total energy  :   -25.3575861 Eh     change       -0.9432789E-04 Eh
   gradient norm :     0.0034269 Eh/α   predicted    -0.5884186E-04 ( -37.62%)
   displ. norm   :     0.2384901 α      lambda       -0.1422842E-03
   maximum displ.:     0.1789394 α      in ANC's #2, #9, #3, ...

........................................................................
.............................. CYCLE   11 ..............................
........................................................................
   1    -25.6552835 -0.256553E+02  0.441E-02   10.17       0.0  T
   2    -25.6552844 -0.863833E-06  0.277E-02   10.17       1.0  T
   3    -25.6552853 -0.959959E-06  0.798E-03   10.17       2.7  T
   4    -25.6552856 -0.252168E-06  0.514E-03   10.17       4.2  T
   5    -25.6552858 -0.169129E-06  0.143E-03   10.17      15.2  T
   6    -25.6552858 -0.108528E-07  0.546E-04   10.17      39.9  T
   7    -25.6552858 -0.443087E-09  0.109E-04   10.17     199.7  T
     SCC iter.                  ...        0 min,  0.006 sec
     gradient                   ...        0 min,  0.001 sec
 * total energy  :   -25.3577127 Eh     change       -0.1266516E-03 Eh
   gradient norm :     0.0045409 Eh/α   predicted    -0.7519263E-04 ( -40.63%)
   displ. norm   :     0.3538027 α      lambda       -0.2145547E-03
   maximum displ.:     0.2524293 α      in ANC's #2, #9, #3, ...

........................................................................
.............................. CYCLE   12 ..............................
........................................................................
   1    -25.6546926 -0.256547E+02  0.647E-02   10.16       0.0  T
   2    -25.6546942 -0.162239E-05  0.399E-02   10.16       1.0  T
   3    -25.6546957 -0.150769E-05  0.101E-02   10.16       2.2  T
   4    -25.6546960 -0.348510E-06  0.704E-03   10.16       3.1  T
   5    -25.6546963 -0.296938E-06  0.257E-03   10.16       8.5  T
   6    -25.6546964 -0.416747E-07  0.865E-04   10.16      25.2  T
   7    -25.6546964 -0.132001E-08  0.189E-04   10.16     115.2  T
     SCC iter.                  ...        0 min,  0.006 sec
     gradient                   ...        0 min,  0.001 sec
 * total energy  :   -25.3578710 Eh     change       -0.1582548E-03 Eh
   gradient norm :     0.0057641 Eh/α   predicted    -0.1207204E-03 ( -23.72%)
   displ. norm   :     0.2945304 α      lambda       -0.1291952E-03
   maximum displ.:     0.2012021 α      in ANC's #2, #9, #10, ...

........................................................................
.............................. CYCLE   13 ..............................
........................................................................
   1    -25.6542228 -0.256542E+02  0.520E-02   10.14       0.0  T
   2    -25.6542238 -0.992467E-06  0.321E-02   10.14       1.0  T
   3    -25.6542248 -0.995169E-06  0.808E-03   10.14       2.7  T
   4    -25.6542250 -0.214949E-06  0.572E-03   10.14       3.8  T
   5    -25.6542252 -0.205012E-06  0.192E-03   10.14      11.4  T
   6    -25.6542252 -0.194377E-07  0.742E-04   10.14      29.4  T
   7    -25.6542252 -0.108023E-08  0.147E-04   10.14     148.0  T
     SCC iter.                  ...        0 min,  0.006 sec
     gradient                   ...        0 min,  0.001 sec
 * total energy  :   -25.3579529 Eh     change       -0.8191290E-04 Eh
   gradient norm :     0.0054882 Eh/α   predicted    -0.7020493E-04 ( -14.29%)
   displ. norm   :     0.1429340 α      lambda       -0.7494777E-04
   maximum displ.:     0.0997804 α      in ANC's #2, #9, #1, ...

........................................................................
.............................. CYCLE   14 ..............................
........................................................................
   1    -25.6549816 -0.256550E+02  0.250E-02   10.15       0.0  T
   2    -25.6549820 -0.421668E-06  0.164E-02   10.15       1.3  T
   3    -25.6549825 -0.549382E-06  0.580E-03   10.15       3.8  T
   4    -25.6549827 -0.150986E-06  0.332E-03   10.15       6.6  T
   5    -25.6549827 -0.747101E-07  0.783E-04   10.15      27.9  T
   6    -25.6549827 -0.166327E-08  0.285E-04   10.15      76.6  T
     SCC iter.                  ...        0 min,  0.005 sec
     gradient                   ...        0 min,  0.001 sec
 * total energy  :   -25.3580100 Eh     change       -0.5706783E-04 Eh
   gradient norm :     0.0024899 Eh/α   predicted    -0.3824013E-04 ( -32.99%)
   displ. norm   :     0.1710236 α      lambda       -0.7145102E-04
   maximum displ.:     0.1067499 α      in ANC's #2, #1, #9, ...

........................................................................
.............................. CYCLE   15 ..............................
........................................................................
   1    -25.6557602 -0.256558E+02  0.287E-02   10.16       0.0  T
   2    -25.6557609 -0.713133E-06  0.195E-02   10.16       1.1  T
   3    -25.6557618 -0.956276E-06  0.751E-03   10.16       2.9  T
   4    -25.6557621 -0.284393E-06  0.389E-03   10.16       5.6  T
   5    -25.6557622 -0.945384E-07  0.823E-04   10.16      26.5  T
   6    -25.6557622 -0.242648E-08  0.352E-04   10.16      61.9  T
     SCC iter.                  ...        0 min,  0.005 sec
     gradient                   ...        0 min,  0.001 sec
 * total energy  :   -25.3580604 Eh     change       -0.5049567E-04 Eh
   gradient norm :     0.0019404 Eh/α   predicted    -0.3677363E-04 ( -27.17%)
   displ. norm   :     0.2835651 α      lambda       -0.4446205E-04
   maximum displ.:     0.1771207 α      in ANC's #2, #1, #9, ...

........................................................................
.............................. CYCLE   16 ..............................
........................................................................
   1    -25.6554914 -0.256555E+02  0.439E-02   10.15       0.0  T
   2    -25.6554932 -0.173446E-05  0.304E-02   10.15       1.0  T
   3    -25.6554957 -0.257891E-05  0.117E-02   10.15       1.9  T
   4    -25.6554966 -0.846037E-06  0.328E-03   10.15       6.7  T
   5    -25.6554966 -0.638782E-07  0.105E-03   10.15      20.8  T
   6    -25.6554966 -0.179134E-08  0.396E-04   10.15      55.1  T
   7    -25.6554966 -0.193562E-09  0.552E-05   10.15     395.3  T
     SCC iter.                  ...        0 min,  0.006 sec
     gradient                   ...        0 min,  0.001 sec
 * total energy  :   -25.3581060 Eh     change       -0.4550176E-04 Eh
   gradient norm :     0.0032507 Eh/α   predicted    -0.2302606E-04 ( -49.40%)
   displ. norm   :     0.1246728 α      lambda       -0.4345311E-04
   maximum displ.:     0.0702030 α      in ANC's #1, #12, #4, ...

........................................................................
.............................. CYCLE   17 ..............................
........................................................................
   1    -25.6561147 -0.256561E+02  0.217E-02   10.16       0.0  T
   2    -25.6561152 -0.479126E-06  0.145E-02   10.16       1.5  T
   3    -25.6561157 -0.464896E-06  0.566E-03   10.16       3.9  T
   4    -25.6561158 -0.131799E-06  0.376E-03   10.16       5.8  T
   5    -25.6561159 -0.799994E-07  0.141E-03   10.16      15.5  T
   6    -25.6561159 -0.128080E-07  0.255E-04   10.16      85.6  T
   7    -25.6561159 -0.516351E-10  0.879E-05   10.16     248.2  T
     SCC iter.                  ...        0 min,  0.006 sec
     gradient                   ...        0 min,  0.001 sec
 * total energy  :   -25.3581398 Eh     change       -0.3388382E-04 Eh
   gradient norm :     0.0038136 Eh/α   predicted    -0.2206598E-04 ( -34.88%)
   displ. norm   :     0.2936288 α      lambda       -0.7240960E-04
   maximum displ.:     0.1587449 α      in ANC's #2, #1, #12, ...

........................................................................
.............................. CYCLE   18 ..............................
........................................................................
   1    -25.6553533 -0.256554E+02  0.456E-02   10.16       0.0  T
   2    -25.6553552 -0.190314E-05  0.316E-02   10.16       1.0  T
   3    -25.6553580 -0.281753E-05  0.122E-02   10.16       1.8  T
   4    -25.6553589 -0.819006E-06  0.523E-03   10.16       4.2  T
   5    -25.6553590 -0.173670E-06  0.112E-03   10.16      19.5  T
   6    -25.6553590 -0.520076E-08  0.449E-04   10.16      48.6  T
   7    -25.6553590 -0.124402E-09  0.799E-05   10.16     273.2  T
     SCC iter.                  ...        0 min,  0.006 sec
     gradient                   ...        0 min,  0.001 sec
 * total energy  :   -25.3581887 Eh     change       -0.4882175E-04 Eh
   gradient norm :     0.0020336 Eh/α   predicted    -0.3932699E-04 ( -19.45%)
   displ. norm   :     0.1582605 α      lambda       -0.3296477E-04
   maximum displ.:     0.0928187 α      in ANC's #1, #5, #4, ...

........................................................................
.............................. CYCLE   19 ..............................
........................................................................
   1    -25.6552846 -0.256553E+02  0.285E-02   10.17       0.0  T
   2    -25.6552851 -0.469443E-06  0.185E-02   10.17       1.2  T
   3    -25.6552856 -0.596993E-06  0.609E-03   10.17       3.6  T
   4    -25.6552858 -0.165488E-06  0.357E-03   10.17       6.1  T
   5    -25.6552859 -0.837787E-07  0.947E-04   10.17      23.0  T
   6    -25.6552859 -0.431183E-08  0.326E-04   10.17      67.0  T
     SCC iter.                  ...        0 min,  0.005 sec
     gradient                   ...        0 min,  0.001 sec
 * total energy  :   -25.3582105 Eh     change       -0.2186020E-04 Eh
   gradient norm :     0.0013270 Eh/α   predicted    -0.1689755E-04 ( -22.70%)
   displ. norm   :     0.1221394 α      lambda       -0.1457601E-04
   maximum displ.:     0.0739681 α      in ANC's #1, #5, #4, ...

........................................................................
.............................. CYCLE   20 ..............................
........................................................................
   1    -25.6556234 -0.256556E+02  0.256E-02   10.17       0.0  T
   2    -25.6556238 -0.400685E-06  0.163E-02   10.17       1.3  T
   3    -25.6556243 -0.421220E-06  0.526E-03   10.17       4.1  T
   4    -25.6556244 -0.119401E-06  0.319E-03   10.17       6.8  T
   5    -25.6556244 -0.660117E-07  0.798E-04   10.17      27.3  T
   6    -25.6556244 -0.237989E-08  0.333E-04   10.17      65.6  T
     SCC iter.                  ...        0 min,  0.005 sec
     gradient                   ...        0 min,  0.001 sec
 * total energy  :   -25.3582218 Eh     change       -0.1133329E-04 Eh
   gradient norm :     0.0008438 Eh/α   predicted    -0.7337669E-05 ( -35.26%)
   displ. norm   :     0.1021217 α      lambda       -0.1237854E-04
   maximum displ.:     0.0863777 α      in ANC's #5, #1, #2, ...
 * RMSD in coord.:     0.7777670 α      energy gain  -0.8186149E-02 Eh

generating ANC from model Hessian ...
Using Lindh-Hessian (1995)
 Shifting diagonal of input Hessian by    9.9259347145005047E-003
 Lowest  eigenvalues of input Hessian
    0.000000    0.000000    0.000000    0.000000    0.000000    0.000000
    0.010000    0.010508    0.011875    0.012903    0.013305    0.016546
    0.020016    0.020582    0.024297    0.025086    0.030303    0.034724
 Highest eigenvalues
    1.210653    1.236629    1.285573    1.370947    1.431564    1.461262


........................................................................
.............................. CYCLE   21 ..............................
........................................................................
   1    -25.6552544 -0.256553E+02  0.224E-02   10.15       0.0  T
   2    -25.6552545 -0.116258E-06  0.136E-02   10.15       1.6  T
   3    -25.6552546 -0.116517E-06  0.274E-03   10.15       8.0  T
   4    -25.6552546 -0.245024E-07  0.191E-03   10.15      11.4  T
   5    -25.6552546 -0.231842E-07  0.625E-04   10.15      34.9  T
   6    -25.6552547 -0.174995E-08  0.223E-04   10.15      97.8  T
     SCC iter.                  ...        0 min,  0.005 sec
     gradient                   ...        0 min,  0.001 sec
 * total energy  :   -25.3582312 Eh     change       -0.9303319E-05 Eh
   gradient norm :     0.0017485 Eh/α   predicted     0.0000000E+00 (-100.00%)
   displ. norm   :     0.0238109 α      lambda       -0.2986219E-05
   maximum displ.:     0.0159682 α      in ANC's #5, #4, #2, ...

........................................................................
.............................. CYCLE   22 ..............................
........................................................................
   1    -25.6554643 -0.256555E+02  0.749E-03   10.16       0.0  T
   2    -25.6554643 -0.414373E-07  0.448E-03   10.16       4.9  T
   3    -25.6554643 -0.834761E-08  0.967E-04   10.16      22.6  T
   4    -25.6554643 -0.223320E-08  0.563E-04   10.16      38.8  T
     SCC iter.                  ...        0 min,  0.004 sec
     gradient                   ...        0 min,  0.001 sec
 * total energy  :   -25.3582386 Eh     change       -0.7490999E-05 Eh
   gradient norm :     0.0004380 Eh/α   predicted    -0.4154506E-05 ( -44.54%)
   displ. norm   :     0.0306007 α      lambda       -0.3520912E-05
   maximum displ.:     0.0229392 α      in ANC's #5, #2, #3, ...

........................................................................
.............................. CYCLE   23 ..............................
........................................................................
   1    -25.6555653 -0.256556E+02  0.719E-03   10.16       0.0  T
   2    -25.6555653 -0.992134E-08  0.436E-03   10.16       5.0  T
   3    -25.6555654 -0.906339E-08  0.762E-04   10.16      28.6  T
   4    -25.6555654 -0.166625E-08  0.568E-04   10.16      38.5  T
     SCC iter.                  ...        0 min,  0.004 sec
     gradient                   ...        0 min,  0.001 sec
 * total energy  :   -25.3582428 Eh     change       -0.4107459E-05 Eh
   gradient norm :     0.0005725 Eh/α   predicted    -0.1778543E-05 ( -56.70%)
   displ. norm   :     0.0417495 α      lambda       -0.3454237E-05
   maximum displ.:     0.0296224 α      in ANC's #5, #3, #2, ...

   *** GEOMETRY OPTIMIZATION CONVERGED AFTER 23 ITERATIONS ***

------------------------------------------------------------------------
 total energy gain   :        -0.0082071 Eh       -5.1500 kcal/mol
 total RMSD          :         0.7771104 a0        0.4112 Å
 total power (kW/mol):        -0.9368526 (step)  -97.7210 (real)
------------------------------------------------------------------------

 ANCopt (total)                0 d,  0 h,  0 min,  0.221 sec
 optimizer setup                ...        0 min,  0.000 sec (  0.060%)
 model hessian                  ...        0 min,  0.012 sec (  5.518%)
 ANC generation                 ...        0 min,  0.002 sec (  0.924%)
 coordinate transformation      ...        0 min,  0.001 sec (  0.236%)
 single point calculation       ...        0 min,  0.199 sec ( 90.052%)
 optimization log               ...        0 min,  0.002 sec (  0.957%)
 hessian update                 ...        0 min,  0.001 sec (  0.230%)
 rational function              ...        0 min,  0.002 sec (  0.963%)

================
 final structure:
================
21
 xtb: 6.5.1 (fef0646)
N            1.00506743864008       -0.11361053589692        0.27043876730943
C            2.47678389833704        0.00513000178702        0.23454329503566
C            3.06952058747240       -0.08922141273955        1.63627929325118
C            4.59478640472494       -0.00893073046456        1.59758723850137
C            5.20290112634807       -0.05804339240562        2.99819813453380
C            6.72579081525278       -0.01717801979285        2.95363221868902
Cl          -0.12101045178149        0.11086139452843       -2.55347133803693
H            0.60582306620868       -0.03765876374098       -0.69969182387915
H            0.59140806359084        0.63257144572425        0.83436509055944
H            0.72318227238236       -1.02033462451433        0.64904368670269
H            2.73608388648679        0.95842708635933       -0.22540455152603
H            2.87152232180203       -0.78815559800339       -0.40014296109823
H            2.78030143719462       -1.03391259689607        2.09875666354658
H            2.69072830467189        0.72534581930277        2.25524816726481
H            4.89998305483890        0.91761476334207        1.10753221317863
H            4.98909621554328       -0.83802117198375        1.00699197579385
H            4.88308544412653       -0.97258904157814        3.50191515020380
H            4.83764042211441        0.78876746530930        3.58275931063634
H            7.11530860069952       -0.86982529424484        2.40188993993044
H            7.14009253635584       -0.04196838864649        3.95862703243277
H            7.06998455498835        0.89117159455680        2.46391249697024

 Bond Distances (Angstroems)
 ---------------------------
N1-C2=1.4769         N1-H8=1.0518         N1-H9=1.0227         N1-H10=1.0222        C2-N1=1.4769         C2-C3=1.5248         
C2-H11=1.0898        C2-H12=1.0899        C3-C2=1.5248         C3-C4=1.5279         C3-H13=1.0909        C3-H14=1.0909        
C4-C3=1.5279         C4-C5=1.5277         C4-H15=1.0917        C4-H16=1.0916        C5-C4=1.5277         C5-C6=1.5241         
C5-H17=1.0920        C5-H18=1.0919        C6-C5=1.5241         C6-H19=1.0877        C6-H20=1.0873        C6-H21=1.0878        
H8-N1=1.0518         H9-N1=1.0227         H10-N1=1.0222        H11-C2=1.0898        H12-C2=1.0899        H13-C3=1.0909        
H14-C3=1.0909        H15-C4=1.0917        H16-C4=1.0916        H17-C5=1.0920        H18-C5=1.0919        H19-C6=1.0877        
H20-C6=1.0873        H21-C6=1.0878        
 C  H  Rav=1.0901 sigma=0.0017  Rmin=1.0873  Rmax=1.0920    11
 C  C  Rav=1.5261 sigma=0.0017  Rmin=1.5241  Rmax=1.5279     4
 N  H  Rav=1.0322 sigma=0.0138  Rmin=1.0222  Rmax=1.0518     3
 N  C  Rav=1.4769 sigma=0.0000  Rmin=1.4769  Rmax=1.4769     1

 selected bond angles (degree)
 --------------------
H8-N1-C2=110.49                H9-N1-C2=110.96                H9-N1-H8=107.60                H10-N1-C2=110.80               
H10-N1-H8=107.52               H10-N1-H9=109.35               C3-C2-N1=111.10                H11-C2-N1=108.52               
H11-C2-C3=110.46               H12-C2-N1=108.45               H12-C2-C3=110.46               H12-C2-H11=107.74              
C4-C3-C2=111.19                H13-C3-C2=109.89               H13-C3-C4=108.72               H14-C3-C2=109.90               
H14-C3-C4=108.77               H14-C3-H13=108.30              C5-C4-C3=111.87                H15-C4-C3=109.58               
H15-C4-C5=109.12               H16-C4-C3=109.54               H16-C4-C5=109.14               H16-C4-H15=107.50              
C6-C5-C4=111.72                H17-C5-C4=109.47               H17-C5-C6=109.18               H18-C5-C4=109.43               
H18-C5-C6=109.22               H18-C5-H17=107.73              H19-C6-C5=110.59               H20-C6-C5=110.68               
H20-C6-H19=108.33              H21-C6-C5=110.59               H21-C6-H19=108.23              H21-C6-H20=108.33              

 selected dihedral angles (degree)
 ---------------------------------
C3-C2-N1-H8=179.44            C3-C2-N1-H9= 60.17            C3-C2-N1-H10=298.49           H11-C2-N1-H8= 57.80           
H11-C2-N1-H9=298.53           H11-C2-N1-H10=176.85          H12-C2-N1-H8=301.02           H12-C2-N1-H9=181.75           
H12-C2-N1-H10= 60.07          C4-C3-C2-N1=178.29            C4-C3-C2-H11=298.78           C4-C3-C2-H12= 57.89           
H13-C3-C2-N1= 57.87           H13-C3-C2-H11=178.36          H13-C3-C2-H12=297.46          H14-C3-C2-N1=298.78           
H14-C3-C2-H11= 59.27          H14-C3-C2-H12=178.38          C5-C4-C3-C2=178.22            C5-C4-C3-H13=299.33           
C5-C4-C3-H14= 57.06           H15-C4-C3-C2= 57.06           H15-C4-C3-H13=178.18          H15-C4-C3-H14=295.91          
H16-C4-C3-C2=299.36           H16-C4-C3-H13= 60.47          H16-C4-C3-H14=178.20          C6-C5-C4-C3=178.40            
C6-C5-C4-H15=299.82           C6-C5-C4-H16= 57.03           H17-C5-C4-C3= 57.34           H17-C5-C4-H15=178.76          
H17-C5-C4-H16=295.96          H18-C5-C4-C3=299.48           H18-C5-C4-H15= 60.90          H18-C5-C4-H16=178.10          
H19-C6-C5-C4=299.44           H19-C6-C5-H17= 60.66          H19-C6-C5-H18=178.23          H20-C6-C5-C4=179.38           
H20-C6-C5-H17=300.61          H20-C6-C5-H18= 58.17          H21-C6-C5-C4= 59.32           H21-C6-C5-H17=180.54          
H21-C6-C5-H18=298.11          

 CMA Distance (Angstroems)
 ---------------------------
R(CMA):  5.6904
           -------------------------------------------------
          |                Final Singlepoint                |
           -------------------------------------------------

          ...................................................
          :                      SETUP                      :
          :.................................................:
          :  # basis functions                  48          :
          :  # atomic orbitals                  47          :
          :  # shells                           29          :
          :  # electrons                        46          :
          :  max. iterations                   250          :
          :  Hamiltonian                  GFN2-xTB          :
          :  restarted?                      false          :
          :  GBSA solvation                   true          :
          :  PC potential                    false          :
          :  electronic temp.          300.0000000     K    :
          :  accuracy                    1.0000000          :
          :  -> integral cutoff          0.2500000E+02      :
          :  -> integral neglect         0.1000000E-07      :
          :  -> SCF convergence          0.1000000E-05 Eh   :
          :  -> wf. convergence          0.1000000E-03 e    :
          :  Broyden damping             0.4000000          :
          ...................................................

 iter      E             dE          RMSdq      gap      omega  full diag
   1    -25.6555654 -0.256556E+02  0.197E-04   10.16       0.0  T
   2    -25.6555654 -0.870415E-10  0.150E-04   10.16     145.9  T
   3    -25.6555654 -0.852296E-10  0.847E-05   10.16     257.5  T

   *** convergence criteria satisfied after 3 iterations ***

         #    Occupation            Energy/Eh            Energy/eV
      -------------------------------------------------------------
         1        2.0000           -1.0066333             -27.3919
       ...           ...                  ...                  ...
        17        2.0000           -0.4362822             -11.8718
        18        2.0000           -0.4305344             -11.7154
        19        2.0000           -0.4278890             -11.6435
        20        2.0000           -0.4168305             -11.3425
        21        2.0000           -0.4037078             -10.9854
        22        2.0000           -0.4007763             -10.9057
        23        2.0000           -0.4007480             -10.9049 (HOMO)
        24                         -0.0274807              -0.7478 (LUMO)
        25                          0.0630225               1.7149
        26                          0.0856954               2.3319
        27                          0.1087563               2.9594
        28                          0.1135107               3.0888
       ...                                ...                  ...
        47                          0.3195107               8.6943
      -------------------------------------------------------------
                  HL-Gap            0.3732673 Eh           10.1571 eV
             Fermi-level           -0.2141143 Eh           -5.8263 eV

 SCC (total)                   0 d,  0 h,  0 min,  0.005 sec
 SCC setup                      ...        0 min,  0.000 sec (  3.250%)
 Dispersion                     ...        0 min,  0.000 sec (  2.126%)
 classical contributions        ...        0 min,  0.000 sec (  0.462%)
 integral evaluation            ...        0 min,  0.000 sec (  9.396%)
 iterations                     ...        0 min,  0.003 sec ( 57.939%)
 molecular gradient             ...        0 min,  0.001 sec ( 23.388%)
 printout                       ...        0 min,  0.000 sec (  1.639%)

         :::::::::::::::::::::::::::::::::::::::::::::::::::::
         ::                     SUMMARY                     ::
         :::::::::::::::::::::::::::::::::::::::::::::::::::::
         :: total energy             -25.358242753075 Eh    ::
         :: total w/o Gsasa/hb       -25.351383809668 Eh    ::
         :: gradient norm              0.000571838051 Eh/a0 ::
         :: HOMO-LUMO gap             10.157119785106 eV    ::
         ::.................................................::
         :: SCC energy               -25.655565355090 Eh    ::
         :: -> isotropic ES            0.119059832956 Eh    ::
         :: -> anisotropic ES         -0.025197963508 Eh    ::
         :: -> anisotropic XC          0.004755837407 Eh    ::
         :: -> dispersion             -0.010871303515 Eh    ::
         :: -> Gsolv                  -0.071392707346 Eh    ::
         ::    -> Gelec               -0.064533763940 Eh    ::
         ::    -> Gsasa               -0.000968588072 Eh    ::
         ::    -> Ghb                 -0.006971115033 Eh    ::
         ::    -> Gshift               0.001080759698 Eh    ::
         :: repulsion energy           0.297382638560 Eh    ::
         :: add. restraining           0.000000000000 Eh    ::
         :: total charge              -0.000000000000 e     ::
         :::::::::::::::::::::::::::::::::::::::::::::::::::::

           -------------------------------------------------
          |                Property Printout                |
           -------------------------------------------------

    * Orbital Energies and Occupations

         #    Occupation            Energy/Eh            Energy/eV
      -------------------------------------------------------------
         1        2.0000           -1.0066333             -27.3919
       ...           ...                  ...                  ...
        11        2.0000           -0.5160079             -14.0413
        12        2.0000           -0.4891572             -13.3106
        13        2.0000           -0.4867083             -13.2440
        14        2.0000           -0.4797041             -13.0534
        15        2.0000           -0.4558037             -12.4030
        16        2.0000           -0.4526082             -12.3161
        17        2.0000           -0.4362822             -11.8718
        18        2.0000           -0.4305344             -11.7154
        19        2.0000           -0.4278890             -11.6435
        20        2.0000           -0.4168305             -11.3425
        21        2.0000           -0.4037078             -10.9854
        22        2.0000           -0.4007763             -10.9057
        23        2.0000           -0.4007480             -10.9049 (HOMO)
        24                         -0.0274807              -0.7478 (LUMO)
        25                          0.0630225               1.7149
        26                          0.0856954               2.3319
        27                          0.1087563               2.9594
        28                          0.1135107               3.0888
        29                          0.1161740               3.1613
        30                          0.1167603               3.1772
        31                          0.1168130               3.1786
        32                          0.1191927               3.2434
        33                          0.1192023               3.2437
        34                          0.1446795               3.9369
       ...                                ...                  ...
        47                          0.3195107               8.6943
      -------------------------------------------------------------
                  HL-Gap            0.3732673 Eh           10.1571 eV
             Fermi-level           -0.2141143 Eh           -5.8263 eV

     #   Z          covCN         q      C6AA      α(0)
     1   7 N        3.483    -0.166    24.588     7.365
     2   6 C        3.733    -0.024    21.085     6.554
     3   6 C        3.803    -0.083    22.073     6.689
     4   6 C        3.804    -0.069    21.813     6.649
     5   6 C        3.801    -0.062    21.685     6.630
     6   6 C        3.752    -0.113    22.715     6.797
     7  17 Cl       0.055    -0.947   124.854    17.006
     8   1 H        0.911     0.293     0.729     1.336
     9   1 H        0.859     0.297     0.722     1.331
    10   1 H        0.859     0.297     0.722     1.332
    11   1 H        0.925     0.093     1.848     2.126
    12   1 H        0.925     0.093     1.845     2.124
    13   1 H        0.924     0.064     2.151     2.294
    14   1 H        0.924     0.064     2.158     2.297
    15   1 H        0.924     0.040     2.449     2.447
    16   1 H        0.924     0.041     2.441     2.443
    17   1 H        0.924     0.037     2.485     2.465
    18   1 H        0.924     0.037     2.493     2.469
    19   1 H        0.925     0.035     2.510     2.478
    20   1 H        0.925     0.035     2.520     2.482
    21   1 H        0.925     0.035     2.513     2.479

 Mol. C6AA /au·bohr⁶  :       3443.775992
 Mol. C8AA /au·bohr⁸  :      82824.209525
 Mol. α(0) /au        :         87.791888


Wiberg/Mayer (AO) data.
largest (>0.10) Wiberg bond orders for each atom

 ---------------------------------------------------------------------------
     #   Z sym  total        # sym  WBO       # sym  WBO       # sym  WBO
 ---------------------------------------------------------------------------
     1   7 N    3.647 --     2 C    0.967    10 H    0.897     9 H    0.897
                             8 H    0.832
     2   6 C    3.930 --     3 C    1.008    11 H    0.969    12 H    0.968
                             1 N    0.967
     3   6 C    3.991 --     2 C    1.008     4 C    1.005    14 H    0.973
                            13 H    0.973
     4   6 C    3.996 --     5 C    1.008     3 C    1.005    15 H    0.977
                            16 H    0.977
     5   6 C    3.997 --     6 C    1.019     4 C    1.008    18 H    0.978
                            17 H    0.978
     6   6 C    3.996 --     5 C    1.019    21 H    0.988    19 H    0.988
                            20 H    0.987
     7  17 Cl   0.104
     8   1 H    0.914 --     1 N    0.832
     9   1 H    0.912 --     1 N    0.897
    10   1 H    0.912 --     1 N    0.897
    11   1 H    0.991 --     2 C    0.969
    12   1 H    0.991 --     2 C    0.968
    13   1 H    0.996 --     3 C    0.973
    14   1 H    0.996 --     3 C    0.973
    15   1 H    0.998 --     4 C    0.977
    16   1 H    0.998 --     4 C    0.977
    17   1 H    0.999 --     5 C    0.978
    18   1 H    0.999 --     5 C    0.978
    19   1 H    0.999 --     6 C    0.988
    20   1 H    0.998 --     6 C    0.987
    21   1 H    0.999 --     6 C    0.988
 ---------------------------------------------------------------------------

Topologies differ in total number of bonds
Writing topology from bond orders to xtbtopo.mol

molecular dipole:
                 x           y           z       tot (Debye)
 q only:        2.250      -0.395       5.133
   full:        1.891      -0.351       4.486      12.406
molecular quadrupole (traceless):
                xx          xy          yy          xz          yz          zz
 q only:       16.503      -0.475       7.467       0.995       1.206     -23.970
  q+dip:       11.104      -0.723       7.214       1.820       0.853     -18.318
   full:       12.225      -0.625       6.144       2.157       0.793     -18.369

           -------------------------------------------------
          |                Geometry Summary                 |
           -------------------------------------------------

      molecular mass/u    :      123.6244908
   center of mass at/Å    :        2.6631000      -0.0030391       0.3973215
  moments of inertia/u·Å² :        0.6087567E+02   0.1242731E+04   0.1285057E+04
rotational constants/cm⁻¹ :        0.2769190E+00   0.1356499E-01   0.1311820E-01

 * 19 selected distances

     #   Z          #   Z                                           value/Å
     1   7 N        2   6 C                                       1.4769352
     2   6 C        3   6 C                                       1.5248289
     3   6 C        4   6 C                                       1.5278678 (max)
     4   6 C        5   6 C                                       1.5277195
     5   6 C        6   6 C                                       1.5240897
     1   7 N        8   1 H                                       1.0518167
     1   7 N        9   1 H                                       1.0226997
     1   7 N       10   1 H                                       1.0222278 (min)
     2   6 C       11   1 H                                       1.0897541
     2   6 C       12   1 H                                       1.0899300
     3   6 C       13   1 H                                       1.0908596
     3   6 C       14   1 H                                       1.0909290
     4   6 C       15   1 H                                       1.0916894
     4   6 C       16   1 H                                       1.0916383
     5   6 C       17   1 H                                       1.0919738
     5   6 C       18   1 H                                       1.0918864
     6   6 C       19   1 H                                       1.0877276
     6   6 C       20   1 H                                       1.0873248
     6   6 C       21   1 H                                       1.0878391

 * 4 distinct bonds (by element types)

   Z      Z             #   av. dist./Å        max./Å        min./Å
   1 H    6 C          11     1.0901411     1.0919738     1.0873248
   6 C    6 C           4     1.5261265     1.5278678     1.5240897
   1 H    7 N           3     1.0322481     1.0518167     1.0222278
   6 C    7 N           1     1.4769352     1.4769352     1.4769352


optimized geometry written to: xtbopt.xyz


           -------------------------------------------------
          | TOTAL ENERGY              -25.358242753075 Eh   |
          | GRADIENT NORM               0.000571838051 Eh/α |
          | HOMO-LUMO GAP              10.157119785106 eV   |
           -------------------------------------------------

------------------------------------------------------------------------
 * finished run on 2023/01/24 at 16:05:58.438     
------------------------------------------------------------------------
 total:
 * wall-time:     0 d,  0 h,  0 min,  0.262 sec
 *  cpu-time:     0 d,  0 h,  0 min, 26.402 sec
 * ratio c/w:   100.926 speedup
 SCF:
 * wall-time:     0 d,  0 h,  0 min,  0.020 sec
 *  cpu-time:     0 d,  0 h,  0 min,  2.819 sec
 * ratio c/w:   141.705 speedup
 ANC optimizer:
 * wall-time:     0 d,  0 h,  0 min,  0.226 sec
 *  cpu-time:     0 d,  0 h,  0 min, 21.618 sec
 * ratio c/w:    95.636 speedup

