16
 energy: -24.413319892599 gnorm: 0.000667386160 xtb: 6.5.1 (fef0646)
N            2.21470077829368       -0.03528512126361       -0.20902403249319
C            0.76386195613852       -0.02676092481674       -0.19159264872045
C            0.06129594139346       -1.21943877257487       -0.18069956164247
C           -1.32422062240817       -1.19806069253782       -0.16512948069402
C           -2.00042148769056        0.00980245629192       -0.16099720799800
C           -1.29160301174412        1.20079479798260       -0.16725266456452
C            0.09211398594316        1.18548381144133       -0.18301055628559
Cl           3.38503309625996        1.20454591955861        2.26605426755711
H            2.58300311678629       -0.98680909891409       -0.29411530843245
H            2.60656801801197        0.37840820758149        0.69205198732334
H            2.58727019514595        0.55446771351182       -0.95965867530701
H            0.58371784196109       -2.16283945421978       -0.17915839257252
H           -1.87470057164327       -2.12551139858278       -0.15551475504850
H           -3.07898359408292        0.02501510464431       -0.14907821550833
H           -1.81739063726577        2.14267644871360       -0.15771099775810
H            0.65113499490087        2.10743100318400       -0.16968375785553
