22
 energy: -30.747814688454 gnorm: 0.000641311698 xtb: 6.5.1 (fef0646)
N            0.90460665700705        0.01870271351291        0.02706194822548
C            2.38094764218218        0.17715629488221        0.08573208159629
C            2.99045814093985       -1.15022576268804        0.52265715350246
C            2.93240488974584        0.60723143781308       -1.25211812617371
C            3.87655025196094        1.62467342382663       -1.31481622425502
C            4.41855827632332        2.00741640266189       -2.52925290565119
C            4.01777473831391        1.37718342802035       -3.69502463423658
C            3.07910468659526        0.36038813767287       -3.63850043192290
C            2.53882085637860       -0.02738151441795       -2.42460516560773
Cl          -0.08361546472356       -2.47638730061880       -1.47118814115226
H            0.52032287942624       -0.13267481160811        0.96277210820317
H            0.63637890538795       -0.82919057033106       -0.53475416391990
H            0.45543892603048        0.82912857184744       -0.40485551458161
H            2.61326934975943        0.95056791386529        0.82397509952557
H            2.65844306311441       -1.94060771455259       -0.14626379265391
H            2.68845459293128       -1.40122666572809        1.53513185585941
H            4.07410536469931       -1.09956431520025        0.48543838887698
H            4.19524950017130        2.11935663542187       -0.40935828001113
H            5.15175222838546        2.79857417846299       -2.56820721460001
H            4.43658968132985        1.67431711060376       -4.64493008315238
H            2.76497652291380       -0.13680756800213       -4.54518982840763
H            1.81511831112080       -0.82806002542836       -2.39803412945390
