 Entering Gaussian System
 *********************************************
 Gaussian 98:
 frequency output generated by the xtb code
 *********************************************
                         Standard orientation:
 --------------------------------------------------------------------
  Center     Atomic     Atomic              Coordinates (Angstroms)
  Number     Number      Type              X           Y           Z
 --------------------------------------------------------------------
    1          7             0       -2.344820   -0.205737    0.285099
    2          6             0       -1.057242   -0.093015   -0.465226
    3          6             0        0.118233    0.306360    0.423839
    4          6             0        1.411551    0.388792   -0.316296
    5          6             0        2.475418   -0.325443   -0.010658
    6          1             0       -3.113164   -0.479754   -0.334908
    7          1             0       -2.589184    0.689535    0.718738
    8          1             0       -2.269201   -0.907646    1.027140
    9          1             0       -1.172921    0.635804   -1.275967
   10          1             0       -0.838029   -1.049877   -0.953725
   11          1             0        0.211462   -0.412369    1.244690
   12          1             0       -0.088640    1.268582    0.905378
   13          1             0        1.461012    1.076660   -1.146177
   14          1             0        2.463858   -1.018562    0.807063
   15          1             0        3.390127   -0.240599   -0.564861
 --------------------------------------------------------------------
     1 basis functions        1 primitive gaussians
     1 alpha electrons        1 beta electrons

 Harmonic frequencies (cm**-1), IR intensities (km*mol⁻¹),
 Raman scattering activities (A**4/amu), Raman depolarization ratios,
 reduced masses (AMU), force constants (mDyne/A) and normal coordinates:
                      1                      2                      3
                        a                      a                      a 
 Frequencies --  -119.6828                53.7137               105.0821
 Red. masses --     3.4243                 8.3062                 5.4632
 Frc consts  --     0.0000                 0.0000                 0.0000
 IR Inten    --     0.5875                10.3632                 2.7802
 Raman Activ --     0.0000                 0.0000                 0.0000
 Depolar     --     0.0000                 0.0000                 0.0000
 Atom AN      X      Y      Z        X      Y      Z        X      Y      Z
   1   7     0.02   0.02  -0.07    -0.16   0.36  -0.06     0.04  -0.17   0.12
   2   6     0.09  -0.10   0.04    -0.05  -0.16   0.04    -0.15   0.43  -0.12
   3   6    -0.01   0.07   0.09     0.02  -0.50   0.08     0.01  -0.05  -0.12
   4   6     0.03   0.23   0.17    -0.05  -0.10  -0.01     0.01  -0.22  -0.13
   5   6    -0.13  -0.18  -0.21     0.25   0.34  -0.03     0.08   0.03   0.21
   6   1     0.10  -0.41   0.04    -0.02   0.01   0.00     0.06  -0.39   0.12
   7   1    -0.22   0.12  -0.39    -0.04   0.17  -0.18    -0.23  -0.03  -0.14
   8   1     0.12   0.32   0.27    -0.08   0.22   0.10     0.24   0.13   0.17
   9   1     0.04  -0.08  -0.04     0.07  -0.05  -0.00    -0.11   0.24   0.09
  10   1     0.05  -0.06   0.08    -0.10  -0.08   0.03    -0.04   0.20  -0.19
  11   1     0.01   0.02   0.02     0.04  -0.23  -0.06    -0.04  -0.08  -0.09
  12   1    -0.04   0.01   0.03     0.01  -0.20   0.14     0.08  -0.04   0.05
  13   1     0.06   0.21   0.17    -0.11  -0.04  -0.02    -0.01  -0.15  -0.11
  14   1    -0.10  -0.21  -0.19     0.17   0.12   0.01     0.04   0.10   0.14
  15   1    -0.03  -0.02  -0.04     0.05   0.20  -0.03     0.03  -0.02   0.06
                      4                      5                      6
                        a                      a                      a 
 Frequencies --   209.9278               368.9766               429.9611
 Red. masses --     7.6209                 9.3134                 7.2732
 Frc consts  --     0.0000                 0.0000                 0.0000
 IR Inten    --     9.6957                 6.1062                 1.1197
 Raman Activ --     0.0000                 0.0000                 0.0000
 Depolar     --     0.0000                 0.0000                 0.0000
 Atom AN      X      Y      Z        X      Y      Z        X      Y      Z
   1   7    -0.15  -0.11  -0.30    -0.52  -0.10   0.01    -0.10  -0.02  -0.03
   2   6     0.18   0.14   0.30    -0.25   0.03   0.20     0.10  -0.01   0.24
   3   6     0.09   0.18   0.39     0.14   0.11  -0.18     0.30  -0.14  -0.02
   4   6    -0.15  -0.21  -0.07     0.36  -0.00  -0.00     0.04   0.27  -0.41
   5   6     0.03   0.00  -0.21     0.36  -0.04  -0.01    -0.32   0.00   0.17
   6   1     0.08  -0.08  -0.21    -0.05  -0.02  -0.10     0.05   0.00  -0.10
   7   1    -0.17  -0.05  -0.12    -0.22  -0.05   0.01    -0.08  -0.01  -0.03
   8   1    -0.12  -0.03  -0.07    -0.21  -0.06  -0.02    -0.12  -0.02  -0.01
   9   1     0.10   0.05   0.08    -0.11  -0.01   0.04     0.05   0.01   0.08
  10   1     0.12   0.06   0.08    -0.09   0.00   0.06     0.01   0.00   0.05
  11   1     0.03   0.09   0.15     0.03   0.09   0.00     0.24  -0.15  -0.13
  12   1     0.08   0.09   0.06     0.09   0.07  -0.11     0.08  -0.13   0.17
  13   1    -0.16  -0.21  -0.15     0.19   0.11   0.09     0.05   0.07  -0.12
  14   1     0.16   0.15   0.07     0.07  -0.14  -0.11    -0.35   0.06   0.10
  15   1    -0.08  -0.08  -0.22     0.14   0.09   0.07     0.03  -0.17   0.22
                      7                      8                      9
                        a                      a                      a 
 Frequencies --   618.2736               787.8293               857.4254
 Red. masses --     5.5171                 1.9056                 2.8787
 Frc consts  --     0.0000                 0.0000                 0.0000
 IR Inten    --     4.2506                31.5613                11.2405
 Raman Activ --     0.0000                 0.0000                 0.0000
 Depolar     --     0.0000                 0.0000                 0.0000
 Atom AN      X      Y      Z        X      Y      Z        X      Y      Z
   1   7     0.13   0.02  -0.04     0.01  -0.07   0.02    -0.08   0.18  -0.05
   2   6     0.11   0.07   0.12     0.04  -0.21   0.03    -0.01  -0.01  -0.03
   3   6    -0.01  -0.00   0.05     0.05  -0.13   0.02     0.08  -0.28   0.09
   4   6    -0.28  -0.40  -0.28     0.03   0.08   0.02     0.05   0.11   0.03
   5   6    -0.05   0.16   0.09    -0.03   0.01  -0.02     0.00   0.02  -0.10
   6   1     0.06   0.00  -0.04    -0.02   0.08  -0.02    -0.02  -0.15   0.07
   7   1     0.01  -0.01  -0.00     0.20   0.13  -0.19    -0.30  -0.15   0.25
   8   1     0.02  -0.01  -0.02    -0.26   0.10   0.15     0.40  -0.10  -0.19
   9   1     0.07   0.03   0.04    -0.03   0.34   0.36     0.27   0.03  -0.02
  10   1     0.05   0.03   0.03    -0.08   0.17  -0.46    -0.26  -0.07   0.01
  11   1    -0.04   0.11   0.11     0.05   0.23   0.22    -0.01   0.20   0.27
  12   1     0.13   0.10  -0.13    -0.11   0.09  -0.30    -0.05   0.08  -0.31
  13   1     0.02   0.20   0.18    -0.04   0.00  -0.01    -0.12   0.01  -0.01
  14   1    -0.15  -0.30  -0.27    -0.06   0.04   0.03    -0.15   0.09   0.05
  15   1     0.11   0.38   0.29     0.01  -0.05   0.01     0.08  -0.10   0.09
                     10                     11                     12
                        a                      a                      a 
 Frequencies --   873.2420               910.3116               947.3633
 Red. masses --     5.1728                 3.6197                 4.6244
 Frc consts  --     0.0000                 0.0000                 0.0000
 IR Inten    --    49.0321                18.3261                 8.9967
 Raman Activ --     0.0000                 0.0000                 0.0000
 Depolar     --     0.0000                 0.0000                 0.0000
 Atom AN      X      Y      Z        X      Y      Z        X      Y      Z
   1   7    -0.30  -0.12  -0.15     0.04   0.04   0.03    -0.22   0.03  -0.00
   2   6    -0.03  -0.03  -0.19    -0.02  -0.03   0.00     0.18  -0.07  -0.05
   3   6     0.07   0.13   0.35    -0.02  -0.03  -0.02     0.26   0.04  -0.13
   4   6     0.06  -0.05  -0.16    -0.05  -0.14  -0.13    -0.10   0.01   0.02
   5   6     0.13   0.06  -0.01     0.14   0.31   0.27    -0.28  -0.06   0.23
   6   1    -0.45   0.01   0.40     0.08  -0.01  -0.06    -0.16  -0.04   0.15
   7   1     0.32   0.07  -0.02    -0.08  -0.02   0.03    -0.03  -0.03   0.08
   8   1     0.21   0.09   0.04    -0.01  -0.02  -0.02     0.15  -0.00  -0.03
   9   1     0.04  -0.01  -0.05     0.01   0.01   0.01     0.16   0.07   0.05
  10   1     0.13   0.02  -0.04    -0.06  -0.01  -0.02    -0.05   0.00  -0.10
  11   1     0.04  -0.00   0.06    -0.00   0.00   0.00     0.30   0.03  -0.04
  12   1     0.08   0.02   0.14    -0.06  -0.01  -0.03    -0.01  -0.01  -0.03
  13   1    -0.01   0.07   0.02     0.10   0.23   0.20     0.20  -0.05  -0.02
  14   1    -0.15  -0.02  -0.03    -0.08  -0.19  -0.16     0.38  -0.14  -0.05
  15   1     0.09  -0.15   0.06    -0.23  -0.55  -0.46    -0.29   0.32  -0.26
                     13                     14                     15
                        a                      a                      a 
 Frequencies --   983.9903              1005.7854              1038.3302
 Red. masses --    10.0980                 1.9321                 5.8199
 Frc consts  --     0.0000                 0.0000                 0.0000
 IR Inten    --    11.9310                30.0307                14.2269
 Raman Activ --     0.0000                 0.0000                 0.0000
 Depolar     --     0.0000                 0.0000                 0.0000
 Atom AN      X      Y      Z        X      Y      Z        X      Y      Z
   1   7    -0.35  -0.04   0.39     0.02  -0.03  -0.04     0.04  -0.13  -0.09
   2   6     0.56   0.10  -0.40    -0.05   0.03   0.03    -0.17   0.20   0.03
   3   6     0.05  -0.05  -0.02     0.09  -0.06  -0.04     0.38  -0.24  -0.16
   4   6    -0.06  -0.05   0.06    -0.08  -0.13  -0.07    -0.06   0.08   0.26
   5   6    -0.01   0.05  -0.05    -0.10  -0.12  -0.11    -0.14   0.11   0.06
   6   1     0.02   0.01  -0.05    -0.02   0.01   0.02    -0.07   0.04   0.04
   7   1    -0.17  -0.01   0.04     0.05   0.01  -0.03     0.17   0.05  -0.09
   8   1    -0.26  -0.02   0.10     0.00   0.01   0.01    -0.05   0.04   0.05
   9   1     0.04  -0.02  -0.13    -0.02  -0.02  -0.02    -0.15  -0.12  -0.13
  10   1     0.14  -0.01  -0.04     0.03   0.00   0.04     0.07  -0.01   0.17
  11   1    -0.17  -0.02   0.00    -0.05   0.00   0.01    -0.12   0.05   0.08
  12   1     0.04   0.02  -0.06     0.15   0.04  -0.08     0.45   0.10  -0.22
  13   1    -0.12   0.04   0.05     0.17   0.49   0.43    -0.27  -0.09  -0.03
  14   1    -0.10   0.05   0.02     0.19   0.47   0.40    -0.08  -0.08  -0.08
  15   1     0.02  -0.05   0.03    -0.03   0.01  -0.03    -0.12  -0.03  -0.12
                     16                     17                     18
                        a                      a                      a 
 Frequencies --  1097.1574              1155.5472              1208.5230
 Red. masses --     8.8360                 7.7362                 4.1177
 Frc consts  --     0.0000                 0.0000                 0.0000
 IR Inten    --    15.1953                10.2211                 8.2391
 Raman Activ --     0.0000                 0.0000                 0.0000
 Depolar     --     0.0000                 0.0000                 0.0000
 Atom AN      X      Y      Z        X      Y      Z        X      Y      Z
   1   7     0.11   0.07   0.10    -0.07   0.12  -0.08    -0.04   0.25  -0.03
   2   6    -0.32  -0.19  -0.42     0.09  -0.24   0.16     0.05  -0.33   0.04
   3   6     0.42   0.21   0.36     0.16   0.28  -0.35    -0.10  -0.03   0.09
   4   6    -0.07  -0.08  -0.00    -0.22  -0.22   0.36     0.15   0.14  -0.15
   5   6    -0.04  -0.00   0.00     0.08   0.09  -0.14    -0.06  -0.04   0.08
   6   1     0.18  -0.00  -0.15    -0.05  -0.05   0.05     0.03  -0.08   0.00
   7   1    -0.16  -0.02  -0.00    -0.06  -0.03   0.08    -0.16  -0.05   0.13
   8   1    -0.10  -0.05  -0.03     0.15  -0.01  -0.07     0.16  -0.04  -0.12
   9   1    -0.21  -0.06  -0.10    -0.05   0.08   0.18    -0.36   0.03   0.16
  10   1    -0.22  -0.06  -0.17     0.03   0.04  -0.15     0.34   0.09  -0.19
  11   1     0.15   0.02   0.06     0.16  -0.09  -0.24    -0.39  -0.07   0.02
  12   1     0.05   0.02   0.14     0.07  -0.03   0.11     0.36   0.06   0.03
  13   1    -0.06   0.02   0.03    -0.25  -0.01   0.13    -0.01   0.02  -0.06
  14   1    -0.01  -0.01  -0.00    -0.23   0.08   0.02     0.09  -0.04  -0.01
  15   1     0.01   0.08   0.04     0.10  -0.11   0.09    -0.07   0.06  -0.07
                     19                     20                     21
                        a                      a                      a 
 Frequencies --  1251.8362              1271.5470              1304.7038
 Red. masses --     1.9298                 3.2876                 3.1820
 Frc consts  --     0.0000                 0.0000                 0.0000
 IR Inten    --    15.9535                 3.4190                10.8328
 Raman Activ --     0.0000                 0.0000                 0.0000
 Depolar     --     0.0000                 0.0000                 0.0000
 Atom AN      X      Y      Z        X      Y      Z        X      Y      Z
   1   7     0.03  -0.10   0.04     0.02  -0.05  -0.10    -0.04   0.00   0.14
   2   6    -0.01  -0.13  -0.02     0.15   0.04   0.13    -0.22  -0.05  -0.11
   3   6    -0.12   0.17  -0.01     0.18   0.13  -0.03    -0.17   0.02  -0.05
   4   6     0.04   0.04   0.01     0.13   0.03  -0.19     0.09   0.09  -0.11
   5   6    -0.03   0.03  -0.01     0.01  -0.14   0.16     0.07  -0.15   0.14
   6   1     0.02   0.02  -0.02    -0.09   0.01   0.08     0.12   0.01  -0.13
   7   1     0.05   0.01  -0.05     0.03  -0.02   0.00     0.04   0.05  -0.05
   8   1    -0.06  -0.00   0.04    -0.01   0.03   0.02     0.04  -0.04  -0.02
   9   1     0.51   0.12   0.06    -0.10  -0.02   0.02     0.37   0.08  -0.01
  10   1    -0.44  -0.10  -0.08    -0.36  -0.06   0.00     0.32   0.06   0.01
  11   1    -0.30  -0.11  -0.10    -0.38  -0.09  -0.06     0.31   0.07  -0.01
  12   1     0.51   0.08   0.14    -0.32  -0.06   0.04     0.15   0.02   0.03
  13   1     0.10  -0.04  -0.04    -0.55   0.18   0.06    -0.56   0.18   0.07
  14   1    -0.04   0.01  -0.01     0.12  -0.07   0.01     0.20  -0.08   0.01
  15   1    -0.03   0.01  -0.03    -0.06   0.11  -0.04     0.01  -0.03   0.01
                     22                     23                     24
                        a                      a                      a 
 Frequencies --  1334.2646              1368.5051              1397.8849
 Red. masses --     3.8522                 2.9330                 2.4155
 Frc consts  --     0.0000                 0.0000                 0.0000
 IR Inten    --    11.4199               193.9452                 0.6921
 Raman Activ --     0.0000                 0.0000                 0.0000
 Depolar     --     0.0000                 0.0000                 0.0000
 Atom AN      X      Y      Z        X      Y      Z        X      Y      Z
   1   7     0.07  -0.01  -0.12     0.34   0.04  -0.13     0.00  -0.00  -0.01
   2   6     0.29   0.07  -0.00    -0.12  -0.03  -0.05     0.02   0.02  -0.02
   3   6    -0.36  -0.05   0.05     0.03   0.00  -0.02    -0.16  -0.01   0.02
   4   6    -0.00   0.07  -0.02     0.00   0.00  -0.00     0.26  -0.11  -0.00
   5   6     0.03  -0.04   0.03     0.00  -0.01   0.01     0.11  -0.09   0.04
   6   1    -0.08   0.00   0.08    -0.32   0.02   0.41     0.01  -0.00  -0.01
   7   1    -0.06  -0.07   0.08    -0.45  -0.18   0.12     0.00  -0.01   0.03
   8   1    -0.09   0.07   0.06    -0.49   0.03   0.08    -0.01   0.02   0.02
   9   1    -0.38  -0.08  -0.03     0.17   0.08   0.04    -0.04  -0.01  -0.01
  10   1    -0.38  -0.08  -0.02     0.18   0.01   0.05    -0.02  -0.01   0.01
  11   1     0.44   0.05  -0.01    -0.01   0.00  -0.00     0.18   0.06   0.03
  12   1     0.34   0.09  -0.02    -0.01  -0.01   0.00     0.04  -0.01   0.05
  13   1    -0.13   0.06   0.02    -0.03   0.01   0.00    -0.08   0.01   0.03
  14   1     0.17  -0.04  -0.01    -0.00  -0.00   0.00    -0.60   0.15   0.13
  15   1     0.07  -0.12   0.07    -0.01   0.01  -0.01    -0.27   0.44  -0.38
                     25                     26                     27
                        a                      a                      a 
 Frequencies --  1422.0254              1426.9265              1480.0925
 Red. masses --     1.6234                 1.6649                 1.8455
 Frc consts  --     0.0000                 0.0000                 0.0000
 IR Inten    --    88.7709                74.8469                 9.5994
 Raman Activ --     0.0000                 0.0000                 0.0000
 Depolar     --     0.0000                 0.0000                 0.0000
 Atom AN      X      Y      Z        X      Y      Z        X      Y      Z
   1   7     0.04  -0.21   0.05     0.08   0.06   0.19    -0.01  -0.00  -0.01
   2   6     0.01  -0.03   0.01     0.06   0.02   0.04     0.01  -0.05  -0.27
   3   6    -0.00   0.00  -0.00    -0.04  -0.01  -0.02     0.01   0.01   0.04
   4   6     0.00   0.00  -0.00     0.01   0.00   0.00     0.00  -0.00   0.00
   5   6    -0.00   0.00  -0.00     0.01  -0.01   0.00    -0.00   0.00  -0.00
   6   1    -0.15   0.71  -0.13    -0.15  -0.01   0.22     0.02  -0.00  -0.02
   7   1    -0.41  -0.03  -0.22    -0.13   0.26  -0.58     0.04   0.02  -0.04
   8   1     0.37   0.18   0.16    -0.01  -0.49  -0.45     0.04  -0.02  -0.03
   9   1    -0.03   0.00   0.02    -0.06  -0.03  -0.01    -0.15   0.48   0.44
  10   1     0.02   0.00  -0.02    -0.07  -0.00  -0.01     0.00  -0.31   0.60
  11   1    -0.01  -0.00   0.00     0.03   0.03   0.02     0.01  -0.06  -0.06
  12   1     0.01  -0.00   0.00     0.02  -0.01   0.03    -0.01   0.03  -0.07
  13   1     0.00  -0.00  -0.00    -0.01   0.00   0.00    -0.00  -0.00   0.00
  14   1    -0.00   0.00   0.00    -0.01   0.00   0.00    -0.00  -0.00  -0.00
  15   1    -0.00   0.00  -0.00    -0.01   0.01  -0.01    -0.00   0.00  -0.00
                     28                     29                     30
                        a                      a                      a 
 Frequencies --  1493.6296              1723.1004              2938.2882
 Red. masses --     1.9938                11.3081                 1.9047
 Frc consts  --     0.0000                 0.0000                 0.0000
 IR Inten    --     8.5425                 5.2650                14.9325
 Raman Activ --     0.0000                 0.0000                 0.0000
 Depolar     --     0.0000                 0.0000                 0.0000
 Atom AN      X      Y      Z        X      Y      Z        X      Y      Z
   1   7     0.01   0.00   0.01    -0.00  -0.00   0.00    -0.00   0.00  -0.00
   2   6    -0.04   0.00   0.05     0.02  -0.00  -0.00     0.02  -0.07   0.01
   3   6    -0.02   0.06   0.28     0.08  -0.03  -0.02    -0.05   0.27  -0.00
   4   6     0.02   0.01  -0.01    -0.62   0.35  -0.09    -0.01   0.00   0.00
   5   6     0.02  -0.01   0.01     0.52  -0.35   0.15     0.00  -0.00   0.00
   6   1    -0.00   0.00   0.01     0.00   0.00  -0.00     0.00   0.00   0.00
   7   1    -0.01   0.01  -0.03     0.00  -0.00   0.00     0.00  -0.01  -0.00
   8   1     0.00  -0.03  -0.02     0.00   0.00   0.00    -0.00  -0.00   0.01
   9   1     0.05  -0.05  -0.05    -0.01   0.00   0.00    -0.02   0.10  -0.12
  10   1     0.03   0.05  -0.07    -0.01  -0.00  -0.00    -0.04   0.18   0.10
  11   1     0.09  -0.50  -0.44    -0.05   0.00   0.01     0.04  -0.29   0.36
  12   1    -0.06   0.29  -0.59     0.05   0.02  -0.02     0.14  -0.70  -0.35
  13   1    -0.01  -0.01  -0.01     0.08   0.03  -0.08     0.00   0.01  -0.02
  14   1    -0.04   0.00   0.00    -0.10  -0.04   0.10     0.00   0.00  -0.00
  15   1    -0.01   0.03  -0.02     0.05   0.07  -0.12     0.00  -0.00  -0.00
                     31                     32                     33
                        a                      a                      a 
 Frequencies --  2964.5677              2971.4912              2987.9143
 Red. masses --     1.9480                 1.5669                 1.5350
 Frc consts  --     0.0000                 0.0000                 0.0000
 IR Inten    --     5.3573                13.4796                10.3000
 Raman Activ --     0.0000                 0.0000                 0.0000
 Depolar     --     0.0000                 0.0000                 0.0000
 Atom AN      X      Y      Z        X      Y      Z        X      Y      Z
   1   7     0.00   0.00   0.00     0.00   0.00   0.00     0.00   0.00   0.00
   2   6     0.05  -0.27   0.06    -0.02   0.09   0.05     0.02  -0.02  -0.20
   3   6     0.01  -0.07  -0.05    -0.00   0.06  -0.19    -0.00   0.00  -0.07
   4   6     0.00  -0.00  -0.00     0.00  -0.00   0.00     0.00  -0.00   0.00
   5   6    -0.00   0.00  -0.00    -0.00  -0.00   0.00    -0.00  -0.00   0.00
   6   1    -0.00   0.00  -0.00    -0.00  -0.00  -0.00    -0.00  -0.00  -0.00
   7   1     0.00  -0.01  -0.01    -0.00   0.01   0.00     0.00  -0.01  -0.01
   8   1     0.00  -0.01   0.01    -0.00  -0.00   0.00    -0.00   0.01  -0.01
   9   1    -0.07   0.44  -0.50    -0.01   0.04  -0.03     0.07  -0.47   0.48
  10   1    -0.12   0.50   0.27     0.08  -0.35  -0.17    -0.13   0.56   0.25
  11   1     0.01  -0.07   0.06     0.08  -0.55   0.58     0.03  -0.18   0.19
  12   1    -0.06   0.31   0.14    -0.07   0.35   0.13    -0.03   0.17   0.07
  13   1     0.00  -0.00   0.00     0.00   0.02  -0.03     0.00   0.02  -0.02
  14   1    -0.00   0.00  -0.00     0.00   0.00  -0.00     0.00   0.00  -0.00
  15   1     0.00  -0.00  -0.00     0.01   0.00  -0.00    -0.00  -0.00   0.00
                     34                     35                     36
                        a                      a                      a 
 Frequencies --  3095.7443              3152.8840              3186.9456
 Red. masses --     1.8201                 1.5336                 2.1143
 Frc consts  --     0.0000                 0.0000                 0.0000
 IR Inten    --    20.4276                 3.5592                18.9232
 Raman Activ --     0.0000                 0.0000                 0.0000
 Depolar     --     0.0000                 0.0000                 0.0000
 Atom AN      X      Y      Z        X      Y      Z        X      Y      Z
   1   7     0.00  -0.00   0.00    -0.00  -0.00  -0.00     0.00   0.00  -0.00
   2   6    -0.00   0.00  -0.00     0.00   0.00   0.00    -0.00   0.00  -0.00
   3   6    -0.00   0.01  -0.01    -0.00   0.00   0.00     0.00  -0.00   0.00
   4   6     0.00   0.18  -0.21    -0.01   0.01  -0.00    -0.01  -0.02   0.03
   5   6    -0.01  -0.02   0.02     0.19  -0.11   0.03    -0.15  -0.14   0.24
   6   1     0.00  -0.00   0.00     0.00   0.00   0.00    -0.00  -0.00  -0.00
   7   1     0.00  -0.00  -0.00    -0.00  -0.00  -0.00     0.00   0.00   0.00
   8   1    -0.00   0.00  -0.00    -0.00   0.00  -0.00     0.00  -0.00   0.00
   9   1     0.00  -0.01   0.01    -0.00   0.00  -0.00    -0.00   0.00  -0.00
  10   1    -0.00   0.00   0.00     0.00  -0.00  -0.00     0.00  -0.00   0.00
  11   1     0.00  -0.03   0.03     0.00  -0.00  -0.00     0.00   0.01  -0.01
  12   1    -0.00   0.00  -0.00    -0.00   0.00   0.00    -0.00  -0.00   0.00
  13   1    -0.04  -0.61   0.73     0.00  -0.00   0.00     0.01   0.06  -0.07
  14   1    -0.00   0.05  -0.05     0.02   0.41  -0.50    -0.01   0.46  -0.54
  15   1     0.06   0.00  -0.03    -0.62  -0.07   0.39     0.54   0.04  -0.31
                     37                     38                     39
                        a                      a                      a 
 Frequencies --  3284.9833              3287.2112              3300.1609
 Red. masses --     2.0411                 2.0504                 1.2729
 Frc consts  --     0.0000                 0.0000                 0.0000
 IR Inten    --    84.4684                87.3989                27.5267
 Raman Activ --     0.0000                 0.0000                 0.0000
 Depolar     --     0.0000                 0.0000                 0.0000
 Atom AN      X      Y      Z        X      Y      Z        X      Y      Z
   1   7     0.14   0.10   0.22    -0.07   0.27  -0.07    -0.10  -0.01   0.10
   2   6     0.00   0.00   0.01    -0.00   0.01  -0.00    -0.01  -0.00   0.01
   3   6    -0.00  -0.00  -0.00     0.00  -0.00   0.00     0.00  -0.00  -0.00
   4   6     0.00  -0.00   0.00     0.00   0.00  -0.00     0.00  -0.00   0.00
   5   6     0.00   0.00  -0.00    -0.00  -0.00   0.00    -0.00   0.00   0.00
   6   1    -0.62  -0.22  -0.52     0.07   0.05   0.06     0.34   0.12   0.30
   7   1     0.10  -0.34  -0.14     0.15  -0.59  -0.29     0.12  -0.52  -0.23
   8   1    -0.01   0.19  -0.17     0.06  -0.45   0.49    -0.07   0.45  -0.46
   9   1    -0.00   0.00  -0.01     0.00  -0.01   0.01    -0.00   0.01  -0.01
  10   1     0.00  -0.01  -0.00     0.00  -0.01  -0.00     0.00  -0.01  -0.00
  11   1    -0.00   0.00  -0.00     0.00   0.00  -0.00    -0.00  -0.00   0.00
  12   1    -0.00  -0.00  -0.00    -0.00   0.00   0.00    -0.00   0.00   0.00
  13   1     0.00   0.00  -0.00    -0.00  -0.00   0.00     0.00   0.00  -0.00
  14   1    -0.00   0.00  -0.00     0.00  -0.00   0.00    -0.00  -0.00   0.00
  15   1    -0.00  -0.00   0.00     0.00  -0.00  -0.00     0.00  -0.00  -0.00
