      -----------------------------------------------------------      
     |                   =====================                   |     
     |                           x T B                           |     
     |                   =====================                   |     
     |                         S. Grimme                         |     
     |          Mulliken Center for Theoretical Chemistry        |     
     |                    University of Bonn                     |     
      -----------------------------------------------------------      

   * xtb version 6.5.1 (fef0646) compiled by 'conda@b96dff2e9fd6' on 2023-01-04

   xtb is free software: you can redistribute it and/or modify it under
   the terms of the GNU Lesser General Public License as published by
   the Free Software Foundation, either version 3 of the License, or
   (at your option) any later version.
   
   xtb is distributed in the hope that it will be useful,
   but WITHOUT ANY WARRANTY; without even the implied warranty of
   MERCHANTABILITY or FITNESS FOR A PARTICULAR PURPOSE.  See the
   GNU Lesser General Public License for more details.
   
   Cite this work as:
   * C. Bannwarth, E. Caldeweyher, S. Ehlert, A. Hansen, P. Pracht,
     J. Seibert, S. Spicher, S. Grimme, WIREs Comput. Mol. Sci., 2020, 11,
     e01493. DOI: 10.1002/wcms.1493
   
   for GFN2-xTB:
   * C. Bannwarth, S. Ehlert and S. Grimme., J. Chem. Theory Comput., 2019,
     15, 1652-1671. DOI: 10.1021/acs.jctc.8b01176
   for GFN1-xTB:
   * S. Grimme, C. Bannwarth, P. Shushkov, J. Chem. Theory Comput., 2017,
     13, 1989-2009. DOI: 10.1021/acs.jctc.7b00118
   for GFN0-xTB:
   * P. Pracht, E. Caldeweyher, S. Ehlert, S. Grimme, ChemRxiv, 2019, preprint.
     DOI: 10.26434/chemrxiv.8326202.v1
   for GFN-FF:
   * S. Spicher and S. Grimme, Angew. Chem. Int. Ed., 2020, 59, 15665-15673.
     DOI: 10.1002/anie.202004239
   
   for ALPB and GBSA implicit solvation:
   * S. Ehlert, M. Stahn, S. Spicher, S. Grimme, J. Chem. Theory Comput.,
     2021, 17, 4250-4261. DOI: 10.1021/acs.jctc.1c00471
   
   for DFT-D4:
   * E. Caldeweyher, C. Bannwarth and S. Grimme, J. Chem. Phys., 2017,
     147, 034112. DOI: 10.1063/1.4993215
   * E. Caldeweyher, S. Ehlert, A. Hansen, H. Neugebauer, S. Spicher,
     C. Bannwarth and S. Grimme, J. Chem. Phys., 2019, 150, 154122.
     DOI: 10.1063/1.5090222
   * E. Caldeweyher, J.-M. Mewes, S. Ehlert and S. Grimme, Phys. Chem. Chem. Phys.
     2020, 22, 8499-8512. DOI: 10.1039/D0CP00502A
   
   for sTDA-xTB:
   * S. Grimme and C. Bannwarth, J. Chem. Phys., 2016, 145, 054103.
     DOI: 10.1063/1.4959605
   
   in the mass-spec context:
   * V. Asgeirsson, C. Bauer and S. Grimme, Chem. Sci., 2017, 8, 4879.
     DOI: 10.1039/c7sc00601b
   * J. Koopman and S. Grimme, ACS Omega 2019, 4, 12, 15120-15133.
     DOI: 10.1021/acsomega.9b02011
   
   for metadynamics refer to:
   * S. Grimme, J. Chem. Theory Comput., 2019, 155, 2847-2862
     DOI: 10.1021/acs.jctc.9b00143
   
   for SPH calculations refer to:
   * S. Spicher and S. Grimme, J. Chem. Theory Comput., 2021, 17, 1701-1714
     DOI: 10.1021/acs.jctc.0c01306
   
   with help from (in alphabetical order)
   P. Atkinson, C. Bannwarth, F. Bohle, G. Brandenburg, E. Caldeweyher
   M. Checinski, S. Dohm, S. Ehlert, S. Ehrlich, I. Gerasimov, C. Hölzer
   A. Katbashev, J. Koopman, C. Lavigne, S. Lehtola, F. März, M. Müller,
   F. Musil, H. Neugebauer, J. Pisarek, C. Plett, P. Pracht, F. Pultar,
   J. Seibert, P. Shushkov, S. Spicher, M. Stahn, M. Steiner, T. Strunk,
   J. Stückrath, T. Rose, and J. Unsleber
   
 * started run on 2023/01/23 at 20:02:42.221     

           -------------------------------------------------
          |                Calculation Setup                |
           -------------------------------------------------

          program call               : xtb init.xyz --opt -c 0 -u 0 -P 16 --input xtb.inp
          hostname                   : gpg-woodward
          coordinate file            : init.xyz
          omp threads                :                    16

   ID    Z sym.   atoms
    1    7 N      1
    2    6 C      2-6
    3    8 O      7, 8
    4   17 Cl     9
    5    1 H      10-21

molecular fragmentation (1/2 indicates fragments):
111111112111111111111
# atoms in fragment 1/2:    20     1
 fragment masses (1/2) :      118.15       35.45
CMA distance (Bohr)    :   9.685
constraining FC (au)   :  0.0500

           -------------------------------------------------
          |                 G F N 2 - x T B                 |
           -------------------------------------------------

        Reference                      10.1021/acs.jctc.8b01176
      * Hamiltonian:
        H0-scaling (s, p, d)           1.850000    2.230000    2.230000
        zeta-weighting                 0.500000
      * Dispersion:
        s8                             2.700000
        a1                             0.520000
        a2                             5.000000
        s9                             5.000000
      * Repulsion:
        kExp                           1.500000    1.000000
        rExp                           1.000000
      * Coulomb:
        alpha                          2.000000
        third order                    shell-resolved
        anisotropic                    true
        a3                             3.000000
        a5                             4.000000
        cn-shift                       1.200000
        cn-exp                         4.000000
        max-rad                        5.000000


          ...................................................
          :                      SETUP                      :
          :.................................................:
          :  # basis functions                  54          :
          :  # atomic orbitals                  53          :
          :  # shells                           31          :
          :  # electrons                        56          :
          :  max. iterations                   250          :
          :  Hamiltonian                  GFN2-xTB          :
          :  restarted?                      false          :
          :  GBSA solvation                  false          :
          :  PC potential                    false          :
          :  electronic temp.          300.0000000     K    :
          :  accuracy                    1.0000000          :
          :  -> integral cutoff          0.2500000E+02      :
          :  -> integral neglect         0.1000000E-07      :
          :  -> SCF convergence          0.1000000E-05 Eh   :
          :  -> wf. convergence          0.1000000E-03 e    :
          :  Broyden damping             0.4000000          :
          ...................................................

 iter      E             dE          RMSdq      gap      omega  full diag
   1    -32.5545818 -0.325546E+02  0.441E+00    5.50       0.0  T
   2    -32.7001739 -0.145592E+00  0.229E+00    3.78       1.0  T
   3    -32.7067811 -0.660721E-02  0.140E+00    3.41       1.0  T
   4    -32.7088488 -0.206765E-02  0.527E-01    2.56       1.0  T
   5    -32.7107564 -0.190761E-02  0.275E-01    2.55       1.0  T
   6    -32.7112327 -0.476285E-03  0.123E-01    2.56       1.0  T
   7    -32.7113329 -0.100229E-03  0.675E-02    2.57       1.0  T
   8    -32.7113650 -0.320604E-04  0.152E-02    2.56       1.4  T
   9    -32.7113659 -0.960203E-06  0.685E-03    2.56       3.2  T
  10    -32.7113661 -0.190611E-06  0.289E-03    2.56       7.6  T
  11    -32.7113662 -0.598261E-07  0.815E-04    2.56      26.8  T
  12    -32.7113662 -0.178684E-08  0.292E-04    2.56      74.7  T

   *** convergence criteria satisfied after 12 iterations ***

         #    Occupation            Energy/Eh            Energy/eV
      -------------------------------------------------------------
         1        2.0000           -0.9592180             -26.1017
       ...           ...                  ...                  ...
        22        2.0000           -0.4848260             -13.1928
        23        2.0000           -0.4741267             -12.9016
        24        2.0000           -0.4653793             -12.6636
        25        2.0000           -0.4308217             -11.7233
        26        2.0000           -0.3594150              -9.7802
        27        2.0000           -0.3481089              -9.4725
        28        2.0000           -0.3477997              -9.4641 (HOMO)
        29                         -0.2538484              -6.9076 (LUMO)
        30                         -0.0899139              -2.4467
        31                          0.0162910               0.4433
        32                          0.0349562               0.9512
        33                          0.0404630               1.1011
       ...                                ...                  ...
        53                          0.5669409              15.4272
      -------------------------------------------------------------
                  HL-Gap            0.0939514 Eh            2.5565 eV
             Fermi-level           -0.3008241 Eh           -8.1858 eV

 SCC (total)                   0 d,  0 h,  0 min,  0.048 sec
 SCC setup                      ...        0 min,  0.001 sec (  1.502%)
 Dispersion                     ...        0 min,  0.001 sec (  1.427%)
 classical contributions        ...        0 min,  0.000 sec (  0.770%)
 integral evaluation            ...        0 min,  0.002 sec (  4.413%)
 iterations                     ...        0 min,  0.039 sec ( 82.066%)
 molecular gradient             ...        0 min,  0.004 sec (  9.081%)
 printout                       ...        0 min,  0.000 sec (  0.397%)

         :::::::::::::::::::::::::::::::::::::::::::::::::::::
         ::                     SUMMARY                     ::
         :::::::::::::::::::::::::::::::::::::::::::::::::::::
         :: total energy             -32.409540263448 Eh    ::
         :: gradient norm              0.074683373060 Eh/a0 ::
         :: HOMO-LUMO gap              2.556547081126 eV    ::
         ::.................................................::
         :: SCC energy               -32.711366169222 Eh    ::
         :: -> isotropic ES            0.136507923912 Eh    ::
         :: -> anisotropic ES         -0.019644815320 Eh    ::
         :: -> anisotropic XC         -0.001771758396 Eh    ::
         :: -> dispersion             -0.012793538612 Eh    ::
         :: repulsion energy           0.301797621017 Eh    ::
         :: add. restraining           0.000000000000 Eh    ::
         :: total charge               0.000000000000 e     ::
         :::::::::::::::::::::::::::::::::::::::::::::::::::::

      ----------------------------------------------------------- 
     |                   =====================                   |
     |                        A N C O P T                        |
     |                   =====================                   |
     |               Approximate Normal Coordinate               |
     |                Rational Function Optimizer                |
      ----------------------------------------------------------- 

          ...................................................
          :                      SETUP                      :
          :.................................................:
          :   optimization level            normal          :
          :   max. optcycles                   200          :
          :   ANC micro-cycles                  20          :
          :   degrees of freedom                57          :
          :.................................................:
          :   RF solver                   davidson          :
          :   write xtbopt.log                true          :
          :   linear?                        false          :
          :   energy convergence         0.5000000E-05 Eh   :
          :   grad. convergence          0.1000000E-02 Eh/α :
          :   maximium RF displ.         1.0000000          :
          :   Hlow (freq-cutoff)         0.1000000E-01      :
          :   Hmax (freq-cutoff)         5.0000000          :
          :   S6 in model hess.         20.0000000          :
          ...................................................

generating ANC from model Hessian ...
Using Lindh-Hessian (1995)
 Shifting diagonal of input Hessian by    9.7786784693723316E-003
 Lowest  eigenvalues of input Hessian
    0.000000    0.000000    0.000000    0.000000    0.000000    0.000000
    0.010000    0.010726    0.011808    0.012141    0.013467    0.016959
    0.018973    0.020806    0.023505    0.024923    0.035487    0.043186
 Highest eigenvalues
    1.281711    1.320580    1.442790    1.558107    1.701626    2.254732


........................................................................
.............................. CYCLE    1 ..............................
........................................................................
   1    -32.7113662 -0.327114E+02  0.137E-04    2.56       0.0  T
   2    -32.7113662 -0.337437E-10  0.102E-04    2.56     213.5  T
   3    -32.7113662 -0.456382E-10  0.441E-05    2.56     495.3  T
     SCC iter.                  ...        0 min,  0.009 sec
     gradient                   ...        0 min,  0.004 sec
 * total energy  :   -32.4095403 Eh     change       -0.3654108E-09 Eh
   gradient norm :     0.0746797 Eh/α   predicted     0.0000000E+00 (-100.00%)
   displ. norm   :     0.2675126 α      lambda       -0.1165119E-01
   maximum displ.:     0.1099031 α      in ANC's #13, #35, #38, ...

........................................................................
.............................. CYCLE    2 ..............................
........................................................................
   1    -32.7256672 -0.327257E+02  0.297E-01    2.95       0.0  T
   2    -32.7259169 -0.249753E-03  0.180E-01    2.98       1.0  T
   3    -32.7259381 -0.211386E-04  0.647E-02    3.04       1.0  T
   4    -32.7259456 -0.754912E-05  0.277E-02    3.06       1.0  T
   5    -32.7259486 -0.293923E-05  0.211E-02    3.07       1.0  T
   6    -32.7259514 -0.280733E-05  0.111E-02    3.06       2.0  T
   7    -32.7259523 -0.968370E-06  0.575E-03    3.07       3.8  T
   8    -32.7259526 -0.295522E-06  0.111E-03    3.07      19.6  T
   9    -32.7259526 -0.439346E-08  0.505E-04    3.07      43.2  T
  10    -32.7259526 -0.587285E-09  0.153E-04    3.07     143.0  T
     SCC iter.                  ...        0 min,  0.024 sec
     gradient                   ...        0 min,  0.004 sec
 * total energy  :   -32.4173259 Eh     change       -0.7785622E-02 Eh
   gradient norm :     0.0443088 Eh/α   predicted    -0.6244801E-02 ( -19.79%)
   displ. norm   :     0.2789216 α      lambda       -0.5807926E-02
   maximum displ.:     0.1410006 α      in ANC's #5, #3, #2, ...

........................................................................
.............................. CYCLE    3 ..............................
........................................................................
   1    -32.7325999 -0.327326E+02  0.219E-01    3.25       0.0  T
   2    -32.7327506 -0.150662E-03  0.132E-01    3.28       1.0  T
   3    -32.7327637 -0.131018E-04  0.451E-02    3.33       1.0  T
   4    -32.7327670 -0.328535E-05  0.184E-02    3.35       1.2  T
   5    -32.7327681 -0.115337E-05  0.138E-02    3.35       1.6  T
   6    -32.7327693 -0.119066E-05  0.718E-03    3.35       3.0  T
   7    -32.7327697 -0.355637E-06  0.403E-03    3.35       5.4  T
   8    -32.7327698 -0.149026E-06  0.949E-04    3.35      23.0  T
   9    -32.7327698 -0.377378E-08  0.539E-04    3.35      40.5  T
     SCC iter.                  ...        0 min,  0.019 sec
     gradient                   ...        0 min,  0.002 sec
 * total energy  :   -32.4212951 Eh     change       -0.3969261E-02 Eh
   gradient norm :     0.0383753 Eh/α   predicted    -0.3130054E-02 ( -21.14%)
   displ. norm   :     0.2905589 α      lambda       -0.3889344E-02
   maximum displ.:     0.1471043 α      in ANC's #5, #3, #2, ...

........................................................................
.............................. CYCLE    4 ..............................
........................................................................
   1    -32.7321539 -0.327322E+02  0.261E-01    3.36       0.0  T
   2    -32.7324416 -0.287691E-03  0.152E-01    3.46       1.0  T
   3    -32.7324692 -0.276217E-04  0.627E-02    3.55       1.0  T
   4    -32.7324775 -0.830992E-05  0.299E-02    3.59       1.0  T
   5    -32.7324808 -0.326134E-05  0.230E-02    3.59       1.0  T
   6    -32.7324849 -0.406220E-05  0.114E-02    3.59       1.9  T
   7    -32.7324860 -0.113624E-05  0.577E-03    3.59       3.8  T
   8    -32.7324863 -0.320642E-06  0.128E-03    3.59      17.1  T
   9    -32.7324863 -0.679623E-08  0.755E-04    3.59      28.9  T
  10    -32.7324863 -0.254141E-08  0.468E-04    3.59      46.6  T
     SCC iter.                  ...        0 min,  0.011 sec
     gradient                   ...        0 min,  0.002 sec
 * total energy  :   -32.4242108 Eh     change       -0.2915632E-02 Eh
   gradient norm :     0.0290450 Eh/α   predicted    -0.2108851E-02 ( -27.67%)
   displ. norm   :     0.3437410 α      lambda       -0.3706705E-02
   maximum displ.:     0.1523851 α      in ANC's #5, #3, #35, ...

........................................................................
.............................. CYCLE    5 ..............................
........................................................................
   1    -32.7321624 -0.327322E+02  0.335E-01    3.59       0.0  T
   2    -32.7326748 -0.512392E-03  0.189E-01    3.74       1.0  T
   3    -32.7327274 -0.525357E-04  0.802E-02    3.87       1.0  T
   4    -32.7327426 -0.152650E-04  0.394E-02    3.92       1.0  T
   5    -32.7327487 -0.606493E-05  0.301E-02    3.93       1.0  T
   6    -32.7327570 -0.829092E-05  0.144E-02    3.93       1.5  T
   7    -32.7327589 -0.195893E-05  0.708E-03    3.93       3.1  T
   8    -32.7327595 -0.557561E-06  0.199E-03    3.93      11.0  T
   9    -32.7327595 -0.168361E-07  0.123E-03    3.93      17.7  T
  10    -32.7327595 -0.712998E-08  0.750E-04    3.93      29.1  T
  11    -32.7327595 -0.377040E-08  0.296E-04    3.93      73.8  T
     SCC iter.                  ...        0 min,  0.012 sec
     gradient                   ...        0 min,  0.002 sec
 * total energy  :   -32.4269204 Eh     change       -0.2709667E-02 Eh
   gradient norm :     0.0200516 Eh/α   predicted    -0.2072345E-02 ( -23.52%)
   displ. norm   :     0.3644190 α      lambda       -0.3054993E-02
   maximum displ.:     0.1396777 α      in ANC's #3, #35, #5, ...

........................................................................
.............................. CYCLE    6 ..............................
........................................................................
   1    -32.7331726 -0.327332E+02  0.316E-01    3.96       0.0  T
   2    -32.7336473 -0.474727E-03  0.173E-01    4.10       1.0  T
   3    -32.7336906 -0.432888E-04  0.731E-02    4.23       1.0  T
   4    -32.7337003 -0.967578E-05  0.308E-02    4.28       1.0  T
   5    -32.7337037 -0.342816E-05  0.231E-02    4.29       1.0  T
   6    -32.7337078 -0.400893E-05  0.138E-02    4.29       1.6  T
   7    -32.7337095 -0.173897E-05  0.817E-03    4.29       2.7  T
   8    -32.7337103 -0.826140E-06  0.223E-03    4.29       9.8  T
   9    -32.7337103 -0.253733E-07  0.148E-03    4.29      14.8  T
  10    -32.7337104 -0.121279E-07  0.879E-04    4.29      24.8  T
  11    -32.7337104 -0.535905E-08  0.397E-04    4.29      55.0  T
     SCC iter.                  ...        0 min,  0.011 sec
     gradient                   ...        0 min,  0.002 sec
 * total energy  :   -32.4287347 Eh     change       -0.1814301E-02 Eh
   gradient norm :     0.0136281 Eh/α   predicted    -0.1730356E-02 (  -4.63%)
   displ. norm   :     0.1473505 α      lambda       -0.6835523E-03
   maximum displ.:     0.0615212 α      in ANC's #7, #1, #6, ...

........................................................................
.............................. CYCLE    7 ..............................
........................................................................
   1    -32.7356553 -0.327357E+02  0.106E-01    4.36       0.0  T
   2    -32.7357127 -0.573196E-04  0.588E-02    4.40       1.0  T
   3    -32.7357180 -0.529676E-05  0.280E-02    4.44       1.0  T
   4    -32.7357196 -0.167328E-05  0.131E-02    4.46       1.7  T
   5    -32.7357203 -0.696840E-06  0.103E-02    4.46       2.1  T
   6    -32.7357213 -0.973487E-06  0.553E-03    4.46       3.9  T
   7    -32.7357216 -0.344537E-06  0.285E-03    4.46       7.6  T
   8    -32.7357217 -0.101109E-06  0.692E-04    4.46      31.5  T
   9    -32.7357218 -0.223059E-08  0.390E-04    4.46      56.0  T
     SCC iter.                  ...        0 min,  0.009 sec
     gradient                   ...        0 min,  0.002 sec
 * total energy  :   -32.4291334 Eh     change       -0.3986567E-03 Eh
   gradient norm :     0.0068162 Eh/α   predicted    -0.3492120E-03 ( -12.40%)
   displ. norm   :     0.1350649 α      lambda       -0.4212074E-03
   maximum displ.:     0.0692011 α      in ANC's #1, #7, #13, ...

........................................................................
.............................. CYCLE    8 ..............................
........................................................................
   1    -32.7352202 -0.327352E+02  0.831E-02    4.48       0.0  T
   2    -32.7352270 -0.686158E-05  0.515E-02    4.46       1.0  T
   3    -32.7352303 -0.326217E-05  0.156E-02    4.45       1.4  T
   4    -32.7352313 -0.997424E-06  0.115E-02    4.45       1.9  T
   5    -32.7352321 -0.802206E-06  0.880E-03    4.45       2.5  T
   6    -32.7352328 -0.676611E-06  0.569E-03    4.45       3.8  T
   7    -32.7352332 -0.396767E-06  0.123E-03    4.45      17.7  T
   8    -32.7352332 -0.147718E-07  0.583E-04    4.45      37.4  T
   9    -32.7352332 -0.146519E-08  0.329E-04    4.45      66.3  T
     SCC iter.                  ...        0 min,  0.009 sec
     gradient                   ...        0 min,  0.003 sec
 * total energy  :   -32.4291977 Eh     change       -0.6428257E-04 Eh
   gradient norm :     0.0076438 Eh/α   predicted    -0.2144514E-03 ( 233.61%)
   displ. norm   :     0.0690970 α      lambda       -0.2526674E-03
   maximum displ.:     0.0448519 α      in ANC's #5, #3, #6, ...

........................................................................
.............................. CYCLE    9 ..............................
........................................................................
   1    -32.7355276 -0.327355E+02  0.544E-02    4.45       0.0  T
   2    -32.7355318 -0.415104E-05  0.331E-02    4.46       1.0  T
   3    -32.7355334 -0.163706E-05  0.122E-02    4.48       1.8  T
   4    -32.7355340 -0.588558E-06  0.880E-03    4.49       2.5  T
   5    -32.7355344 -0.409920E-06  0.668E-03    4.48       3.3  T
   6    -32.7355349 -0.495494E-06  0.278E-03    4.48       7.9  T
   7    -32.7355350 -0.747332E-07  0.104E-03    4.48      21.1  T
   8    -32.7355350 -0.765594E-08  0.612E-04    4.49      35.6  T
   9    -32.7355350 -0.232769E-08  0.402E-04    4.49      54.3  T
     SCC iter.                  ...        0 min,  0.009 sec
     gradient                   ...        0 min,  0.003 sec
 * total energy  :   -32.4293361 Eh     change       -0.1384105E-03 Eh
   gradient norm :     0.0022953 Eh/α   predicted    -0.1269389E-03 (  -8.29%)
   displ. norm   :     0.0440517 α      lambda       -0.3507428E-04
   maximum displ.:     0.0231450 α      in ANC's #6, #3, #5, ...

........................................................................
.............................. CYCLE   10 ..............................
........................................................................
   1    -32.7356042 -0.327356E+02  0.148E-02    4.48       0.0  T
   2    -32.7356046 -0.406465E-06  0.859E-03    4.48       2.5  T
   3    -32.7356046 -0.671351E-08  0.300E-03    4.48       7.3  T
   4    -32.7356047 -0.458274E-07  0.980E-04    4.48      22.3  T
   5    -32.7356047 -0.496243E-08  0.557E-04    4.48      39.2  T
     SCC iter.                  ...        0 min,  0.005 sec
     gradient                   ...        0 min,  0.002 sec
 * total energy  :   -32.4293658 Eh     change       -0.2967291E-04 Eh
   gradient norm :     0.0014775 Eh/α   predicted    -0.1757213E-04 ( -40.78%)
   displ. norm   :     0.2775388 α      lambda       -0.1058577E-03
   maximum displ.:     0.1561922 α      in ANC's #6, #1, #3, ...

........................................................................
.............................. CYCLE   11 ..............................
........................................................................
   1    -32.7349804 -0.327350E+02  0.792E-02    4.46       0.0  T
   2    -32.7349871 -0.668647E-05  0.461E-02    4.45       1.0  T
   3    -32.7349866  0.409491E-06  0.132E-02    4.44       1.6  T
   4    -32.7349880 -0.136364E-05  0.375E-03    4.44       5.8  T
   5    -32.7349881 -0.660999E-07  0.222E-03    4.44       9.8  T
   6    -32.7349881 -0.186239E-07  0.123E-03    4.44      17.8  T
   7    -32.7349881 -0.765328E-08  0.755E-04    4.44      28.9  T
   8    -32.7349881 -0.372103E-08  0.245E-04    4.44      89.1  T
     SCC iter.                  ...        0 min,  0.008 sec
     gradient                   ...        0 min,  0.002 sec
 * total energy  :   -32.4294520 Eh     change       -0.8622231E-04 Eh
   gradient norm :     0.0041806 Eh/α   predicted    -0.5474238E-04 ( -36.51%)
   displ. norm   :     0.1043412 α      lambda       -0.5039414E-04
   maximum displ.:     0.0617289 α      in ANC's #1, #6, #2, ...

........................................................................
.............................. CYCLE   12 ..............................
........................................................................
   1    -32.7351025 -0.327351E+02  0.287E-02    4.45       0.0  T
   2    -32.7351027 -0.288641E-06  0.170E-02    4.45       1.3  T
   3    -32.7351029 -0.107126E-06  0.273E-03    4.45       8.0  T
   4    -32.7351029 -0.201772E-07  0.192E-03    4.45      11.4  T
   5    -32.7351029 -0.157698E-07  0.118E-03    4.45      18.6  T
   6    -32.7351029 -0.852728E-08  0.570E-04    4.45      38.3  T
   7    -32.7351029 -0.179040E-08  0.185E-04    4.45     118.2  T
     SCC iter.                  ...        0 min,  0.007 sec
     gradient                   ...        0 min,  0.002 sec
 * total energy  :   -32.4294971 Eh     change       -0.4513260E-04 Eh
   gradient norm :     0.0036336 Eh/α   predicted    -0.2547222E-04 ( -43.56%)
   displ. norm   :     0.2841697 α      lambda       -0.1354195E-03
   maximum displ.:     0.1738241 α      in ANC's #6, #1, #2, ...

........................................................................
.............................. CYCLE   13 ..............................
........................................................................
   1    -32.7351896 -0.327352E+02  0.809E-02    4.47       0.0  T
   2    -32.7351918 -0.211605E-05  0.477E-02    4.47       1.0  T
   3    -32.7351925 -0.748317E-06  0.770E-03    4.48       2.8  T
   4    -32.7351927 -0.194726E-06  0.549E-03    4.47       4.0  T
   5    -32.7351928 -0.112069E-06  0.379E-03    4.47       5.8  T
   6    -32.7351929 -0.871529E-07  0.196E-03    4.47      11.1  T
   7    -32.7351929 -0.240732E-07  0.749E-04    4.47      29.1  T
   8    -32.7351929 -0.282565E-08  0.255E-04    4.47      85.7  T
     SCC iter.                  ...        0 min,  0.008 sec
     gradient                   ...        0 min,  0.002 sec
 * total energy  :   -32.4295884 Eh     change       -0.9130006E-04 Eh
   gradient norm :     0.0022336 Eh/α   predicted    -0.7318004E-04 ( -19.85%)
   displ. norm   :     0.1882085 α      lambda       -0.4413553E-04
   maximum displ.:     0.1194403 α      in ANC's #6, #1, #2, ...

........................................................................
.............................. CYCLE   14 ..............................
........................................................................
   1    -32.7352786 -0.327353E+02  0.529E-02    4.48       0.0  T
   2    -32.7352794 -0.729816E-06  0.311E-02    4.48       1.0  T
   3    -32.7352796 -0.266028E-06  0.435E-03    4.49       5.0  T
   4    -32.7352797 -0.584965E-07  0.310E-03    4.48       7.0  T
   5    -32.7352797 -0.350169E-07  0.208E-03    4.49      10.5  T
   6    -32.7352797 -0.255652E-07  0.111E-03    4.48      19.6  T
   7    -32.7352797 -0.767806E-08  0.456E-04    4.48      47.8  T
   8    -32.7352797 -0.104688E-08  0.149E-04    4.48     146.9  T
     SCC iter.                  ...        0 min,  0.008 sec
     gradient                   ...        0 min,  0.002 sec
 * total energy  :   -32.4296193 Eh     change       -0.3085926E-04 Eh
   gradient norm :     0.0024096 Eh/α   predicted    -0.2284997E-04 ( -25.95%)
   displ. norm   :     0.1504683 α      lambda       -0.3502412E-04
   maximum displ.:     0.0968401 α      in ANC's #6, #1, #2, ...

........................................................................
.............................. CYCLE   15 ..............................
........................................................................
   1    -32.7358608 -0.327359E+02  0.420E-02    4.49       0.0  T
   2    -32.7358612 -0.407400E-06  0.246E-02    4.49       1.0  T
   3    -32.7358613 -0.941705E-07  0.352E-03    4.50       6.2  T
   4    -32.7358614 -0.825806E-07  0.226E-03    4.49       9.7  T
   5    -32.7358614 -0.182403E-07  0.143E-03    4.49      15.3  T
   6    -32.7358614 -0.111019E-07  0.797E-04    4.49      27.4  T
   7    -32.7358614 -0.392159E-08  0.323E-04    4.49      67.7  T
     SCC iter.                  ...        0 min,  0.007 sec
     gradient                   ...        0 min,  0.002 sec
 * total energy  :   -32.4296461 Eh     change       -0.2677439E-04 Eh
   gradient norm :     0.0021037 Eh/α   predicted    -0.1791092E-04 ( -33.10%)
   displ. norm   :     0.1957488 α      lambda       -0.4397568E-04
   maximum displ.:     0.1259190 α      in ANC's #6, #1, #2, ...

........................................................................
.............................. CYCLE   16 ..............................
........................................................................
   1    -32.7360870 -0.327361E+02  0.552E-02    4.50       0.0  T
   2    -32.7360876 -0.551151E-06  0.324E-02    4.50       1.0  T
   3    -32.7360878 -0.232017E-06  0.374E-03    4.50       5.8  T
   4    -32.7360879 -0.445243E-07  0.265E-03    4.50       8.2  T
   5    -32.7360879 -0.273640E-07  0.160E-03    4.50      13.7  T
   6    -32.7360879 -0.136780E-07  0.952E-04    4.50      22.9  T
   7    -32.7360879 -0.578639E-08  0.355E-04    4.50      61.4  T
     SCC iter.                  ...        0 min,  0.007 sec
     gradient                   ...        0 min,  0.002 sec
 * total energy  :   -32.4296789 Eh     change       -0.3282863E-04 Eh
   gradient norm :     0.0017544 Eh/α   predicted    -0.2283166E-04 ( -30.45%)
   displ. norm   :     0.2747989 α      lambda       -0.4443729E-04
   maximum displ.:     0.1587191 α      in ANC's #6, #2, #1, ...

........................................................................
.............................. CYCLE   17 ..............................
........................................................................
   1    -32.7367399 -0.327367E+02  0.755E-02    4.52       0.0  T
   2    -32.7367419 -0.197389E-05  0.443E-02    4.51       1.0  T
   3    -32.7367423 -0.413408E-06  0.660E-03    4.51       3.3  T
   4    -32.7367425 -0.218687E-06  0.425E-03    4.50       5.1  T
   5    -32.7367426 -0.679613E-07  0.291E-03    4.50       7.5  T
   6    -32.7367427 -0.490941E-07  0.153E-03    4.50      14.3  T
   7    -32.7367427 -0.157400E-07  0.633E-04    4.50      34.5  T
   8    -32.7367427 -0.235668E-08  0.266E-04    4.50      82.0  T
     SCC iter.                  ...        0 min,  0.008 sec
     gradient                   ...        0 min,  0.002 sec
 * total energy  :   -32.4297190 Eh     change       -0.4012095E-04 Eh
   gradient norm :     0.0021620 Eh/α   predicted    -0.2296601E-04 ( -42.76%)
   displ. norm   :     0.1527550 α      lambda       -0.2768845E-04
   maximum displ.:     0.0925813 α      in ANC's #2, #6, #1, ...

........................................................................
.............................. CYCLE   18 ..............................
........................................................................
   1    -32.7357644 -0.327358E+02  0.423E-02    4.50       0.0  T
   2    -32.7357648 -0.415380E-06  0.250E-02    4.50       1.0  T
   3    -32.7357649 -0.122616E-06  0.394E-03    4.50       5.5  T
   4    -32.7357650 -0.932743E-07  0.270E-03    4.50       8.1  T
   5    -32.7357651 -0.298744E-07  0.170E-03    4.50      12.8  T
   6    -32.7357651 -0.173419E-07  0.934E-04    4.50      23.4  T
   7    -32.7357651 -0.589692E-08  0.296E-04    4.50      73.8  T
     SCC iter.                  ...        0 min,  0.007 sec
     gradient                   ...        0 min,  0.002 sec
 * total energy  :   -32.4297394 Eh     change       -0.2043446E-04 Eh
   gradient norm :     0.0019346 Eh/α   predicted    -0.1417219E-04 ( -30.65%)
   displ. norm   :     0.3851482 α      lambda       -0.7660785E-04
   maximum displ.:     0.3043607 α      in ANC's #2, #1, #13, ...

........................................................................
.............................. CYCLE   19 ..............................
........................................................................
   1    -32.7362091 -0.327362E+02  0.961E-02    4.54       0.0  T
   2    -32.7362132 -0.408067E-05  0.569E-02    4.53       1.0  T
   3    -32.7362144 -0.125278E-05  0.118E-02    4.53       1.8  T
   4    -32.7362150 -0.583398E-06  0.852E-03    4.53       2.6  T
   5    -32.7362153 -0.291304E-06  0.611E-03    4.53       3.6  T
   6    -32.7362156 -0.292105E-06  0.242E-03    4.52       9.0  T
   7    -32.7362157 -0.434734E-07  0.100E-03    4.52      21.8  T
   8    -32.7362157 -0.549602E-08  0.538E-04    4.52      40.6  T
   9    -32.7362157 -0.152740E-08  0.394E-04    4.52      55.4  T
     SCC iter.                  ...        0 min,  0.009 sec
     gradient                   ...        0 min,  0.002 sec
 * total energy  :   -32.4297734 Eh     change       -0.3392982E-04 Eh
   gradient norm :     0.0045082 Eh/α   predicted    -0.4083113E-04 (  20.34%)
   displ. norm   :     0.0589255 α      lambda       -0.3098507E-04
   maximum displ.:     0.0359929 α      in ANC's #2, #6, #5, ...

........................................................................
.............................. CYCLE   20 ..............................
........................................................................
   1    -32.7361277 -0.327361E+02  0.201E-02    4.52       0.0  T
   2    -32.7361283 -0.597918E-06  0.118E-02    4.52       1.8  T
   3    -32.7361283 -0.757496E-07  0.431E-03    4.52       5.1  T
   4    -32.7361284 -0.747780E-07  0.242E-03    4.53       9.0  T
   5    -32.7361284 -0.259258E-07  0.188E-03    4.53      11.6  T
   6    -32.7361285 -0.326180E-07  0.824E-04    4.53      26.5  T
   7    -32.7361285 -0.638858E-08  0.377E-04    4.53      57.8  T
     SCC iter.                  ...        0 min,  0.007 sec
     gradient                   ...        0 min,  0.002 sec
 * total energy  :   -32.4297947 Eh     change       -0.2136444E-04 Eh
   gradient norm :     0.0025346 Eh/α   predicted    -0.1554902E-04 ( -27.22%)
   displ. norm   :     0.0443294 α      lambda       -0.2257261E-04
   maximum displ.:     0.0269512 α      in ANC's #3, #1, #5, ...
 * RMSD in coord.:     0.5861121 α      energy gain  -0.2025447E-01 Eh

generating ANC from model Hessian ...
Using Lindh-Hessian (1995)
 Shifting diagonal of input Hessian by    9.6791415583946487E-003
 Lowest  eigenvalues of input Hessian
    0.000000    0.000000    0.000000    0.000000    0.000000    0.000000
    0.010000    0.010324    0.011594    0.011946    0.013476    0.015525
    0.017422    0.018949    0.021071    0.023211    0.029934    0.035547
 Highest eigenvalues
    1.264367    1.365604    1.379381    1.449693    1.744792    2.343546


........................................................................
.............................. CYCLE   21 ..............................
........................................................................
   1    -32.7358608 -0.327359E+02  0.140E-02    4.52       0.0  T
   2    -32.7358614 -0.508518E-06  0.793E-03    4.52       2.8  T
   3    -32.7358614 -0.206897E-07  0.362E-03    4.52       6.0  T
   4    -32.7358614 -0.429561E-07  0.139E-03    4.52      15.6  T
   5    -32.7358614 -0.870087E-08  0.102E-03    4.52      21.4  T
   6    -32.7358614 -0.634612E-08  0.433E-04    4.52      50.4  T
   7    -32.7358614 -0.117902E-08  0.181E-04    4.52     120.6  T
     SCC iter.                  ...        0 min,  0.007 sec
     gradient                   ...        0 min,  0.002 sec
 * total energy  :   -32.4298084 Eh     change       -0.1366540E-04 Eh
   gradient norm :     0.0008869 Eh/α   predicted     0.0000000E+00 (-100.00%)
   displ. norm   :     0.0261709 α      lambda       -0.6077055E-05
   maximum displ.:     0.0150335 α      in ANC's #2, #1, #7, ...

........................................................................
.............................. CYCLE   22 ..............................
........................................................................
   1    -32.7361311 -0.327361E+02  0.946E-03    4.52       0.0  T
   2    -32.7361311 -0.193709E-07  0.552E-03    4.52       4.0  T
   3    -32.7361311 -0.442800E-08  0.510E-04    4.52      42.8  T
   4    -32.7361311 -0.130635E-08  0.271E-04    4.52      80.6  T
     SCC iter.                  ...        0 min,  0.004 sec
     gradient                   ...        0 min,  0.002 sec
 * total energy  :   -32.4298155 Eh     change       -0.7122962E-05 Eh
   gradient norm :     0.0004411 Eh/α   predicted    -0.3047195E-05 ( -57.22%)
   displ. norm   :     0.0758797 α      lambda       -0.1208098E-04
   maximum displ.:     0.0429187 α      in ANC's #2, #1, #7, ...

........................................................................
.............................. CYCLE   23 ..............................
........................................................................
   1    -32.7363800 -0.327364E+02  0.268E-02    4.52       0.0  T
   2    -32.7363801 -0.931607E-07  0.158E-02    4.53       1.4  T
   3    -32.7363801 -0.455306E-07  0.168E-03    4.53      13.0  T
   4    -32.7363801 -0.100109E-07  0.120E-03    4.53      18.2  T
   5    -32.7363801 -0.538560E-08  0.671E-04    4.53      32.5  T
   6    -32.7363801 -0.240681E-08  0.380E-04    4.53      57.4  T
     SCC iter.                  ...        0 min,  0.006 sec
     gradient                   ...        0 min,  0.002 sec
 * total energy  :   -32.4298286 Eh     change       -0.1311274E-04 Eh
   gradient norm :     0.0012645 Eh/α   predicted    -0.6059979E-05 ( -53.79%)
   displ. norm   :     0.1327224 α      lambda       -0.1632868E-04
   maximum displ.:     0.0729668 α      in ANC's #2, #1, #7, ...

........................................................................
.............................. CYCLE   24 ..............................
........................................................................
   1    -32.7362961 -0.327363E+02  0.414E-02    4.53       0.0  T
   2    -32.7362964 -0.313975E-06  0.243E-02    4.53       1.0  T
   3    -32.7362965 -0.130187E-06  0.327E-03    4.53       6.7  T
   4    -32.7362966 -0.567414E-07  0.231E-03    4.53       9.4  T
   5    -32.7362966 -0.207050E-07  0.136E-03    4.53      16.0  T
   6    -32.7362966 -0.111016E-07  0.686E-04    4.53      31.8  T
   7    -32.7362966 -0.259683E-08  0.234E-04    4.53      93.2  T
     SCC iter.                  ...        0 min,  0.007 sec
     gradient                   ...        0 min,  0.002 sec
 * total energy  :   -32.4298425 Eh     change       -0.1385427E-04 Eh
   gradient norm :     0.0017301 Eh/α   predicted    -0.8228762E-05 ( -40.60%)
   displ. norm   :     0.1027015 α      lambda       -0.1206158E-04
   maximum displ.:     0.0585521 α      in ANC's #1, #2, #7, ...

........................................................................
.............................. CYCLE   25 ..............................
........................................................................
   1    -32.7361760 -0.327362E+02  0.326E-02    4.54       0.0  T
   2    -32.7361761 -0.115870E-06  0.192E-02    4.54       1.1  T
   3    -32.7361761 -0.634999E-07  0.195E-03    4.54      11.2  T
   4    -32.7361762 -0.106584E-07  0.142E-03    4.54      15.4  T
   5    -32.7361762 -0.838248E-08  0.838E-04    4.54      26.0  T
   6    -32.7361762 -0.407165E-08  0.464E-04    4.54      47.0  T
     SCC iter.                  ...        0 min,  0.006 sec
     gradient                   ...        0 min,  0.002 sec
 * total energy  :   -32.4298556 Eh     change       -0.1314320E-04 Eh
   gradient norm :     0.0011221 Eh/α   predicted    -0.6063261E-05 ( -53.87%)
   displ. norm   :     0.1084782 α      lambda       -0.1078816E-04
   maximum displ.:     0.0630529 α      in ANC's #1, #2, #7, ...

........................................................................
.............................. CYCLE   26 ..............................
........................................................................
   1    -32.7361601 -0.327362E+02  0.316E-02    4.55       0.0  T
   2    -32.7361603 -0.188193E-06  0.187E-02    4.55       1.2  T
   3    -32.7361603 -0.429260E-07  0.315E-03    4.55       6.9  T
   4    -32.7361604 -0.781495E-07  0.207E-03    4.55      10.6  T
   5    -32.7361604 -0.205970E-07  0.113E-03    4.55      19.4  T
   6    -32.7361605 -0.820911E-08  0.535E-04    4.55      40.8  T
   7    -32.7361605 -0.143936E-08  0.147E-04    4.55     148.0  T
     SCC iter.                  ...        0 min,  0.007 sec
     gradient                   ...        0 min,  0.002 sec
 * total energy  :   -32.4298672 Eh     change       -0.1156433E-04 Eh
   gradient norm :     0.0005569 Eh/α   predicted    -0.5423629E-05 ( -53.10%)
   displ. norm   :     0.0957921 α      lambda       -0.6420357E-05
   maximum displ.:     0.0576991 α      in ANC's #1, #2, #6, ...

........................................................................
.............................. CYCLE   27 ..............................
........................................................................
   1    -32.7360218 -0.327360E+02  0.259E-02    4.56       0.0  T
   2    -32.7360219 -0.113475E-06  0.152E-02    4.56       1.4  T
   3    -32.7360220 -0.453503E-07  0.217E-03    4.56      10.0  T
   4    -32.7360220 -0.265372E-07  0.157E-03    4.56      13.9  T
   5    -32.7360220 -0.112275E-07  0.900E-04    4.56      24.2  T
   6    -32.7360220 -0.520557E-08  0.452E-04    4.56      48.2  T
     SCC iter.                  ...        0 min,  0.006 sec
     gradient                   ...        0 min,  0.002 sec
 * total energy  :   -32.4298740 Eh     change       -0.6799616E-05 Eh
   gradient norm :     0.0006212 Eh/α   predicted    -0.3227393E-05 ( -52.54%)
   displ. norm   :     0.0719011 α      lambda       -0.4283488E-05
   maximum displ.:     0.0432341 α      in ANC's #2, #1, #3, ...

........................................................................
.............................. CYCLE   28 ..............................
........................................................................
   1    -32.7360766 -0.327361E+02  0.188E-02    4.56       0.0  T
   2    -32.7360766 -0.657797E-07  0.111E-02    4.56       2.0  T
   3    -32.7360767 -0.263866E-07  0.162E-03    4.56      13.5  T
   4    -32.7360767 -0.136015E-07  0.118E-03    4.56      18.5  T
   5    -32.7360767 -0.627255E-08  0.705E-04    4.56      31.0  T
   6    -32.7360767 -0.327350E-08  0.344E-04    4.56      63.4  T
     SCC iter.                  ...        0 min,  0.006 sec
     gradient                   ...        0 min,  0.002 sec
 * total energy  :   -32.4298788 Eh     change       -0.4790379E-05 Eh
   gradient norm :     0.0005821 Eh/α   predicted    -0.2147444E-05 ( -55.17%)
   displ. norm   :     0.1439387 α      lambda       -0.7138727E-05
   maximum displ.:     0.0950994 α      in ANC's #1, #2, #3, ...

   *** GEOMETRY OPTIMIZATION CONVERGED AFTER 28 ITERATIONS ***

------------------------------------------------------------------------
 total energy gain   :        -0.0203385 Eh      -12.7626 kcal/mol
 total RMSD          :         0.6299173 a0        0.3333 Å
 total power (kW/mol):        -1.9070998 (step) -138.1550 (real)
------------------------------------------------------------------------

 ANCopt (total)                0 d,  0 h,  0 min,  0.387 sec
 optimizer setup                ...        0 min,  0.000 sec (  0.032%)
 model hessian                  ...        0 min,  0.025 sec (  6.570%)
 ANC generation                 ...        0 min,  0.003 sec (  0.677%)
 coordinate transformation      ...        0 min,  0.000 sec (  0.109%)
 single point calculation       ...        0 min,  0.348 sec ( 90.007%)
 optimization log               ...        0 min,  0.003 sec (  0.759%)
 hessian update                 ...        0 min,  0.001 sec (  0.244%)
 rational function              ...        0 min,  0.004 sec (  1.012%)

================
 final structure:
================
21
 xtb: 6.5.1 (fef0646)
N            1.06767725947405       -0.10611987122797       -0.31427387546250
C            2.52479131883927       -0.11126902232035       -0.45130443487099
C            3.13310916359169       -1.05878740512701        0.58060699691491
C            4.65042699180934       -0.92227433643553        0.68938491909099
C            5.07047797801474        0.34381092958073        1.43247744528821
C            6.57885592116935        0.44426409533794        1.55688078760052
O            7.01045311559037        1.48035581501156        2.30307550728588
O            7.35561715532778       -0.30437537236177        1.04305380788158
Cl           0.54726199057939        1.01827800338106        2.33669773454380
H            0.63224538714448        0.48674959773701       -1.01199641240588
H            0.76147915588672        0.47618348087829        1.08832967369037
H            0.69307054750908       -1.04531199860146       -0.40285013063509
H            2.86135219626759        0.91182729576948       -0.27278021118822
H            2.84741930027481       -0.40645264058454       -1.45935363351724
H            2.88544768478051       -2.08539912250986        0.30308633901953
H            2.67650924951778       -0.85440525889789        1.54976753578382
H            5.10294506244597       -0.92312200375402       -0.30347810345512
H            5.05198475935948       -1.78184072278289        1.22755827046265
H            4.62718739673394        0.35212356377069        2.43218553404938
H            4.72137957514143        1.23569663051367        0.90493141526069
H            6.28693879054161        2.00269834262229        2.67382083466260

 Bond Distances (Angstroems)
 ---------------------------
N1-C2=1.4636         N1-H10=1.0139        N1-H12=1.0150        C2-N1=1.4636         C2-C3=1.5273         C2-H13=1.0917        
C2-H14=1.0988        C3-C2=1.5273         C3-C4=1.5273         C3-H15=1.0919        C3-H16=1.0907        C4-C3=1.5273         
C4-C5=1.5270         C4-H17=1.0911        C4-H18=1.0907        C5-C4=1.5270         C5-C6=1.5168         C5-H19=1.0936        
C5-H20=1.0935        C6-C5=1.5168         C6-O7=1.3478         C6-O8=1.1949         O7-C6=1.3478         O7-H21=0.9663        
O8-C6=1.1949         Cl9-H11=1.3777       H10-N1=1.0139        H11-Cl9=1.3777       H12-N1=1.0150        H13-C2=1.0917        
H14-C2=1.0988        H15-C3=1.0919        H16-C3=1.0907        H17-C4=1.0911        H18-C4=1.0907        H19-C5=1.0936        
H20-C5=1.0935        H21-O7=0.9663        
 C  H  Rav=1.0928 sigma=0.0025  Rmin=1.0907  Rmax=1.0988     8
 C  C  Rav=1.5246 sigma=0.0045  Rmin=1.5168  Rmax=1.5273     4
 N  H  Rav=1.0144 sigma=0.0006  Rmin=1.0139  Rmax=1.0150     2
 N  C  Rav=1.4636 sigma=0.0000  Rmin=1.4636  Rmax=1.4636     1
 O  H  Rav=0.9663 sigma=0.0000  Rmin=0.9663  Rmax=0.9663     1
 O  C  Rav=1.2714 sigma=0.0764  Rmin=1.1949  Rmax=1.3478     2
 Cl H  Rav=1.3777 sigma=0.0000  Rmin=1.3777  Rmax=1.3777     1

 selected bond angles (degree)
 --------------------
H10-N1-C2=111.42               H12-N1-C2=110.86               H12-N1-H10=108.82              C3-C2-N1=109.60                
H13-C2-N1=106.76               H13-C2-C3=110.37               H14-C2-N1=112.28               H14-C2-C3=109.65               
H14-C2-H13=108.13              C4-C3-C2=112.85                H15-C3-C2=108.74               H15-C3-C4=109.11               
H16-C3-C2=108.50               H16-C3-C4=109.63               H16-C3-H15=107.88              C5-C4-C3=112.46                
H17-C4-C3=110.31               H17-C4-C5=109.23               H18-C4-C3=109.30               H18-C4-C5=108.18               
H18-C4-H17=107.20              C6-C5-C4=111.62                H19-C5-C4=109.86               H19-C5-C6=109.12               
H20-C5-C4=110.71               H20-C5-C6=107.64               H20-C5-H19=107.78              O7-C6-C5=114.50                
O8-C6-C5=124.73                O8-C6-O7=120.77                H21-O7-C6=112.84               

 selected dihedral angles (degree)
 ---------------------------------
C3-C2-N1-H10=182.28           C3-C2-N1-H12=303.63           H13-C2-N1-H10= 62.73          H13-C2-N1-H12=184.08          
H14-C2-N1-H10=304.40          H14-C2-N1-H12= 65.74          C4-C3-C2-N1=191.12            C4-C3-C2-H13=308.42           
C4-C3-C2-H14= 67.44           H15-C3-C2-N1= 69.91           H15-C3-C2-H13=187.21          H15-C3-C2-H14=306.23          
H16-C3-C2-N1=312.81           H16-C3-C2-H13= 70.12          H16-C3-C2-H14=189.14          C5-C4-C3-C2= 74.72            
C5-C4-C3-H15=195.72           C5-C4-C3-H16=313.66           H17-C4-C3-C2=312.51           H17-C4-C3-H15= 73.50          
H17-C4-C3-H16=191.45          H18-C4-C3-C2=194.89           H18-C4-C3-H15=315.88          H18-C4-C3-H16= 73.83          
C6-C5-C4-C3=178.71            C6-C5-C4-H17=301.53           C6-C5-C4-H18= 57.90           H19-C5-C4-C3= 57.53           
H19-C5-C4-H17=180.35          H19-C5-C4-H18=296.72          H20-C5-C4-C3=298.60           H20-C5-C4-H17= 61.42          
H20-C5-C4-H18=177.79          O7-C6-C5-C4=185.45            O7-C6-C5-H19=307.05           O7-C6-C5-H20= 63.76           
O8-C6-C5-C4=  6.08            O8-C6-C5-H19=127.69           O8-C6-C5-H20=244.40           H21-O7-C6-C5=  1.47           
H21-O7-C6-O8=180.86           

 CMA Distance (Angstroems)
 ---------------------------
R(CMA):  4.4665
           -------------------------------------------------
          |                Final Singlepoint                |
           -------------------------------------------------

          ...................................................
          :                      SETUP                      :
          :.................................................:
          :  # basis functions                  54          :
          :  # atomic orbitals                  53          :
          :  # shells                           31          :
          :  # electrons                        56          :
          :  max. iterations                   250          :
          :  Hamiltonian                  GFN2-xTB          :
          :  restarted?                      false          :
          :  GBSA solvation                  false          :
          :  PC potential                    false          :
          :  electronic temp.          300.0000000     K    :
          :  accuracy                    1.0000000          :
          :  -> integral cutoff          0.2500000E+02      :
          :  -> integral neglect         0.1000000E-07      :
          :  -> SCF convergence          0.1000000E-05 Eh   :
          :  -> wf. convergence          0.1000000E-03 e    :
          :  Broyden damping             0.4000000          :
          ...................................................

 iter      E             dE          RMSdq      gap      omega  full diag
   1    -32.7360767 -0.327361E+02  0.141E-04    4.56       0.0  T
   2    -32.7360767 -0.384617E-10  0.102E-04    4.56     214.6  T
   3    -32.7360767 -0.353211E-10  0.564E-05    4.56     386.6  T

   *** convergence criteria satisfied after 3 iterations ***

         #    Occupation            Energy/Eh            Energy/eV
      -------------------------------------------------------------
         1        2.0000           -1.0258453             -27.9147
       ...           ...                  ...                  ...
        22        2.0000           -0.4705953             -12.8056
        23        2.0000           -0.4536514             -12.3445
        24        2.0000           -0.4483179             -12.1994
        25        2.0000           -0.4208415             -11.4517
        26        2.0000           -0.4081273             -11.1057
        27        2.0000           -0.4033688             -10.9762
        28        2.0000           -0.4030311             -10.9670 (HOMO)
        29                         -0.2355024              -6.4083 (LUMO)
        30                         -0.0655961              -1.7850
        31                          0.0008021               0.0218
        32                          0.0424169               1.1542
        33                          0.0580909               1.5807
       ...                                ...                  ...
        53                          0.6522203              17.7478
      -------------------------------------------------------------
                  HL-Gap            0.1675287 Eh            4.5587 eV
             Fermi-level           -0.3192668 Eh           -8.6877 eV

 SCC (total)                   0 d,  0 h,  0 min,  0.006 sec
 SCC setup                      ...        0 min,  0.000 sec (  1.588%)
 Dispersion                     ...        0 min,  0.000 sec (  2.072%)
 classical contributions        ...        0 min,  0.000 sec (  0.413%)
 integral evaluation            ...        0 min,  0.001 sec ( 13.532%)
 iterations                     ...        0 min,  0.003 sec ( 49.812%)
 molecular gradient             ...        0 min,  0.002 sec ( 29.634%)
 printout                       ...        0 min,  0.000 sec (  1.754%)

         :::::::::::::::::::::::::::::::::::::::::::::::::::::
         ::                     SUMMARY                     ::
         :::::::::::::::::::::::::::::::::::::::::::::::::::::
         :: total energy             -32.429878790728 Eh    ::
         :: gradient norm              0.000582292950 Eh/a0 ::
         :: HOMO-LUMO gap              4.558689163075 eV    ::
         ::.................................................::
         :: SCC energy               -32.736076684445 Eh    ::
         :: -> isotropic ES            0.075650281188 Eh    ::
         :: -> anisotropic ES         -0.003361901006 Eh    ::
         :: -> anisotropic XC          0.005337508505 Eh    ::
         :: -> dispersion             -0.013557749230 Eh    ::
         :: repulsion energy           0.306137024486 Eh    ::
         :: add. restraining           0.000000000000 Eh    ::
         :: total charge               0.000000000000 e     ::
         :::::::::::::::::::::::::::::::::::::::::::::::::::::

           -------------------------------------------------
          |                Property Printout                |
           -------------------------------------------------

    * Orbital Energies and Occupations

         #    Occupation            Energy/Eh            Energy/eV
      -------------------------------------------------------------
         1        2.0000           -1.0258453             -27.9147
       ...           ...                  ...                  ...
        16        2.0000           -0.5201184             -14.1531
        17        2.0000           -0.5132189             -13.9654
        18        2.0000           -0.5034958             -13.7008
        19        2.0000           -0.4899355             -13.3318
        20        2.0000           -0.4849872             -13.1972
        21        2.0000           -0.4772945             -12.9878
        22        2.0000           -0.4705953             -12.8056
        23        2.0000           -0.4536514             -12.3445
        24        2.0000           -0.4483179             -12.1994
        25        2.0000           -0.4208415             -11.4517
        26        2.0000           -0.4081273             -11.1057
        27        2.0000           -0.4033688             -10.9762
        28        2.0000           -0.4030311             -10.9670 (HOMO)
        29                         -0.2355024              -6.4083 (LUMO)
        30                         -0.0655961              -1.7850
        31                          0.0008021               0.0218
        32                          0.0424169               1.1542
        33                          0.0580909               1.5807
        34                          0.0587433               1.5985
        35                          0.0640763               1.7436
        36                          0.0643922               1.7522
        37                          0.0654148               1.7800
        38                          0.0748698               2.0373
        39                          0.0879826               2.3941
       ...                                ...                  ...
        53                          0.6522203              17.7478
      -------------------------------------------------------------
                  HL-Gap            0.1675287 Eh            4.5587 eV
             Fermi-level           -0.3192668 Eh           -8.6877 eV

     #   Z          covCN         q      C6AA      α(0)
     1   7 N        2.706    -0.304    27.833     7.836
     2   6 C        3.731     0.004    20.596     6.478
     3   6 C        3.804    -0.077    21.967     6.673
     4   6 C        3.803    -0.061    21.662     6.626
     5   6 C        3.802    -0.104    22.480     6.750
     6   6 C        2.688     0.357    20.945     7.490
     7   8 O        1.659    -0.375    20.373     6.093
     8   8 O        0.856    -0.364    20.984     6.142
     9  17 Cl       0.837    -0.492   115.373    16.432
    10   1 H        0.860     0.168     1.288     1.778
    11   1 H        0.911     0.333     0.620     1.232
    12   1 H        0.860     0.169     1.281     1.773
    13   1 H        0.924     0.053     2.279     2.361
    14   1 H        0.923     0.029     2.600     2.522
    15   1 H        0.924     0.043     2.409     2.427
    16   1 H        0.924     0.067     2.120     2.277
    17   1 H        0.924     0.054     2.274     2.358
    18   1 H        0.924     0.057     2.235     2.338
    19   1 H        0.924     0.063     2.160     2.298
    20   1 H        0.924     0.061     2.191     2.315
    21   1 H        0.805     0.320     0.665     1.280

 Mol. C6AA /au·bohr⁶  :       4110.845463
 Mol. C8AA /au·bohr⁸  :      98968.309660
 Mol. α(0) /au        :         95.476636


Wiberg/Mayer (AO) data.
largest (>0.10) Wiberg bond orders for each atom

 ---------------------------------------------------------------------------
     #   Z sym  total        # sym  WBO       # sym  WBO       # sym  WBO
 ---------------------------------------------------------------------------
     1   7 N    3.247 --     2 C    1.004    10 H    0.958    12 H    0.957
                            11 H    0.214
     2   6 C    3.973 --     3 C    1.007     1 N    1.004    14 H    0.973
                            13 H    0.971
     3   6 C    3.993 --     4 C    1.007     2 C    1.007    15 H    0.976
                            16 H    0.970
     4   6 C    3.993 --     5 C    1.008     3 C    1.007    18 H    0.975
                            17 H    0.975
     5   6 C    3.996 --     4 C    1.008     6 C    0.971    19 H    0.957
                            20 H    0.950
     6   6 C    3.917 --     8 O    1.802     7 O    1.110     5 C    0.971
     7   8 O    2.194 --     6 C    1.110    21 H    0.876     8 O    0.161
     8   8 O    2.078 --     6 C    1.802     7 O    0.161
     9  17 Cl   0.762 --    11 H    0.671
    10   1 H    0.972 --     1 N    0.958
    11   1 H    0.889 --     9 Cl   0.671     1 N    0.214
    12   1 H    0.972 --     1 N    0.957
    13   1 H    0.997 --     2 C    0.971
    14   1 H    0.999 --     2 C    0.973
    15   1 H    0.998 --     3 C    0.976
    16   1 H    0.996 --     3 C    0.970
    17   1 H    0.997 --     4 C    0.975
    18   1 H    0.996 --     4 C    0.975
    19   1 H    0.996 --     5 C    0.957
    20   1 H    0.996 --     5 C    0.950
    21   1 H    0.898 --     7 O    0.876
 ---------------------------------------------------------------------------

Topologies differ in total number of bonds
Writing topology from bond orders to xtbtopo.mol

molecular dipole:
                 x           y           z       tot (Debye)
 q only:       -0.810      -0.214      -1.279
   full:       -1.321       0.062      -1.115       4.396
molecular quadrupole (traceless):
                xx          xy          yy          xz          yz          zz
 q only:      -27.843       8.138      18.270       0.392      -1.542       9.573
  q+dip:      -40.887      10.709      22.130      -0.681       1.162      18.756
   full:      -40.742      10.840      21.991      -0.433       0.991      18.751

           -------------------------------------------------
          |                Geometry Summary                 |
           -------------------------------------------------

      molecular mass/u    :      153.6074191
   center of mass at/Å    :        3.6937787       0.2351467       1.2010946
  moments of inertia/u·Å² :        0.2725544E+03   0.1073532E+04   0.1272554E+04
rotational constants/cm⁻¹ :        0.6185052E-01   0.1570296E-01   0.1324709E-01

 * 17 selected distances

     #   Z          #   Z                                           value/Å
     1   7 N        2   6 C                                       1.4635524
     2   6 C        3   6 C                                       1.5273125
     3   6 C        4   6 C                                       1.5273252 (max)
     4   6 C        5   6 C                                       1.5269583
     6   6 C        7   8 O                                       1.3478016
     6   6 C        8   8 O                                       1.1949215
     1   7 N       10   1 H                                       1.0138600
     1   7 N       12   1 H                                       1.0150162
     2   6 C       13   1 H                                       1.0917282
     2   6 C       14   1 H                                       1.0988110
     3   6 C       15   1 H                                       1.0919184
     3   6 C       16   1 H                                       1.0906548
     4   6 C       17   1 H                                       1.0911235
     4   6 C       18   1 H                                       1.0907492
     5   6 C       19   1 H                                       1.0936142
     5   6 C       20   1 H                                       1.0934509
     7   8 O       21   1 H                                       0.9663162 (min)

 * 6 distinct bonds (by element types)

   Z      Z             #   av. dist./Å        max./Å        min./Å
   1 H    6 C           8     1.0927563     1.0988110     1.0906548
   6 C    6 C           3     1.5271987     1.5273252     1.5269583
   1 H    7 N           2     1.0144381     1.0150162     1.0138600
   6 C    7 N           1     1.4635524     1.4635524     1.4635524
   1 H    8 O           1     0.9663162     0.9663162     0.9663162
   6 C    8 O           2     1.2713616     1.3478016     1.1949215


optimized geometry written to: xtbopt.xyz


           -------------------------------------------------
          | TOTAL ENERGY              -32.429878790728 Eh   |
          | GRADIENT NORM               0.000582292950 Eh/α |
          | HOMO-LUMO GAP               4.558689163075 eV   |
           -------------------------------------------------

------------------------------------------------------------------------
 * finished run on 2023/01/23 at 20:02:42.701     
------------------------------------------------------------------------
 total:
 * wall-time:     0 d,  0 h,  0 min,  0.480 sec
 *  cpu-time:     0 d,  0 h,  0 min, 40.455 sec
 * ratio c/w:    84.195 speedup
 SCF:
 * wall-time:     0 d,  0 h,  0 min,  0.048 sec
 *  cpu-time:     0 d,  0 h,  0 min,  6.298 sec
 * ratio c/w:   131.003 speedup
 ANC optimizer:
 * wall-time:     0 d,  0 h,  0 min,  0.394 sec
 *  cpu-time:     0 d,  0 h,  0 min, 29.353 sec
 * ratio c/w:    74.469 speedup

