 Entering Gaussian System
 *********************************************
 Gaussian 98:
 frequency output generated by the xtb code
 *********************************************
                         Standard orientation:
 --------------------------------------------------------------------
  Center     Atomic     Atomic              Coordinates (Angstroms)
  Number     Number      Type              X           Y           Z
 --------------------------------------------------------------------
    1          7             0       -3.110814    0.570728    1.068900
    2          6             0       -1.877208    1.369112    1.302544
    3          6             0       -0.651144    0.704265    0.758211
    4          6             0       -0.579740    0.360982   -0.603389
    5          6             0        0.528315   -0.243395   -1.122302
    6          6             0        0.414658    0.419701    1.573348
    7          6             0        1.577813   -0.205576    1.071335
    8          6             0        1.636846   -0.542279   -0.300805
    9          6             0        2.800291   -1.167586   -0.802968
   10          6             0        3.852433   -1.443060    0.021829
   11          6             0        3.794319   -1.109628    1.380349
   12          6             0        2.684904   -0.504991    1.896862
   13         17             0       -3.586286    0.551635   -2.408529
   14          1             0       -3.943660    0.998883    1.506192
   15          1             0       -3.006957   -0.386352    1.451621
   16          1             0       -3.301808    0.479647    0.057661
   17          1             0       -1.752674    1.546813    2.377084
   18          1             0       -1.982255    2.361372    0.848213
   19          1             0       -1.425371    0.570905   -1.237676
   20          1             0        0.568100   -0.502807   -2.167511
   21          1             0        0.370083    0.676143    2.618328
   22          1             0        2.844966   -1.424498   -1.848528
   23          1             0        4.735609   -1.920706   -0.372553
   24          1             0        4.633391   -1.333181    2.020436
   25          1             0        2.640639   -0.248299    2.942621
 --------------------------------------------------------------------
     1 basis functions        1 primitive gaussians
     1 alpha electrons        1 beta electrons

 Harmonic frequencies (cm**-1), IR intensities (km*mol⁻¹),
 Raman scattering activities (A**4/amu), Raman depolarization ratios,
 reduced masses (AMU), force constants (mDyne/A) and normal coordinates:
                      1                      2                      3
                        a                      a                      a 
 Frequencies --  -133.6243                51.4123                74.3904
 Red. masses --    20.0588                15.0732                21.4427
 Frc consts  --     0.0000                 0.0000                 0.0000
 IR Inten    --   134.3109                 2.2291                21.5315
 Raman Activ --     0.0000                 0.0000                 0.0000
 Depolar     --     0.0000                 0.0000                 0.0000
 Atom AN      X      Y      Z        X      Y      Z        X      Y      Z
   1   7     0.08  -0.05   0.63    -0.08   0.06  -0.10    -0.03  -0.05  -0.07
   2   6     0.08   0.10   0.12    -0.00  -0.14   0.14    -0.08  -0.05   0.23
   3   6     0.01   0.03   0.05    -0.03  -0.16   0.11    -0.04   0.09   0.14
   4   6    -0.04   0.03   0.05    -0.12  -0.32   0.14    -0.12   0.13   0.13
   5   6    -0.05   0.02   0.03    -0.14  -0.34   0.13    -0.17   0.11   0.06
   6   6     0.02  -0.01   0.03     0.06   0.00   0.05     0.03   0.13   0.07
   7   6    -0.00  -0.02   0.01     0.06   0.02   0.02    -0.01   0.12  -0.02
   8   6    -0.03   0.01   0.00    -0.05  -0.17   0.07    -0.14   0.06  -0.01
   9   6    -0.03   0.03  -0.02    -0.04  -0.14   0.04    -0.24  -0.07  -0.08
  10   6    -0.02   0.01  -0.04     0.07   0.08  -0.03    -0.20  -0.14  -0.14
  11   6    -0.01  -0.03  -0.03     0.18   0.27  -0.07    -0.05  -0.03  -0.16
  12   6     0.00  -0.04  -0.00     0.17   0.24  -0.05     0.05   0.10  -0.10
  13  17    -0.02  -0.06  -0.62    -0.05   0.35  -0.26     0.63  -0.22  -0.02
  14   1     0.03   0.01   0.17    -0.01   0.01  -0.01    -0.04  -0.02  -0.06
  15   1     0.05   0.02   0.24    -0.05  -0.01  -0.09    -0.03  -0.02  -0.03
  16   1    -0.01  -0.10   0.20    -0.01   0.09  -0.04     0.06   0.00  -0.04
  17   1     0.08   0.10   0.02    -0.02  -0.10   0.05    -0.05  -0.08   0.08
  18   1    -0.02  -0.01  -0.03     0.04  -0.01   0.09    -0.02   0.02   0.13
  19   1    -0.01   0.01   0.02    -0.04  -0.11   0.04    -0.04   0.04   0.05
  20   1    -0.02   0.01   0.01    -0.06  -0.13   0.04    -0.07   0.03   0.02
  21   1     0.01  -0.00   0.01     0.04   0.04   0.01     0.03   0.04   0.02
  22   1    -0.01   0.02  -0.01    -0.04  -0.08   0.02    -0.10  -0.04  -0.02
  23   1    -0.01   0.01  -0.02     0.02   0.03  -0.02    -0.08  -0.07  -0.05
  24   1    -0.00  -0.01  -0.01     0.08   0.13  -0.04    -0.00  -0.02  -0.06
  25   1     0.00  -0.02   0.00     0.07   0.11  -0.02     0.05   0.05  -0.03
                      4                      5                      6
                        a                      a                      a 
 Frequencies --    93.7979               114.0164               157.3719
 Red. masses --    15.2705                16.9180                 9.8591
 Frc consts  --     0.0000                 0.0000                 0.0000
 IR Inten    --    20.2804                18.2389                 3.1929
 Raman Activ --     0.0000                 0.0000                 0.0000
 Depolar     --     0.0000                 0.0000                 0.0000
 Atom AN      X      Y      Z        X      Y      Z        X      Y      Z
   1   7     0.09  -0.33  -0.10    -0.03   0.38  -0.28    -0.07   0.07   0.02
   2   6    -0.04  -0.18   0.10     0.08   0.04   0.20    -0.01  -0.04   0.03
   3   6     0.08   0.10   0.02     0.06  -0.00   0.20    -0.03  -0.05  -0.00
   4   6     0.10   0.15   0.01     0.04   0.11   0.17    -0.18  -0.42   0.08
   5   6     0.11   0.17   0.00     0.02   0.14   0.10    -0.05  -0.13   0.02
   6   6     0.14   0.23  -0.01     0.06  -0.11   0.17     0.13   0.30  -0.09
   7   6     0.14   0.22  -0.01     0.05  -0.09   0.09     0.10   0.23  -0.06
   8   6     0.08   0.10   0.02     0.03   0.06   0.06     0.11   0.22  -0.06
   9   6    -0.04  -0.16   0.08     0.02   0.13  -0.05     0.15   0.32  -0.08
  10   6    -0.11  -0.33   0.11     0.05   0.05  -0.11    -0.00  -0.02   0.01
  11   6    -0.01  -0.12   0.06     0.07  -0.11  -0.07    -0.16  -0.35   0.08
  12   6     0.12   0.17  -0.00     0.07  -0.19   0.03    -0.04  -0.07   0.01
  13  17    -0.41   0.08  -0.17    -0.32  -0.31  -0.27     0.05   0.01   0.01
  14   1     0.01  -0.16   0.02    -0.02   0.14  -0.14    -0.01   0.03   0.01
  15   1     0.06  -0.11  -0.11    -0.10   0.09  -0.08    -0.04   0.01  -0.00
  16   1     0.00  -0.01  -0.03     0.06   0.11  -0.09    -0.02   0.03   0.00
  17   1    -0.03  -0.11   0.04    -0.02  -0.09   0.08     0.01  -0.03   0.01
  18   1    -0.05  -0.03   0.08     0.10   0.06   0.14     0.01  -0.00   0.03
  19   1     0.03   0.04   0.00     0.01   0.05   0.05    -0.09  -0.23   0.04
  20   1     0.03   0.05   0.00    -0.00   0.06   0.02    -0.03  -0.08   0.02
  21   1     0.04   0.07  -0.00     0.02  -0.06   0.05     0.07   0.15  -0.04
  22   1    -0.03  -0.08   0.03    -0.00   0.07  -0.02     0.07   0.15  -0.04
  23   1    -0.07  -0.17   0.05     0.01   0.03  -0.05    -0.01  -0.02   0.01
  24   1    -0.01  -0.06   0.02     0.02  -0.05  -0.03    -0.10  -0.22   0.05
  25   1     0.05   0.09  -0.01     0.03  -0.09   0.02    -0.03  -0.06   0.01
                      7                      8                      9
                        a                      a                      a 
 Frequencies --   191.8460               246.6862               303.0581
 Red. masses --    10.1646                 7.8009                 4.0994
 Frc consts  --     0.0000                 0.0000                 0.0000
 IR Inten    --    15.8110                 1.8600                 0.3471
 Raman Activ --     0.0000                 0.0000                 0.0000
 Depolar     --     0.0000                 0.0000                 0.0000
 Atom AN      X      Y      Z        X      Y      Z        X      Y      Z
   1   7     0.34  -0.30  -0.21    -0.16  -0.07  -0.04     0.07   0.09   0.01
   2   6     0.00   0.20  -0.15    -0.16   0.08  -0.38     0.07   0.12  -0.11
   3   6     0.12   0.27   0.07    -0.05  -0.16   0.14    -0.02  -0.09   0.02
   4   6    -0.04   0.02   0.13     0.02  -0.10   0.13    -0.04  -0.08   0.02
   5   6    -0.16  -0.20   0.15     0.08   0.09   0.11     0.00   0.03   0.02
   6   6     0.07   0.19   0.10    -0.05  -0.08   0.19    -0.12  -0.23   0.10
   7   6    -0.04  -0.06   0.12     0.07   0.07   0.16    -0.02  -0.02   0.07
   8   6    -0.13  -0.11   0.13     0.06   0.14   0.13     0.01   0.14   0.03
   9   6    -0.10   0.07  -0.01    -0.05   0.07  -0.02    -0.02   0.15  -0.03
  10   6     0.03   0.21  -0.13    -0.05  -0.19  -0.13    -0.11  -0.14  -0.01
  11   6    -0.01  -0.06  -0.07     0.11  -0.07  -0.15    -0.00  -0.01  -0.04
  12   6    -0.04  -0.22   0.06     0.24   0.10  -0.03     0.08   0.12  -0.01
  13  17    -0.06   0.04  -0.05    -0.01   0.07   0.01     0.05  -0.07  -0.03
  14   1     0.05  -0.20  -0.02    -0.07   0.09  -0.16     0.11  -0.22   0.42
  15   1     0.21  -0.08  -0.10    -0.08   0.06   0.20     0.22  -0.11  -0.40
  16   1     0.07  -0.05  -0.06     0.03  -0.22  -0.00    -0.27   0.38   0.02
  17   1    -0.05   0.13  -0.05    -0.10   0.24  -0.14     0.02   0.08  -0.04
  18   1    -0.06   0.02  -0.11    -0.03  -0.07  -0.32     0.04   0.02  -0.08
  19   1    -0.01   0.01   0.04     0.01  -0.03   0.04    -0.02  -0.04   0.02
  20   1    -0.07  -0.11   0.06     0.05   0.05   0.03     0.01   0.00   0.01
  21   1     0.04   0.09   0.02    -0.03  -0.03   0.06    -0.06  -0.10   0.04
  22   1    -0.04   0.05  -0.01    -0.06   0.04  -0.01    -0.01   0.07  -0.01
  23   1     0.03   0.14  -0.07    -0.05  -0.11  -0.05    -0.06  -0.10  -0.00
  24   1     0.00  -0.03  -0.03     0.04  -0.04  -0.06     0.01  -0.00  -0.02
  25   1    -0.01  -0.11   0.03     0.13   0.04  -0.01     0.06   0.08  -0.01
                     10                     11                     12
                        a                      a                      a 
 Frequencies --   321.2035               363.8837               389.6204
 Red. masses --     9.0858                 9.5831                 9.8243
 Frc consts  --     0.0000                 0.0000                 0.0000
 IR Inten    --     9.4286                 1.6982                 0.1151
 Raman Activ --     0.0000                 0.0000                 0.0000
 Depolar     --     0.0000                 0.0000                 0.0000
 Atom AN      X      Y      Z        X      Y      Z        X      Y      Z
   1   7     0.41  -0.06  -0.11     0.24   0.01  -0.05    -0.11  -0.03  -0.03
   2   6     0.21   0.07   0.09     0.16   0.02  -0.03    -0.20   0.17  -0.02
   3   6     0.05  -0.05   0.03    -0.00  -0.24   0.06    -0.04   0.08   0.33
   4   6    -0.09  -0.05   0.02    -0.18  -0.35   0.08     0.00   0.03   0.34
   5   6    -0.16  -0.11  -0.05     0.11   0.40  -0.14    -0.10   0.08  -0.01
   6   6    -0.09  -0.33   0.06     0.09   0.11   0.01     0.12  -0.04   0.05
   7   6    -0.04  -0.02  -0.09    -0.05  -0.08   0.00    -0.03  -0.09  -0.32
   8   6    -0.04   0.10  -0.12    -0.01   0.17  -0.06     0.11  -0.11  -0.32
   9   6     0.05   0.22  -0.04    -0.17  -0.18   0.05     0.27  -0.13  -0.07
  10   6    -0.18  -0.11   0.14    -0.11   0.04   0.04     0.16  -0.07   0.14
  11   6    -0.13   0.02   0.11     0.03   0.26  -0.01    -0.00   0.04   0.10
  12   6    -0.03   0.29  -0.04    -0.16  -0.19   0.08    -0.13   0.02  -0.18
  13  17    -0.05   0.03   0.01    -0.01   0.01  -0.00     0.00  -0.00  -0.01
  14   1     0.03   0.03  -0.24     0.05  -0.01  -0.04    -0.04  -0.07   0.03
  15   1     0.07   0.05   0.14     0.08   0.01  -0.00     0.03  -0.02  -0.05
  16   1     0.27  -0.17  -0.05     0.08  -0.01  -0.02    -0.05   0.03  -0.01
  17   1     0.05   0.00   0.03     0.04   0.05  -0.01    -0.12   0.17  -0.02
  18   1     0.07   0.03   0.04     0.08  -0.01  -0.05    -0.05  -0.01  -0.12
  19   1    -0.03   0.01   0.02    -0.09  -0.16   0.05    -0.01   0.02   0.12
  20   1    -0.08  -0.06  -0.01     0.08   0.23  -0.07    -0.13   0.08  -0.02
  21   1    -0.04  -0.17   0.03     0.07   0.13  -0.02     0.15  -0.04   0.03
  22   1     0.07   0.10  -0.02    -0.08  -0.15   0.04     0.15  -0.06  -0.01
  23   1    -0.07  -0.10   0.07    -0.04  -0.01   0.02     0.06  -0.02   0.09
  24   1    -0.05  -0.00   0.04     0.04   0.14  -0.02    -0.03   0.05   0.08
  25   1    -0.01   0.17  -0.03    -0.09  -0.12   0.04    -0.10   0.03  -0.06
                     13                     14                     15
                        a                      a                      a 
 Frequencies --   440.5528               456.7972               499.0534
 Red. masses --     8.8288                 9.5243                11.2672
 Frc consts  --     0.0000                 0.0000                 0.0000
 IR Inten    --     5.7086                 1.0565                 3.2584
 Raman Activ --     0.0000                 0.0000                 0.0000
 Depolar     --     0.0000                 0.0000                 0.0000
 Atom AN      X      Y      Z        X      Y      Z        X      Y      Z
   1   7     0.01   0.03  -0.00    -0.03   0.03  -0.01     0.03   0.01   0.02
   2   6     0.10  -0.11  -0.08     0.14  -0.17  -0.16     0.02  -0.02   0.05
   3   6     0.03  -0.30   0.09     0.16  -0.24   0.12     0.03   0.00   0.07
   4   6     0.04   0.06   0.01     0.12   0.17   0.03     0.38  -0.14   0.12
   5   6     0.01   0.14  -0.10    -0.13  -0.12  -0.09     0.34  -0.13   0.06
   6   6     0.18   0.17   0.02     0.13  -0.13   0.15    -0.10   0.08   0.19
   7   6    -0.06  -0.21   0.02     0.22   0.38  -0.14    -0.19   0.09   0.03
   8   6    -0.26  -0.42   0.06    -0.05   0.14  -0.10     0.20  -0.08   0.08
   9   6    -0.03   0.15  -0.04    -0.21  -0.17   0.02     0.05  -0.08  -0.25
  10   6    -0.09   0.12   0.02    -0.08   0.31   0.01    -0.06  -0.01  -0.17
  11   6    -0.14  -0.19   0.09    -0.12  -0.06   0.10    -0.42   0.13  -0.22
  12   6     0.07   0.26  -0.01    -0.07   0.00   0.06    -0.30   0.14   0.00
  13  17     0.00  -0.01  -0.00     0.00  -0.01  -0.00    -0.01   0.00  -0.00
  14   1     0.03   0.03   0.04     0.05   0.06   0.06     0.01   0.00   0.00
  15   1    -0.01  -0.00  -0.02    -0.05  -0.00  -0.02     0.00   0.00   0.01
  16   1    -0.04   0.03   0.00    -0.08   0.03   0.01     0.02   0.01   0.00
  17   1     0.01   0.03  -0.03     0.01   0.05  -0.06     0.02  -0.03   0.02
  18   1     0.07  -0.05  -0.08     0.09  -0.09  -0.14     0.01   0.01   0.04
  19   1     0.04   0.14   0.01     0.02   0.11   0.05     0.13  -0.05   0.01
  20   1     0.08   0.21  -0.07    -0.08  -0.10  -0.01     0.09  -0.03   0.02
  21   1     0.13   0.21  -0.03     0.01  -0.15   0.07    -0.00   0.01   0.06
  22   1     0.07   0.19  -0.04    -0.09  -0.18   0.04    -0.04   0.00  -0.08
  23   1     0.02   0.14  -0.02    -0.01   0.10   0.00     0.02   0.00   0.04
  24   1    -0.04  -0.06   0.02    -0.08  -0.14   0.04    -0.13   0.04  -0.05
  25   1     0.06   0.22  -0.04    -0.11  -0.12   0.04    -0.04   0.02   0.00
                     16                     17                     18
                        a                      a                      a 
 Frequencies --   518.3793               587.9320               610.2053
 Red. masses --    10.0791                11.1553                10.1911
 Frc consts  --     0.0000                 0.0000                 0.0000
 IR Inten    --     3.3117                 0.6595                 2.7032
 Raman Activ --     0.0000                 0.0000                 0.0000
 Depolar     --     0.0000                 0.0000                 0.0000
 Atom AN      X      Y      Z        X      Y      Z        X      Y      Z
   1   7     0.20   0.02  -0.02    -0.06  -0.02  -0.01     0.12   0.03  -0.01
   2   6    -0.06   0.21   0.13    -0.08   0.09   0.02    -0.00   0.04   0.06
   3   6    -0.32  -0.16  -0.00    -0.03   0.11  -0.05    -0.32  -0.47   0.08
   4   6    -0.12  -0.06  -0.03    -0.13  -0.02   0.03    -0.00   0.30  -0.08
   5   6     0.08   0.15   0.09     0.05   0.11   0.25    -0.11  -0.19   0.22
   6   6    -0.25  -0.10  -0.07     0.13  -0.20  -0.31     0.02   0.16  -0.17
   7   6     0.01   0.27  -0.03     0.29  -0.14   0.02     0.08   0.13  -0.01
   8   6     0.04  -0.11   0.09     0.17  -0.09  -0.02     0.07  -0.04   0.04
   9   6     0.02  -0.26   0.11    -0.03  -0.14  -0.38     0.15   0.15  -0.11
  10   6     0.31   0.18  -0.11    -0.25   0.17  -0.03    -0.04  -0.21   0.01
  11   6    -0.07  -0.29  -0.01    -0.15   0.01   0.08     0.04   0.22  -0.07
  12   6     0.08   0.16  -0.14     0.11   0.12   0.43    -0.10  -0.17   0.10
  13  17    -0.01  -0.00   0.00     0.00   0.00   0.00    -0.00  -0.00   0.00
  14   1    -0.03  -0.10  -0.05    -0.03  -0.03  -0.01    -0.01  -0.06  -0.02
  15   1     0.14   0.01  -0.02     0.01  -0.00  -0.00     0.08   0.00  -0.03
  16   1     0.12   0.00  -0.02    -0.00  -0.01  -0.01     0.07   0.02  -0.01
  17   1    -0.00   0.05   0.04    -0.03   0.04   0.00    -0.00   0.08   0.01
  18   1     0.01   0.06   0.04    -0.04   0.02  -0.01     0.07  -0.02  -0.06
  19   1     0.01   0.00  -0.07    -0.02  -0.05  -0.03     0.08   0.21  -0.08
  20   1     0.07   0.12   0.01     0.01   0.03   0.07     0.00   0.01   0.05
  21   1    -0.08  -0.02  -0.02     0.04  -0.07  -0.08     0.03   0.13  -0.07
  22   1    -0.04  -0.11   0.04     0.02  -0.05  -0.10     0.02   0.01  -0.02
  23   1     0.12   0.13  -0.05    -0.03   0.07   0.06    -0.03  -0.14   0.05
  24   1    -0.09  -0.18   0.06     0.02  -0.06  -0.07     0.01   0.06  -0.02
  25   1     0.03  -0.01  -0.03     0.02   0.05   0.11    -0.05  -0.13   0.05
                     19                     20                     21
                        a                      a                      a 
 Frequencies --   700.0718               723.1204               746.4766
 Red. masses --    10.0764                11.2016                 3.4645
 Frc consts  --     0.0000                 0.0000                 0.0000
 IR Inten    --     7.2063                 0.2345                 8.6499
 Raman Activ --     0.0000                 0.0000                 0.0000
 Depolar     --     0.0000                 0.0000                 0.0000
 Atom AN      X      Y      Z        X      Y      Z        X      Y      Z
   1   7    -0.06   0.01   0.03    -0.01  -0.00  -0.01     0.02   0.02   0.01
   2   6    -0.24   0.29   0.20     0.03  -0.02  -0.05    -0.04   0.02   0.06
   3   6    -0.13  -0.04   0.08     0.10   0.17  -0.05    -0.09  -0.13   0.04
   4   6     0.34  -0.17  -0.01    -0.11  -0.15   0.05     0.06   0.05  -0.02
   5   6     0.17  -0.19  -0.39     0.05   0.18  -0.00     0.05   0.05  -0.05
   6   6    -0.00  -0.04   0.02    -0.06  -0.15   0.05     0.04   0.13  -0.05
   7   6     0.10   0.05  -0.04     0.22   0.50  -0.11     0.06   0.12  -0.03
   8   6    -0.11  -0.04  -0.07    -0.22  -0.50   0.12     0.04   0.09  -0.02
   9   6    -0.16   0.13  -0.01     0.09   0.15  -0.04    -0.10  -0.17   0.04
  10   6    -0.27   0.11   0.07    -0.06  -0.20   0.04    -0.08  -0.11   0.03
  11   6     0.21  -0.01   0.11     0.06   0.18  -0.05    -0.03  -0.12   0.04
  12   6     0.14  -0.07   0.05    -0.09  -0.17   0.04    -0.08  -0.21   0.04
  13  17    -0.00  -0.00   0.00     0.00  -0.00   0.00    -0.00   0.00  -0.00
  14   1    -0.13  -0.15  -0.06     0.02   0.03   0.02    -0.03  -0.04  -0.03
  15   1     0.11   0.00  -0.02    -0.01   0.00   0.01     0.03  -0.00  -0.02
  16   1     0.10   0.00  -0.01    -0.04  -0.02   0.01     0.06   0.03  -0.01
  17   1    -0.07   0.06   0.06     0.01  -0.03  -0.01    -0.01   0.07   0.01
  18   1    -0.07   0.09   0.08    -0.01   0.01   0.02     0.02  -0.02  -0.05
  19   1     0.13   0.03  -0.02    -0.02  -0.00   0.01    -0.03  -0.13   0.01
  20   1     0.08   0.01  -0.13     0.04   0.11  -0.01    -0.08  -0.21   0.04
  21   1     0.06   0.04  -0.00    -0.05  -0.12   0.03    -0.11  -0.24   0.05
  22   1    -0.03  -0.02   0.01     0.06   0.13  -0.03     0.14   0.33  -0.07
  23   1    -0.12  -0.01  -0.04     0.02   0.02   0.00     0.15   0.37  -0.09
  24   1     0.07  -0.08  -0.02    -0.00   0.02  -0.00     0.17   0.37  -0.09
  25   1    -0.02  -0.07   0.02    -0.04  -0.09   0.02     0.15   0.34  -0.08
                     22                     23                     24
                        a                      a                      a 
 Frequencies --   804.4522               828.1990               842.1481
 Red. masses --    10.2766                 3.9343                 4.5901
 Frc consts  --     0.0000                 0.0000                 0.0000
 IR Inten    --     0.6164                24.6760                46.5110
 Raman Activ --     0.0000                 0.0000                 0.0000
 Depolar     --     0.0000                 0.0000                 0.0000
 Atom AN      X      Y      Z        X      Y      Z        X      Y      Z
   1   7     0.01  -0.01   0.01     0.00  -0.02   0.07     0.07   0.06  -0.08
   2   6     0.03  -0.05   0.01    -0.00  -0.05   0.21    -0.04   0.03  -0.19
   3   6    -0.03   0.04   0.00     0.01  -0.03   0.02    -0.12  -0.14   0.03
   4   6     0.15  -0.03   0.13    -0.00   0.06  -0.10     0.05   0.05   0.07
   5   6     0.20   0.03   0.40     0.06   0.15  -0.14     0.05   0.11   0.06
   6   6     0.11  -0.12  -0.35     0.10   0.20  -0.05     0.04   0.31  -0.01
   7   6    -0.00  -0.06  -0.23    -0.03  -0.10   0.06    -0.09  -0.09   0.01
   8   6     0.00   0.01   0.16    -0.09  -0.17   0.05    -0.02  -0.12  -0.02
   9   6    -0.22   0.16   0.24     0.06   0.09   0.02     0.01  -0.01  -0.12
  10   6    -0.18   0.10   0.07     0.09   0.02  -0.04    -0.09   0.08   0.04
  11   6     0.06  -0.01   0.04    -0.03   0.08  -0.06     0.15   0.04   0.07
  12   6    -0.10  -0.04  -0.41     0.02   0.08   0.06     0.07   0.04  -0.08
  13  17    -0.00  -0.00  -0.00    -0.01  -0.00  -0.00     0.01   0.01   0.00
  14   1     0.02   0.03  -0.01    -0.07  -0.01  -0.12     0.07  -0.01   0.11
  15   1    -0.06  -0.02  -0.02    -0.17  -0.09  -0.16     0.23   0.11   0.16
  16   1     0.02   0.04  -0.01     0.24   0.22  -0.05    -0.22  -0.23   0.05
  17   1     0.02   0.05  -0.01     0.01   0.31   0.00    -0.03  -0.27   0.00
  18   1     0.00  -0.04  -0.07    -0.04  -0.15  -0.24     0.10   0.13   0.20
  19   1     0.09  -0.08  -0.04    -0.10  -0.23   0.01    -0.05  -0.15   0.06
  20   1     0.09  -0.03   0.13    -0.08  -0.24   0.02    -0.09  -0.12   0.05
  21   1     0.10  -0.09  -0.09    -0.16  -0.34   0.08    -0.21  -0.40   0.11
  22   1    -0.11   0.05   0.07    -0.05  -0.09   0.03     0.03  -0.02  -0.03
  23   1    -0.11   0.00  -0.08    -0.05  -0.18   0.04    -0.07  -0.08   0.03
  24   1    -0.03  -0.00   0.06    -0.09  -0.17   0.03    -0.02  -0.16   0.04
  25   1    -0.13   0.01  -0.13    -0.02  -0.09   0.04    -0.05  -0.10   0.00
                     25                     26                     27
                        a                      a                      a 
 Frequencies --   859.8000               868.1467               878.8051
 Red. masses --     3.3629                 9.2155                 4.0674
 Frc consts  --     0.0000                 0.0000                 0.0000
 IR Inten    --     1.6546                 6.3466                 5.7563
 Raman Activ --     0.0000                 0.0000                 0.0000
 Depolar     --     0.0000                 0.0000                 0.0000
 Atom AN      X      Y      Z        X      Y      Z        X      Y      Z
   1   7     0.01   0.00  -0.00     0.14   0.00   0.05     0.02  -0.00   0.03
   2   6     0.00  -0.00  -0.00     0.05  -0.17  -0.02     0.03  -0.06   0.04
   3   6    -0.03  -0.05   0.01    -0.09   0.07  -0.06     0.01   0.08  -0.03
   4   6     0.06   0.15  -0.04     0.01   0.02   0.02    -0.05  -0.11   0.01
   5   6     0.08   0.17  -0.03     0.05   0.04   0.13    -0.08  -0.20   0.08
   6   6    -0.10  -0.17   0.06    -0.30   0.09   0.20    -0.00   0.18   0.01
   7   6    -0.02  -0.02   0.01    -0.14   0.11   0.01    -0.07  -0.05   0.02
   8   6     0.00  -0.02  -0.01     0.08  -0.08  -0.08     0.08   0.11  -0.04
   9   6    -0.06  -0.16   0.00     0.07  -0.04  -0.39    -0.07  -0.20  -0.05
  10   6    -0.07  -0.11   0.04    -0.23   0.17   0.12    -0.11  -0.09   0.06
  11   6     0.08   0.11  -0.01     0.29  -0.12   0.24     0.10   0.04   0.04
  12   6     0.08   0.17  -0.05     0.06  -0.15  -0.15     0.10   0.18  -0.09
  13  17    -0.00   0.00  -0.00    -0.00  -0.00  -0.00    -0.00  -0.01  -0.00
  14   1     0.00  -0.00  -0.00     0.08   0.12  -0.02     0.01   0.04  -0.02
  15   1     0.01   0.00   0.01    -0.16  -0.05  -0.07    -0.11  -0.04  -0.07
  16   1    -0.00  -0.00   0.00     0.10   0.14  -0.01     0.06   0.08  -0.01
  17   1    -0.01  -0.01   0.00     0.07   0.06  -0.03     0.04   0.08  -0.01
  18   1     0.02  -0.00  -0.00    -0.05  -0.09  -0.09    -0.05  -0.06  -0.06
  19   1    -0.10  -0.24   0.04     0.02  -0.04  -0.03     0.09   0.19  -0.06
  20   1    -0.17  -0.38   0.09    -0.05  -0.03   0.04     0.17   0.38  -0.08
  21   1     0.15   0.38  -0.08    -0.09   0.19   0.01    -0.16  -0.25   0.07
  22   1     0.16   0.33  -0.08     0.05  -0.19  -0.06     0.17   0.31  -0.10
  23   1     0.06   0.15  -0.03    -0.08  -0.01   0.04     0.07   0.19  -0.03
  24   1    -0.06  -0.15   0.04     0.13   0.01   0.01    -0.00  -0.07   0.02
  25   1    -0.16  -0.36   0.08     0.04   0.13  -0.08    -0.17  -0.37   0.07
                     28                     29                     30
                        a                      a                      a 
 Frequencies --   911.7549               925.4655               932.1685
 Red. masses --     3.9360                 3.3310                 7.6843
 Frc consts  --     0.0000                 0.0000                 0.0000
 IR Inten    --     0.9253                 0.2102                11.6465
 Raman Activ --     0.0000                 0.0000                 0.0000
 Depolar     --     0.0000                 0.0000                 0.0000
 Atom AN      X      Y      Z        X      Y      Z        X      Y      Z
   1   7    -0.00   0.00  -0.00    -0.02  -0.00  -0.00    -0.27  -0.04   0.00
   2   6    -0.00   0.01  -0.00     0.01   0.02   0.01     0.10   0.19   0.07
   3   6    -0.00  -0.02   0.00     0.02  -0.01  -0.00     0.22  -0.10  -0.04
   4   6     0.02   0.04  -0.01     0.01   0.05  -0.04    -0.14   0.18  -0.34
   5   6     0.01   0.02  -0.00    -0.02  -0.05   0.02    -0.01  -0.10   0.17
   6   6     0.01   0.02   0.00     0.01   0.00   0.02     0.13  -0.02   0.30
   7   6    -0.01  -0.02   0.00    -0.03  -0.07   0.01     0.02   0.03  -0.03
   8   6    -0.03  -0.06   0.01     0.03   0.07  -0.01     0.05  -0.04   0.07
   9   6     0.11   0.25  -0.06     0.05   0.11  -0.03     0.01  -0.06  -0.11
  10   6    -0.08  -0.18   0.04    -0.13  -0.27   0.07    -0.05   0.10   0.05
  11   6    -0.11  -0.24   0.05     0.11   0.24  -0.05    -0.00  -0.02   0.05
  12   6     0.10   0.23  -0.05    -0.04  -0.08   0.00    -0.06  -0.03  -0.21
  13  17     0.00   0.00  -0.00    -0.00   0.00  -0.00    -0.00   0.00   0.00
  14   1    -0.01  -0.01   0.00    -0.01  -0.01  -0.01    -0.22  -0.22  -0.07
  15   1     0.02   0.01   0.01     0.01   0.00   0.00     0.12   0.01  -0.01
  16   1    -0.01  -0.01   0.00     0.00  -0.00  -0.00     0.05  -0.06  -0.01
  17   1    -0.01  -0.01   0.00    -0.00   0.00   0.00    -0.01   0.03   0.02
  18   1     0.01   0.01   0.01     0.01   0.00   0.00     0.09   0.06   0.03
  19   1    -0.04  -0.10   0.02    -0.05  -0.10   0.01    -0.19  -0.32  -0.03
  20   1    -0.01  -0.03   0.01     0.05   0.08  -0.01     0.26   0.16   0.01
  21   1    -0.01  -0.03   0.01     0.00  -0.00   0.01     0.06   0.00   0.08
  22   1    -0.18  -0.40   0.09    -0.12  -0.28   0.06     0.05   0.03  -0.04
  23   1     0.14   0.31  -0.07     0.23   0.53  -0.12    -0.05  -0.08   0.07
  24   1     0.19   0.43  -0.10    -0.21  -0.46   0.11    -0.00   0.07   0.04
  25   1    -0.16  -0.37   0.08     0.09   0.22  -0.05    -0.06   0.02  -0.07
                     31                     32                     33
                        a                      a                      a 
 Frequencies --   938.8597               999.5735              1021.9951
 Red. masses --     4.8294                 6.9205                 8.6474
 Frc consts  --     0.0000                 0.0000                 0.0000
 IR Inten    --    17.0395                50.3534                15.5731
 Raman Activ --     0.0000                 0.0000                 0.0000
 Depolar     --     0.0000                 0.0000                 0.0000
 Atom AN      X      Y      Z        X      Y      Z        X      Y      Z
   1   7     0.18   0.03  -0.02    -0.30  -0.11   0.12    -0.20  -0.34  -0.24
   2   6    -0.08  -0.11  -0.02     0.37   0.12  -0.23     0.46   0.31   0.30
   3   6    -0.13   0.06   0.05    -0.06  -0.03  -0.10    -0.09  -0.00   0.05
   4   6     0.23   0.26   0.10     0.17   0.03   0.31     0.03  -0.02   0.00
   5   6    -0.11  -0.22  -0.05    -0.07   0.03   0.04     0.03  -0.01  -0.06
   6   6    -0.10  -0.06  -0.14    -0.09   0.02  -0.13    -0.09   0.04  -0.10
   7   6     0.02   0.05  -0.01    -0.07   0.04   0.02    -0.05   0.03   0.03
   8   6    -0.05  -0.02  -0.03    -0.05   0.00  -0.06     0.01  -0.01   0.01
   9   6    -0.02   0.00   0.08     0.00   0.00   0.02     0.00  -0.00  -0.03
  10   6     0.06   0.01  -0.05     0.04  -0.02  -0.03    -0.01   0.01   0.00
  11   6    -0.02  -0.02  -0.03     0.03  -0.01   0.02     0.04  -0.02   0.01
  12   6     0.02  -0.00   0.13     0.03   0.01   0.09     0.01  -0.00   0.01
  13  17     0.00   0.00  -0.00    -0.01  -0.00   0.00     0.01   0.00   0.00
  14   1     0.14   0.14   0.04    -0.26  -0.21  -0.15     0.16   0.16   0.10
  15   1    -0.06   0.01   0.03    -0.02  -0.08  -0.12    -0.22  -0.05   0.07
  16   1    -0.06   0.02   0.01     0.23   0.08  -0.04    -0.36  -0.15  -0.00
  17   1    -0.04  -0.01  -0.01     0.37  -0.14  -0.07    -0.07   0.18   0.08
  18   1    -0.03  -0.04  -0.03     0.05   0.10   0.10     0.12   0.01  -0.07
  19   1    -0.20  -0.58   0.16     0.01  -0.04   0.13     0.01   0.00   0.01
  20   1     0.08   0.40  -0.12    -0.21   0.11  -0.02    -0.01  -0.02  -0.01
  21   1    -0.01   0.03  -0.05    -0.09   0.01  -0.04    -0.08   0.01  -0.03
  22   1     0.01   0.06   0.01    -0.01   0.01   0.00    -0.00  -0.01  -0.01
  23   1    -0.03  -0.08  -0.01    -0.00  -0.01  -0.03    -0.00   0.00  -0.00
  24   1     0.03   0.02  -0.04     0.02  -0.01  -0.01     0.02  -0.00  -0.01
  25   1     0.04   0.01   0.03     0.03  -0.01   0.03     0.02   0.00   0.00
                     34                     35                     36
                        a                      a                      a 
 Frequencies --  1048.3080              1082.3924              1146.2420
 Red. masses --     4.7103                 6.4914                 5.5196
 Frc consts  --     0.0000                 0.0000                 0.0000
 IR Inten    --     8.3499                 0.0351                 0.4919
 Raman Activ --     0.0000                 0.0000                 0.0000
 Depolar     --     0.0000                 0.0000                 0.0000
 Atom AN      X      Y      Z        X      Y      Z        X      Y      Z
   1   7     0.11  -0.21   0.06    -0.01   0.01  -0.00    -0.02  -0.00  -0.01
   2   6    -0.07   0.32  -0.21     0.02  -0.02   0.00     0.06  -0.03   0.00
   3   6    -0.09  -0.17   0.06    -0.02   0.01  -0.01    -0.05   0.04   0.01
   4   6    -0.06   0.04  -0.09    -0.00   0.01   0.02    -0.04  -0.01  -0.10
   5   6     0.01   0.01   0.02    -0.01   0.01   0.01     0.04   0.02   0.17
   6   6     0.14  -0.00   0.15    -0.03   0.01  -0.02    -0.07   0.08   0.20
   7   6     0.06  -0.02  -0.04     0.04  -0.00   0.07    -0.07  -0.03  -0.24
   8   6    -0.01  -0.00   0.01     0.05  -0.04  -0.06     0.05  -0.08  -0.24
   9   6     0.00   0.01   0.03     0.09   0.01   0.21     0.03   0.05   0.27
  10   6    -0.01   0.01   0.01    -0.25   0.18   0.31    -0.01  -0.01  -0.09
  11   6    -0.05   0.01  -0.03    -0.22   0.01  -0.38     0.04  -0.03  -0.07
  12   6     0.00  -0.01  -0.02     0.11  -0.09  -0.18    -0.06   0.09   0.28
  13  17     0.00  -0.00  -0.00    -0.00   0.00  -0.00    -0.00   0.00   0.00
  14   1     0.17   0.26  -0.02    -0.01  -0.01  -0.00     0.00  -0.01   0.01
  15   1    -0.38  -0.13  -0.08     0.01   0.00   0.00     0.02   0.01   0.01
  16   1     0.03   0.18  -0.01     0.00  -0.01  -0.00    -0.00  -0.02  -0.00
  17   1     0.18  -0.18  -0.03     0.01   0.00  -0.00     0.01   0.00  -0.00
  18   1    -0.40   0.18   0.25     0.02  -0.01  -0.01     0.05  -0.01  -0.02
  19   1    -0.03  -0.03  -0.03     0.00  -0.00  -0.00     0.13  -0.09  -0.24
  20   1     0.09  -0.06   0.02    -0.04   0.02  -0.00    -0.02   0.02   0.04
  21   1     0.16  -0.09   0.07    -0.03   0.01  -0.01     0.09  -0.02   0.07
  22   1     0.02   0.00   0.01     0.39  -0.15   0.12     0.21  -0.07   0.10
  23   1     0.01   0.01   0.02    -0.01   0.06   0.23    -0.18  -0.01  -0.40
  24   1    -0.02   0.01  -0.01     0.02  -0.06  -0.24     0.21  -0.17  -0.33
  25   1     0.00  -0.00  -0.01     0.40  -0.17  -0.00    -0.20   0.10   0.05
                     37                     38                     39
                        a                      a                      a 
 Frequencies --  1172.2809              1178.8040              1182.3706
 Red. masses --     3.5601                 1.9409                 2.2439
 Frc consts  --     0.0000                 0.0000                 0.0000
 IR Inten    --     2.2042                 0.2246                 0.3960
 Raman Activ --     0.0000                 0.0000                 0.0000
 Depolar     --     0.0000                 0.0000                 0.0000
 Atom AN      X      Y      Z        X      Y      Z        X      Y      Z
   1   7     0.02  -0.03   0.03     0.01  -0.01  -0.00    -0.03   0.02  -0.05
   2   6    -0.10   0.11   0.03    -0.05   0.04   0.04     0.08  -0.07   0.02
   3   6     0.18  -0.13  -0.11     0.08  -0.07  -0.09    -0.15   0.09   0.02
   4   6     0.09  -0.05  -0.06     0.04  -0.02  -0.00     0.00  -0.04  -0.13
   5   6    -0.06   0.05   0.09     0.01   0.01   0.08    -0.02   0.01   0.03
   6   6     0.04   0.00   0.09     0.08  -0.03   0.03    -0.00   0.03   0.11
   7   6     0.21  -0.08   0.03     0.05   0.00   0.11    -0.10   0.03  -0.07
   8   6     0.12  -0.06  -0.05    -0.01  -0.02  -0.13     0.03  -0.02  -0.05
   9   6    -0.06   0.04   0.07    -0.04   0.01  -0.02    -0.05   0.02  -0.02
  10   6     0.01   0.02   0.08    -0.01  -0.01  -0.07     0.02   0.00   0.05
  11   6    -0.03  -0.01  -0.10    -0.05   0.04   0.06     0.00   0.01   0.06
  12   6    -0.03  -0.00  -0.08    -0.02   0.01  -0.00     0.06  -0.02   0.04
  13  17    -0.00   0.00   0.00    -0.00   0.00   0.00    -0.00   0.00   0.00
  14   1     0.03   0.04   0.01     0.02   0.02   0.01     0.01  -0.02   0.03
  15   1    -0.05  -0.02  -0.00    -0.01   0.00   0.01     0.05   0.03   0.02
  16   1     0.00   0.04   0.01    -0.01   0.00   0.00    -0.02  -0.05  -0.00
  17   1    -0.17   0.00   0.03    -0.06   0.02   0.01     0.12   0.02  -0.02
  18   1    -0.04   0.05   0.05    -0.04   0.01   0.01     0.01  -0.05  -0.05
  19   1     0.13  -0.09  -0.18     0.10  -0.06  -0.13     0.22  -0.15  -0.37
  20   1    -0.50   0.21  -0.04    -0.18   0.08  -0.00    -0.31   0.13  -0.03
  21   1    -0.43   0.17  -0.03    -0.12   0.05  -0.01     0.45  -0.18   0.09
  22   1    -0.22   0.09  -0.01     0.26  -0.11   0.03    -0.33   0.13  -0.05
  23   1     0.06   0.01   0.16    -0.21  -0.01  -0.47     0.08   0.00   0.18
  24   1     0.03  -0.04  -0.10    -0.30   0.24   0.47    -0.03   0.03   0.07
  25   1    -0.22   0.08  -0.06     0.28  -0.12   0.04     0.33  -0.13   0.06
                     40                     41                     42
                        a                      a                      a 
 Frequencies --  1216.0585              1227.3598              1251.9056
 Red. masses --     3.0421                 5.6666                 7.1333
 Frc consts  --     0.0000                 0.0000                 0.0000
 IR Inten    --    13.3411                 1.7649                 0.2966
 Raman Activ --     0.0000                 0.0000                 0.0000
 Depolar     --     0.0000                 0.0000                 0.0000
 Atom AN      X      Y      Z        X      Y      Z        X      Y      Z
   1   7     0.03  -0.17   0.22    -0.01   0.01  -0.03     0.03  -0.00   0.02
   2   6    -0.03   0.07  -0.21     0.02  -0.01   0.03    -0.09   0.09   0.07
   3   6    -0.04   0.11   0.14    -0.02  -0.00  -0.04     0.24  -0.18  -0.25
   4   6    -0.03  -0.00  -0.02     0.10  -0.01   0.14     0.02   0.02   0.09
   5   6    -0.02   0.00  -0.03    -0.03   0.04   0.12     0.11  -0.00   0.20
   6   6    -0.04   0.01  -0.03     0.12  -0.05   0.03     0.09  -0.04   0.01
   7   6     0.01  -0.02  -0.04    -0.02   0.01  -0.01    -0.33   0.09  -0.26
   8   6    -0.02   0.01  -0.02    -0.50   0.19  -0.10    -0.15   0.01  -0.23
   9   6    -0.02   0.01  -0.02    -0.03  -0.01  -0.09     0.07  -0.02   0.05
  10   6     0.02  -0.01   0.01     0.10  -0.07  -0.13     0.02  -0.02  -0.03
  11   6     0.00   0.00   0.01    -0.02   0.01   0.02    -0.00   0.04   0.17
  12   6     0.01   0.00   0.02     0.11  -0.04   0.04     0.03   0.01   0.11
  13  17    -0.00  -0.00   0.00    -0.00   0.00   0.00     0.00  -0.00  -0.00
  14   1     0.01   0.09  -0.07     0.01  -0.01   0.02     0.00   0.01  -0.01
  15   1    -0.16  -0.11  -0.08     0.03   0.02   0.03    -0.04  -0.01  -0.00
  16   1     0.16   0.18   0.02    -0.02  -0.02  -0.00    -0.02   0.02   0.01
  17   1    -0.42  -0.18   0.03     0.03   0.02   0.00    -0.19   0.04   0.03
  18   1     0.65   0.13   0.03    -0.07  -0.02  -0.01    -0.07   0.02   0.03
  19   1     0.08  -0.04  -0.14     0.29  -0.19  -0.36    -0.07   0.06   0.15
  20   1     0.12  -0.04   0.01     0.21  -0.08   0.07     0.11  -0.03   0.07
  21   1    -0.00  -0.01  -0.01    -0.14   0.06  -0.02    -0.16   0.06  -0.03
  22   1    -0.03   0.02  -0.01     0.26  -0.12   0.01    -0.25   0.10  -0.03
  23   1     0.02   0.00   0.03     0.19  -0.01   0.32     0.02  -0.00   0.02
  24   1    -0.03   0.02   0.04    -0.03   0.02   0.04     0.12  -0.08  -0.14
  25   1     0.08  -0.04   0.02    -0.12   0.05  -0.01     0.41  -0.16   0.09
                     43                     44                     45
                        a                      a                      a 
 Frequencies --  1254.7586              1314.7975              1335.7173
 Red. masses --     6.0625                 5.0306                 6.1861
 Frc consts  --     0.0000                 0.0000                 0.0000
 IR Inten    --     2.6154                26.3555                 3.8780
 Raman Activ --     0.0000                 0.0000                 0.0000
 Depolar     --     0.0000                 0.0000                 0.0000
 Atom AN      X      Y      Z        X      Y      Z        X      Y      Z
   1   7    -0.03   0.04  -0.03    -0.01   0.15   0.10     0.07   0.07   0.08
   2   6     0.13  -0.08  -0.05     0.39  -0.06  -0.14     0.17  -0.01  -0.00
   3   6    -0.14   0.11   0.24    -0.01   0.00   0.21    -0.04  -0.02  -0.14
   4   6    -0.05   0.02   0.01    -0.05   0.02   0.01     0.13  -0.09  -0.13
   5   6    -0.06   0.02  -0.01    -0.06   0.00  -0.12     0.06   0.02   0.19
   6   6    -0.13   0.08   0.12     0.05  -0.05  -0.14    -0.25   0.13   0.10
   7   6     0.28  -0.17  -0.21    -0.09   0.06   0.09     0.09  -0.09  -0.20
   8   6     0.14  -0.12  -0.25     0.04   0.01   0.12    -0.01  -0.03  -0.14
   9   6    -0.10   0.07   0.09     0.06  -0.04  -0.06    -0.22   0.11   0.08
  10   6     0.02   0.01   0.11     0.01   0.01   0.04    -0.01  -0.02  -0.11
  11   6    -0.04   0.00  -0.08     0.02   0.00   0.05     0.07  -0.06  -0.14
  12   6     0.01   0.00   0.04    -0.09   0.03  -0.05     0.14  -0.02   0.17
  13  17     0.00   0.00  -0.00    -0.00   0.00   0.00     0.00   0.00  -0.00
  14   1    -0.02  -0.03   0.01    -0.10  -0.09  -0.04    -0.10  -0.06  -0.12
  15   1     0.05   0.02   0.00     0.01  -0.02  -0.12    -0.06  -0.04  -0.10
  16   1    -0.00  -0.05  -0.01     0.05  -0.10   0.04    -0.09  -0.05   0.04
  17   1     0.17  -0.01  -0.03    -0.53  -0.09   0.05    -0.32  -0.01   0.04
  18   1    -0.11  -0.03  -0.00    -0.47  -0.03   0.06    -0.13  -0.02  -0.00
  19   1     0.03  -0.03  -0.08     0.09  -0.08  -0.16    -0.15   0.11   0.26
  20   1     0.38  -0.16   0.05     0.02  -0.02  -0.03    -0.07   0.04   0.04
  21   1    -0.36   0.15  -0.01    -0.03  -0.00  -0.04     0.19  -0.07   0.06
  22   1    -0.29   0.12  -0.01    -0.01  -0.00  -0.02     0.14  -0.05   0.05
  23   1    -0.01   0.00   0.00    -0.04  -0.00  -0.09     0.13   0.00   0.25
  24   1    -0.11   0.08   0.13     0.07  -0.05  -0.09    -0.14   0.11   0.22
  25   1     0.15  -0.06   0.03     0.06  -0.02  -0.00    -0.10   0.05   0.03
                     46                     47                     48
                        a                      a                      a 
 Frequencies --  1372.9534              1377.2062              1407.7826
 Red. masses --     9.3858                 3.7614                 1.6700
 Frc consts  --     0.0000                 0.0000                 0.0000
 IR Inten    --    35.5035               133.7514                68.1998
 Raman Activ --     0.0000                 0.0000                 0.0000
 Depolar     --     0.0000                 0.0000                 0.0000
 Atom AN      X      Y      Z        X      Y      Z        X      Y      Z
   1   7     0.10   0.06   0.07     0.26   0.08   0.12     0.04  -0.17  -0.02
   2   6     0.06  -0.03  -0.02    -0.12   0.03   0.04     0.08  -0.05  -0.02
   3   6    -0.25   0.10  -0.10     0.09  -0.02   0.03    -0.01  -0.00  -0.01
   4   6    -0.22   0.12   0.12     0.07  -0.04  -0.01    -0.03   0.02   0.04
   5   6     0.27  -0.14  -0.09    -0.13   0.06   0.01    -0.01  -0.00  -0.02
   6   6     0.21  -0.06   0.13    -0.02  -0.00  -0.05    -0.01   0.00  -0.01
   7   6    -0.08   0.03  -0.03     0.05  -0.00   0.08    -0.03   0.02   0.02
   8   6    -0.04   0.01  -0.02    -0.00   0.00   0.01     0.03  -0.02  -0.02
   9   6     0.30  -0.09   0.17    -0.08   0.01  -0.09     0.03  -0.01   0.02
  10   6    -0.22   0.07  -0.14     0.11  -0.02   0.10    -0.03   0.01   0.01
  11   6    -0.20   0.10   0.03     0.06  -0.02   0.01     0.00  -0.01  -0.03
  12   6     0.35  -0.16  -0.03    -0.18   0.07  -0.04     0.03  -0.01   0.01
  13  17     0.00   0.00   0.00     0.01   0.00   0.00     0.00  -0.01  -0.00
  14   1    -0.11  -0.04  -0.17    -0.26  -0.10  -0.43    -0.15  -0.01  -0.31
  15   1    -0.08  -0.07  -0.15    -0.19  -0.12  -0.23     0.20   0.19   0.47
  16   1    -0.19  -0.11   0.06    -0.53  -0.14   0.14    -0.28   0.66  -0.02
  17   1    -0.01  -0.03  -0.00     0.17  -0.03  -0.01    -0.09   0.01   0.01
  18   1     0.06  -0.02  -0.04     0.09  -0.01  -0.05    -0.10  -0.01   0.02
  19   1    -0.03   0.01  -0.03     0.07  -0.04  -0.06     0.02   0.00  -0.03
  20   1    -0.08   0.02  -0.05     0.05  -0.02   0.02     0.02  -0.00  -0.01
  21   1    -0.09   0.04   0.02     0.01  -0.00  -0.01     0.02  -0.02   0.00
  22   1    -0.15   0.07   0.02     0.02  -0.02  -0.02    -0.03   0.02  -0.00
  23   1    -0.06   0.02  -0.02    -0.01  -0.01  -0.05    -0.01   0.01  -0.01
  24   1    -0.10   0.06   0.07     0.07  -0.04  -0.08    -0.02   0.01   0.02
  25   1    -0.18   0.07  -0.05     0.09  -0.03   0.01    -0.04   0.01  -0.00
                     49                     50                     51
                        a                      a                      a 
 Frequencies --  1412.9838              1427.4438              1451.5161
 Red. masses --    10.0415                 9.8039                 5.6300
 Frc consts  --     0.0000                 0.0000                 0.0000
 IR Inten    --     4.4540                 1.8254                52.1369
 Raman Activ --     0.0000                 0.0000                 0.0000
 Depolar     --     0.0000                 0.0000                 0.0000
 Atom AN      X      Y      Z        X      Y      Z        X      Y      Z
   1   7     0.01  -0.01   0.00    -0.01  -0.01   0.01     0.14   0.09  -0.10
   2   6    -0.01  -0.02  -0.03    -0.01  -0.03  -0.05    -0.08   0.07   0.00
   3   6     0.06   0.04   0.30    -0.05   0.08   0.24     0.24  -0.10   0.04
   4   6     0.06  -0.08  -0.22    -0.24   0.09  -0.07    -0.05   0.04   0.10
   5   6    -0.05   0.02  -0.03     0.32  -0.15  -0.03    -0.16   0.05  -0.09
   6   6    -0.08   0.03  -0.00     0.26  -0.13  -0.06    -0.07   0.01  -0.10
   7   6     0.00  -0.11  -0.49    -0.24   0.13   0.10    -0.24   0.09  -0.08
   8   6    -0.01   0.11   0.48     0.20  -0.13  -0.16     0.22  -0.08   0.07
   9   6     0.08  -0.03   0.01    -0.32   0.16   0.07     0.05  -0.00   0.09
  10   6    -0.08  -0.03  -0.26    -0.00  -0.04  -0.19    -0.14   0.05  -0.06
  11   6    -0.08   0.09   0.22     0.23  -0.10   0.01     0.10  -0.08  -0.14
  12   6     0.08  -0.03   0.03    -0.19   0.10   0.07     0.11  -0.02   0.13
  13  17     0.00  -0.00  -0.00     0.00  -0.00   0.00     0.00   0.00   0.00
  14   1    -0.02   0.01  -0.05    -0.00   0.04  -0.04    -0.09  -0.42   0.23
  15   1     0.02   0.01   0.02     0.05  -0.01  -0.03    -0.44   0.05   0.23
  16   1    -0.05   0.04   0.00    -0.02   0.00   0.00     0.01  -0.01  -0.01
  17   1     0.12  -0.00  -0.02     0.11  -0.00  -0.02     0.04  -0.07   0.00
  18   1    -0.00   0.01   0.02     0.02   0.01   0.02     0.01  -0.00  -0.04
  19   1    -0.03   0.01   0.01    -0.07   0.03  -0.02     0.09  -0.06  -0.12
  20   1    -0.17   0.07  -0.03    -0.11   0.04  -0.04     0.09  -0.04  -0.01
  21   1    -0.20   0.08  -0.03    -0.18   0.07  -0.05     0.01  -0.01  -0.03
  22   1     0.17  -0.07   0.03     0.17  -0.06   0.06    -0.01   0.01   0.03
  23   1     0.03  -0.00   0.05     0.13  -0.00   0.24     0.00   0.02   0.08
  24   1     0.03  -0.02  -0.02     0.03  -0.00   0.06    -0.08   0.07   0.13
  25   1     0.17  -0.07   0.03     0.06  -0.02   0.04    -0.09   0.04   0.02
                     52                     53                     54
                        a                      a                      a 
 Frequencies --  1454.2846              1474.7272              1509.2863
 Red. masses --     6.1308                 2.0048                10.7548
 Frc consts  --     0.0000                 0.0000                 0.0000
 IR Inten    --    26.6328                17.3983                 0.7144
 Raman Activ --     0.0000                 0.0000                 0.0000
 Depolar     --     0.0000                 0.0000                 0.0000
 Atom AN      X      Y      Z        X      Y      Z        X      Y      Z
   1   7     0.12   0.07  -0.09    -0.04  -0.01   0.02    -0.00  -0.01   0.00
   2   6     0.07   0.00  -0.03    -0.03   0.25   0.14     0.01   0.01   0.04
   3   6    -0.27   0.12  -0.02     0.04  -0.02  -0.01    -0.04  -0.07  -0.39
   4   6     0.01  -0.03  -0.10    -0.00   0.00   0.01    -0.10   0.12   0.35
   5   6     0.21  -0.07   0.08    -0.02   0.01  -0.01    -0.13   0.01  -0.18
   6   6     0.10  -0.02   0.11    -0.00   0.00  -0.00    -0.06   0.06   0.14
   7   6     0.25  -0.09   0.08    -0.02   0.01  -0.02     0.23  -0.10   0.00
   8   6    -0.20   0.07  -0.07     0.03  -0.01   0.01     0.31  -0.12   0.09
   9   6    -0.09   0.02  -0.08     0.00   0.00   0.01    -0.13   0.09   0.13
  10   6     0.14  -0.06   0.01    -0.02   0.00  -0.02    -0.06  -0.05  -0.35
  11   6    -0.09   0.08   0.18     0.01  -0.01  -0.01    -0.05   0.09   0.31
  12   6    -0.14   0.03  -0.14     0.00   0.00   0.01    -0.13   0.03  -0.14
  13  17     0.00  -0.00  -0.00    -0.00  -0.00  -0.00    -0.00   0.00   0.00
  14   1    -0.08  -0.38   0.20     0.04   0.12  -0.03     0.01   0.02  -0.00
  15   1    -0.36   0.07   0.26     0.13   0.01  -0.03     0.01  -0.01  -0.01
  16   1     0.03   0.08  -0.02     0.04   0.03  -0.00     0.00  -0.01   0.00
  17   1    -0.04  -0.14   0.02     0.04  -0.66   0.11    -0.08   0.04   0.01
  18   1     0.03  -0.05  -0.11    -0.08  -0.27  -0.59     0.01   0.00   0.00
  19   1    -0.10   0.07   0.12     0.00   0.00  -0.00     0.09  -0.06  -0.08
  20   1    -0.11   0.05  -0.00     0.01  -0.00  -0.00     0.10  -0.05  -0.03
  21   1    -0.04   0.02   0.03    -0.02   0.00  -0.00     0.08  -0.02   0.05
  22   1     0.04  -0.02  -0.02     0.01   0.00   0.00     0.11  -0.04   0.06
  23   1     0.01  -0.02  -0.06     0.00   0.00   0.01     0.08  -0.01   0.11
  24   1     0.09  -0.07  -0.14    -0.01   0.00   0.01     0.08  -0.05  -0.06
  25   1     0.11  -0.05  -0.02    -0.00   0.00   0.00     0.11  -0.05  -0.02
                     55                     56                     57
                        a                      a                      a 
 Frequencies --  1575.2401              1608.0580              1612.2945
 Red. masses --    11.6961                11.5281                11.4159
 Frc consts  --     0.0000                 0.0000                 0.0000
 IR Inten    --     1.1011                 2.9675                 0.3607
 Raman Activ --     0.0000                 0.0000                 0.0000
 Depolar     --     0.0000                 0.0000                 0.0000
 Atom AN      X      Y      Z        X      Y      Z        X      Y      Z
   1   7    -0.00   0.00   0.00    -0.01  -0.00   0.00     0.00   0.00   0.00
   2   6    -0.02   0.01  -0.02    -0.04   0.03  -0.01     0.02  -0.01   0.00
   3   6     0.15  -0.00   0.28     0.37  -0.13   0.16    -0.09   0.03  -0.04
   4   6     0.15  -0.12  -0.24    -0.33   0.18   0.17     0.08  -0.04  -0.04
   5   6    -0.14   0.09   0.13     0.44  -0.20  -0.04    -0.05   0.03   0.04
   6   6    -0.15   0.03  -0.17    -0.45   0.16  -0.15     0.05  -0.01   0.04
   7   6     0.01   0.08   0.37     0.23  -0.10  -0.00     0.17  -0.06   0.06
   8   6     0.03  -0.10  -0.37    -0.22   0.08  -0.05    -0.18   0.08   0.00
   9   6     0.12  -0.01   0.19     0.05  -0.02  -0.01     0.44  -0.15   0.17
  10   6    -0.13  -0.02  -0.35    -0.00   0.00   0.00    -0.33   0.09  -0.24
  11   6    -0.17   0.14   0.31     0.00  -0.00   0.00     0.34  -0.18  -0.14
  12   6     0.14  -0.10  -0.16    -0.06   0.02  -0.02    -0.45   0.21   0.05
  13  17     0.00  -0.00  -0.00    -0.00   0.00   0.00    -0.00   0.00  -0.00
  14   1    -0.00  -0.00  -0.00    -0.00   0.00  -0.00     0.00  -0.00   0.00
  15   1    -0.00   0.00   0.00     0.00  -0.00  -0.00    -0.00   0.00   0.00
  16   1     0.00   0.00  -0.00    -0.01  -0.00   0.00     0.00   0.00  -0.00
  17   1     0.04  -0.01  -0.00     0.04  -0.01  -0.00    -0.01   0.00   0.00
  18   1    -0.01   0.01   0.01    -0.04   0.01   0.02     0.01  -0.00  -0.00
  19   1    -0.02   0.02   0.04     0.01  -0.03  -0.12    -0.01   0.01   0.03
  20   1     0.04  -0.01   0.05    -0.09   0.03  -0.05    -0.00   0.00   0.01
  21   1     0.06  -0.03  -0.03     0.11  -0.05  -0.01    -0.00   0.00   0.01
  22   1    -0.04   0.02   0.04    -0.02   0.01  -0.01    -0.10   0.05   0.02
  23   1     0.03   0.00   0.06    -0.00  -0.00  -0.01    -0.01   0.03   0.12
  24   1     0.03  -0.03  -0.05     0.00  -0.00  -0.01    -0.00   0.03   0.12
  25   1    -0.03   0.00  -0.05     0.02  -0.01  -0.00     0.09  -0.03   0.05
                     58                     59                     60
                        a                      a                      a 
 Frequencies --  2932.0719              2952.9115              2978.4757
 Red. masses --     1.9702                 1.9749                 1.5175
 Frc consts  --     0.0000                 0.0000                 0.0000
 IR Inten    --  1238.4386               118.1505                18.0481
 Raman Activ --     0.0000                 0.0000                 0.0000
 Depolar     --     0.0000                 0.0000                 0.0000
 Atom AN      X      Y      Z        X      Y      Z        X      Y      Z
   1   7    -0.03  -0.01  -0.25     0.01   0.00   0.09     0.01   0.00   0.05
   2   6     0.01  -0.03   0.10     0.04  -0.14   0.24     0.01   0.18   0.10
   3   6     0.00   0.00   0.00     0.00  -0.00   0.01    -0.01   0.00   0.01
   4   6     0.01  -0.00   0.01    -0.01   0.00  -0.00    -0.00  -0.00  -0.00
   5   6    -0.00  -0.00  -0.00     0.00   0.00   0.00     0.00  -0.00  -0.00
   6   6    -0.00  -0.00  -0.00    -0.00  -0.00  -0.00     0.00  -0.00  -0.00
   7   6     0.00  -0.00  -0.00    -0.00   0.00   0.00    -0.00   0.00   0.00
   8   6     0.00  -0.00   0.00    -0.00   0.00  -0.00     0.00  -0.00  -0.00
   9   6    -0.00  -0.00  -0.00     0.00  -0.00   0.00    -0.00   0.00  -0.00
  10   6     0.00  -0.00  -0.00    -0.00   0.00  -0.00    -0.00   0.00   0.00
  11   6     0.00  -0.00   0.00    -0.00   0.00   0.00    -0.00   0.00  -0.00
  12   6    -0.00  -0.00  -0.00     0.00  -0.00  -0.00     0.00  -0.00  -0.00
  13  17     0.00  -0.00   0.01    -0.00   0.00  -0.00    -0.00   0.00  -0.00
  14   1    -0.03   0.02  -0.00     0.01  -0.01  -0.00     0.01  -0.00   0.00
  15   1     0.00  -0.04   0.00     0.00  -0.00   0.01    -0.00   0.03  -0.01
  16   1     0.15   0.08   0.87    -0.06  -0.03  -0.31    -0.02  -0.01  -0.14
  17   1    -0.03  -0.05  -0.32    -0.07  -0.11  -0.57    -0.09  -0.08  -0.69
  18   1    -0.01   0.13  -0.05    -0.07   0.62  -0.28     0.06  -0.58   0.31
  19   1    -0.03   0.01  -0.02     0.02  -0.01   0.01     0.01  -0.00   0.00
  20   1     0.00   0.00   0.01    -0.00  -0.00  -0.00    -0.00   0.00   0.00
  21   1    -0.00   0.00   0.00    -0.00   0.00   0.01    -0.00   0.00   0.01
  22   1     0.00   0.00   0.00     0.00   0.00  -0.00     0.00   0.00   0.00
  23   1    -0.00   0.00   0.00     0.00  -0.00  -0.00     0.00  -0.00  -0.00
  24   1    -0.00  -0.00  -0.00     0.00  -0.00   0.00     0.00   0.00   0.00
  25   1    -0.00  -0.00   0.00    -0.00   0.00   0.00     0.00   0.00   0.00
                     61                     62                     63
                        a                      a                      a 
 Frequencies --  3088.9122              3091.3953              3098.7221
 Red. masses --     1.8665                 1.7558                 1.8074
 Frc consts  --     0.0000                 0.0000                 0.0000
 IR Inten    --   298.8045                 2.6784                22.3607
 Raman Activ --     0.0000                 0.0000                 0.0000
 Depolar     --     0.0000                 0.0000                 0.0000
 Atom AN      X      Y      Z        X      Y      Z        X      Y      Z
   1   7    -0.00   0.00  -0.01     0.00   0.00   0.00    -0.00   0.00  -0.00
   2   6     0.00   0.00  -0.00     0.00  -0.00  -0.00    -0.00  -0.00  -0.00
   3   6    -0.01   0.00   0.00    -0.00   0.00  -0.00     0.00  -0.00  -0.00
   4   6    -0.22   0.06  -0.16    -0.00   0.00  -0.00     0.00  -0.00   0.00
   5   6     0.00   0.01   0.04    -0.00   0.00   0.00    -0.00   0.00   0.01
   6   6     0.00   0.00   0.02     0.00   0.00   0.01     0.00  -0.01  -0.04
   7   6     0.00   0.00   0.00     0.00  -0.00  -0.00    -0.00   0.00   0.00
   8   6     0.00  -0.00   0.00    -0.00  -0.00  -0.00     0.00  -0.00  -0.00
   9   6     0.00  -0.00  -0.01    -0.00  -0.01  -0.04     0.00  -0.02  -0.09
  10   6     0.00  -0.00  -0.00    -0.13   0.07   0.06    -0.15   0.08   0.06
  11   6     0.00  -0.00   0.00     0.15  -0.04   0.11    -0.08   0.02  -0.06
  12   6    -0.00   0.00   0.01     0.01  -0.02  -0.08    -0.01   0.03   0.14
  13  17     0.00   0.00  -0.00     0.00   0.00   0.00    -0.00  -0.00  -0.00
  14   1     0.00   0.00   0.00     0.00  -0.00  -0.00    -0.00   0.00   0.00
  15   1     0.00  -0.01   0.01    -0.00  -0.00   0.00     0.00  -0.00   0.00
  16   1     0.01   0.00   0.04    -0.00   0.00  -0.00     0.00   0.00   0.00
  17   1     0.00   0.00   0.01     0.00   0.00   0.00    -0.00   0.00   0.00
  18   1     0.00  -0.01   0.00     0.00  -0.00   0.00    -0.00   0.00  -0.00
  19   1     0.73  -0.19   0.56     0.00  -0.00   0.00    -0.01   0.00  -0.01
  20   1     0.01  -0.04  -0.15     0.00  -0.00  -0.01     0.00  -0.01  -0.04
  21   1     0.00  -0.01  -0.05     0.00  -0.01  -0.03    -0.00   0.03   0.13
  22   1    -0.00   0.01   0.03    -0.01   0.04   0.16    -0.01   0.08   0.34
  23   1    -0.01   0.01   0.01     0.47  -0.25  -0.21     0.51  -0.28  -0.23
  24   1    -0.01   0.00  -0.00    -0.54   0.14  -0.41     0.29  -0.08   0.22
  25   1     0.00  -0.01  -0.03    -0.01   0.07   0.30     0.02  -0.12  -0.49
                     64                     65                     66
                        a                      a                      a 
 Frequencies --  3106.1632              3110.0054              3113.4686
 Red. masses --     1.8380                 1.8460                 1.8858
 Frc consts  --     0.0000                 0.0000                 0.0000
 IR Inten    --    19.1073                80.4340                 6.4455
 Raman Activ --     0.0000                 0.0000                 0.0000
 Depolar     --     0.0000                 0.0000                 0.0000
 Atom AN      X      Y      Z        X      Y      Z        X      Y      Z
   1   7     0.00  -0.00   0.00    -0.00   0.00  -0.00     0.00  -0.00   0.00
   2   6    -0.00   0.00   0.00     0.00  -0.00  -0.00    -0.00   0.00   0.00
   3   6    -0.01   0.00   0.01     0.00  -0.00  -0.00    -0.00   0.00  -0.00
   4   6     0.01  -0.00   0.00    -0.00   0.00   0.00     0.04  -0.01   0.03
   5   6    -0.00   0.00   0.00    -0.00   0.01   0.04    -0.01   0.04   0.17
   6   6    -0.01   0.05   0.22     0.00  -0.03  -0.13    -0.00   0.01   0.04
   7   6     0.01  -0.00   0.01     0.00  -0.00  -0.01    -0.00   0.00   0.00
   8   6    -0.00   0.00  -0.00    -0.00   0.00  -0.00    -0.01   0.00  -0.00
   9   6     0.00  -0.01  -0.05     0.00  -0.03  -0.12     0.00  -0.03  -0.14
  10   6    -0.03   0.02   0.01     0.02  -0.01  -0.00     0.08  -0.05  -0.04
  11   6    -0.08   0.02  -0.06    -0.07   0.02  -0.05     0.06  -0.02   0.05
  12   6     0.01  -0.02  -0.10     0.01  -0.04  -0.17    -0.01   0.02   0.08
  13  17     0.00   0.00   0.00    -0.00   0.00  -0.00     0.00  -0.00   0.00
  14   1     0.00   0.00   0.00    -0.00   0.00   0.00    -0.00   0.00   0.00
  15   1     0.00   0.00  -0.00     0.00  -0.00   0.00    -0.00   0.00  -0.00
  16   1    -0.00  -0.00  -0.00     0.00  -0.00   0.00    -0.00  -0.00  -0.00
  17   1     0.00  -0.00  -0.01    -0.00   0.00   0.01     0.00  -0.00  -0.00
  18   1     0.00  -0.00   0.00     0.00  -0.00  -0.00     0.00  -0.00   0.00
  19   1    -0.03   0.01  -0.02     0.00  -0.00   0.00    -0.11   0.03  -0.08
  20   1     0.00  -0.00  -0.01     0.01  -0.04  -0.14     0.02  -0.15  -0.60
  21   1     0.03  -0.19  -0.78    -0.02   0.12   0.47     0.01  -0.04  -0.15
  22   1    -0.01   0.04   0.18    -0.02   0.11   0.44    -0.02   0.12   0.47
  23   1     0.11  -0.06  -0.05    -0.04   0.02   0.02    -0.27   0.15   0.12
  24   1     0.27  -0.07   0.20     0.24  -0.06   0.18    -0.21   0.06  -0.16
  25   1    -0.02   0.08   0.33    -0.02   0.14   0.59     0.01  -0.06  -0.26
                     67                     68                     69
                        a                      a                      a 
 Frequencies --  3115.9849              3158.1267              3184.4876
 Red. masses --     1.8630                 1.8259                 1.6866
 Frc consts  --     0.0000                 0.0000                 0.0000
 IR Inten    --    24.9400                33.9074                29.1408
 Raman Activ --     0.0000                 0.0000                 0.0000
 Depolar     --     0.0000                 0.0000                 0.0000
 Atom AN      X      Y      Z        X      Y      Z        X      Y      Z
   1   7     0.00   0.00  -0.00    -0.05   0.24  -0.06    -0.19   0.08   0.10
   2   6     0.00   0.00   0.00     0.00   0.01  -0.00    -0.00  -0.00   0.00
   3   6     0.00  -0.00  -0.00     0.00  -0.00  -0.00    -0.00  -0.00  -0.00
   4   6     0.02  -0.01   0.02     0.00  -0.00   0.00     0.00  -0.00  -0.00
   5   6    -0.01   0.05   0.19     0.00  -0.00  -0.00     0.00   0.00   0.00
   6   6     0.00  -0.00  -0.02    -0.00   0.00   0.00     0.00  -0.00  -0.00
   7   6     0.00  -0.00  -0.00    -0.00   0.00  -0.00    -0.00   0.00  -0.00
   8   6    -0.00   0.00   0.01    -0.00   0.00  -0.00     0.00  -0.00  -0.00
   9   6    -0.00   0.04   0.15     0.00  -0.00  -0.00    -0.00   0.00   0.00
  10   6    -0.07   0.04   0.03     0.00  -0.00  -0.00    -0.00   0.00   0.00
  11   6    -0.04   0.01  -0.03     0.00  -0.00   0.00    -0.00   0.00  -0.00
  12   6     0.00  -0.01  -0.04    -0.00   0.00   0.00     0.00  -0.00  -0.00
  13  17    -0.00  -0.00  -0.00     0.00  -0.00  -0.00    -0.00  -0.00  -0.00
  14   1    -0.00   0.00   0.00     0.09  -0.03  -0.06     0.76  -0.42  -0.41
  15   1     0.00  -0.00   0.00     0.11  -0.88   0.36    -0.03   0.12  -0.03
  16   1     0.00   0.00   0.00    -0.01   0.02  -0.06    -0.01   0.01   0.07
  17   1    -0.00   0.00  -0.00    -0.00  -0.00  -0.01     0.00   0.00   0.00
  18   1     0.00  -0.00   0.00     0.00  -0.03   0.01     0.00   0.00  -0.00
  19   1    -0.06   0.02  -0.05    -0.01   0.00  -0.01    -0.00   0.00   0.00
  20   1     0.02  -0.17  -0.68    -0.00   0.00   0.00     0.00  -0.00  -0.00
  21   1    -0.00   0.01   0.06     0.00  -0.00  -0.00    -0.00   0.00   0.00
  22   1     0.02  -0.13  -0.53    -0.00   0.00   0.00     0.00  -0.00  -0.00
  23   1     0.22  -0.12  -0.10    -0.00   0.00   0.00     0.00  -0.00  -0.00
  24   1     0.12  -0.03   0.09    -0.00   0.00  -0.00     0.00  -0.00   0.00
  25   1    -0.01   0.03   0.13     0.00  -0.00  -0.00    -0.00   0.00   0.00
