      -----------------------------------------------------------      
     |                   =====================                   |     
     |                           x T B                           |     
     |                   =====================                   |     
     |                         S. Grimme                         |     
     |          Mulliken Center for Theoretical Chemistry        |     
     |                    University of Bonn                     |     
      -----------------------------------------------------------      

   * xtb version 6.5.1 (fef0646) compiled by 'conda@b96dff2e9fd6' on 2023-01-04

   xtb is free software: you can redistribute it and/or modify it under
   the terms of the GNU Lesser General Public License as published by
   the Free Software Foundation, either version 3 of the License, or
   (at your option) any later version.
   
   xtb is distributed in the hope that it will be useful,
   but WITHOUT ANY WARRANTY; without even the implied warranty of
   MERCHANTABILITY or FITNESS FOR A PARTICULAR PURPOSE.  See the
   GNU Lesser General Public License for more details.
   
   Cite this work as:
   * C. Bannwarth, E. Caldeweyher, S. Ehlert, A. Hansen, P. Pracht,
     J. Seibert, S. Spicher, S. Grimme, WIREs Comput. Mol. Sci., 2020, 11,
     e01493. DOI: 10.1002/wcms.1493
   
   for GFN2-xTB:
   * C. Bannwarth, S. Ehlert and S. Grimme., J. Chem. Theory Comput., 2019,
     15, 1652-1671. DOI: 10.1021/acs.jctc.8b01176
   for GFN1-xTB:
   * S. Grimme, C. Bannwarth, P. Shushkov, J. Chem. Theory Comput., 2017,
     13, 1989-2009. DOI: 10.1021/acs.jctc.7b00118
   for GFN0-xTB:
   * P. Pracht, E. Caldeweyher, S. Ehlert, S. Grimme, ChemRxiv, 2019, preprint.
     DOI: 10.26434/chemrxiv.8326202.v1
   for GFN-FF:
   * S. Spicher and S. Grimme, Angew. Chem. Int. Ed., 2020, 59, 15665-15673.
     DOI: 10.1002/anie.202004239
   
   for ALPB and GBSA implicit solvation:
   * S. Ehlert, M. Stahn, S. Spicher, S. Grimme, J. Chem. Theory Comput.,
     2021, 17, 4250-4261. DOI: 10.1021/acs.jctc.1c00471
   
   for DFT-D4:
   * E. Caldeweyher, C. Bannwarth and S. Grimme, J. Chem. Phys., 2017,
     147, 034112. DOI: 10.1063/1.4993215
   * E. Caldeweyher, S. Ehlert, A. Hansen, H. Neugebauer, S. Spicher,
     C. Bannwarth and S. Grimme, J. Chem. Phys., 2019, 150, 154122.
     DOI: 10.1063/1.5090222
   * E. Caldeweyher, J.-M. Mewes, S. Ehlert and S. Grimme, Phys. Chem. Chem. Phys.
     2020, 22, 8499-8512. DOI: 10.1039/D0CP00502A
   
   for sTDA-xTB:
   * S. Grimme and C. Bannwarth, J. Chem. Phys., 2016, 145, 054103.
     DOI: 10.1063/1.4959605
   
   in the mass-spec context:
   * V. Asgeirsson, C. Bauer and S. Grimme, Chem. Sci., 2017, 8, 4879.
     DOI: 10.1039/c7sc00601b
   * J. Koopman and S. Grimme, ACS Omega 2019, 4, 12, 15120-15133.
     DOI: 10.1021/acsomega.9b02011
   
   for metadynamics refer to:
   * S. Grimme, J. Chem. Theory Comput., 2019, 155, 2847-2862
     DOI: 10.1021/acs.jctc.9b00143
   
   for SPH calculations refer to:
   * S. Spicher and S. Grimme, J. Chem. Theory Comput., 2021, 17, 1701-1714
     DOI: 10.1021/acs.jctc.0c01306
   
   with help from (in alphabetical order)
   P. Atkinson, C. Bannwarth, F. Bohle, G. Brandenburg, E. Caldeweyher
   M. Checinski, S. Dohm, S. Ehlert, S. Ehrlich, I. Gerasimov, C. Hölzer
   A. Katbashev, J. Koopman, C. Lavigne, S. Lehtola, F. März, M. Müller,
   F. Musil, H. Neugebauer, J. Pisarek, C. Plett, P. Pracht, F. Pultar,
   J. Seibert, P. Shushkov, S. Spicher, M. Stahn, M. Steiner, T. Strunk,
   J. Stückrath, T. Rose, and J. Unsleber
   
 * started run on 2023/01/23 at 14:14:14.528     

           -------------------------------------------------
          |                Calculation Setup                |
           -------------------------------------------------

          program call               : xtb init.xyz --opt -c 0 -u 0 -P 16
          hostname                   : gpg-woodward
          coordinate file            : init.xyz
          omp threads                :                    16

   ID    Z sym.   atoms
    1    7 N      1
    2    6 C      2-6
    3    8 O      7, 8
    4   17 Cl     9
    5    1 H      10-21

molecular fragmentation (1/2 indicates fragments):
111111112111111111111
# atoms in fragment 1/2:    20     1
 fragment masses (1/2) :      118.15       35.45
CMA distance (Bohr)    :  10.868
constraining FC (au)   :  0.0500

           -------------------------------------------------
          |                 G F N 2 - x T B                 |
           -------------------------------------------------

        Reference                      10.1021/acs.jctc.8b01176
      * Hamiltonian:
        H0-scaling (s, p, d)           1.850000    2.230000    2.230000
        zeta-weighting                 0.500000
      * Dispersion:
        s8                             2.700000
        a1                             0.520000
        a2                             5.000000
        s9                             5.000000
      * Repulsion:
        kExp                           1.500000    1.000000
        rExp                           1.000000
      * Coulomb:
        alpha                          2.000000
        third order                    shell-resolved
        anisotropic                    true
        a3                             3.000000
        a5                             4.000000
        cn-shift                       1.200000
        cn-exp                         4.000000
        max-rad                        5.000000


          ...................................................
          :                      SETUP                      :
          :.................................................:
          :  # basis functions                  54          :
          :  # atomic orbitals                  53          :
          :  # shells                           31          :
          :  # electrons                        56          :
          :  max. iterations                   250          :
          :  Hamiltonian                  GFN2-xTB          :
          :  restarted?                      false          :
          :  GBSA solvation                  false          :
          :  PC potential                    false          :
          :  electronic temp.          300.0000000     K    :
          :  accuracy                    1.0000000          :
          :  -> integral cutoff          0.2500000E+02      :
          :  -> integral neglect         0.1000000E-07      :
          :  -> SCF convergence          0.1000000E-05 Eh   :
          :  -> wf. convergence          0.1000000E-03 e    :
          :  Broyden damping             0.4000000          :
          ...................................................

 iter      E             dE          RMSdq      gap      omega  full diag
   1    -32.5513063 -0.325513E+02  0.450E+00    5.39       0.0  T
   2    -32.6972503 -0.145944E+00  0.235E+00    3.61       1.0  T
   3    -32.7038630 -0.661278E-02  0.144E+00    3.20       1.0  T
   4    -32.7061142 -0.225113E-02  0.529E-01    2.32       1.0  T
   5    -32.7079800 -0.186584E-02  0.277E-01    2.30       1.0  T
   6    -32.7084745 -0.494497E-03  0.121E-01    2.32       1.0  T
   7    -32.7085724 -0.978498E-04  0.615E-02    2.33       1.0  T
   8    -32.7085981 -0.257721E-04  0.151E-02    2.32       1.4  T
   9    -32.7085990 -0.836226E-06  0.698E-03    2.31       3.1  T
  10    -32.7085991 -0.180143E-06  0.274E-03    2.31       8.0  T
  11    -32.7085992 -0.381841E-07  0.874E-04    2.31      25.0  T
  12    -32.7085992 -0.284884E-08  0.291E-04    2.31      75.0  T

   *** convergence criteria satisfied after 12 iterations ***

         #    Occupation            Energy/Eh            Energy/eV
      -------------------------------------------------------------
         1        2.0000           -0.9581323             -26.0721
       ...           ...                  ...                  ...
        22        2.0000           -0.4904079             -13.3447
        23        2.0000           -0.4791976             -13.0396
        24        2.0000           -0.4785211             -13.0212
        25        2.0000           -0.4348338             -11.8324
        26        2.0000           -0.3579564              -9.7405
        27        2.0000           -0.3469671              -9.4415
        28        2.0000           -0.3467253              -9.4349 (HOMO)
        29                         -0.2617236              -7.1219 (LUMO)
        30                         -0.0934784              -2.5437
        31                          0.0097086               0.2642
        32                          0.0337057               0.9172
        33                          0.0382485               1.0408
       ...                                ...                  ...
        53                          0.5541300              15.0786
      -------------------------------------------------------------
                  HL-Gap            0.0850017 Eh            2.3130 eV
             Fermi-level           -0.3042245 Eh           -8.2784 eV

 SCC (total)                   0 d,  0 h,  0 min,  0.028 sec
 SCC setup                      ...        0 min,  0.000 sec (  0.687%)
 Dispersion                     ...        0 min,  0.000 sec (  1.309%)
 classical contributions        ...        0 min,  0.000 sec (  0.272%)
 integral evaluation            ...        0 min,  0.001 sec (  4.350%)
 iterations                     ...        0 min,  0.023 sec ( 83.801%)
 molecular gradient             ...        0 min,  0.002 sec (  7.892%)
 printout                       ...        0 min,  0.000 sec (  0.678%)

         :::::::::::::::::::::::::::::::::::::::::::::::::::::
         ::                     SUMMARY                     ::
         :::::::::::::::::::::::::::::::::::::::::::::::::::::
         :: total energy             -32.406748564048 Eh    ::
         :: gradient norm              0.075698817407 Eh/a0 ::
         :: HOMO-LUMO gap              2.313015135333 eV    ::
         ::.................................................::
         :: SCC energy               -32.708599190695 Eh    ::
         :: -> isotropic ES            0.137679090572 Eh    ::
         :: -> anisotropic ES         -0.020107748891 Eh    ::
         :: -> anisotropic XC         -0.001890649801 Eh    ::
         :: -> dispersion             -0.012781422737 Eh    ::
         :: repulsion energy           0.301873894258 Eh    ::
         :: add. restraining           0.000000000000 Eh    ::
         :: total charge               0.000000000000 e     ::
         :::::::::::::::::::::::::::::::::::::::::::::::::::::

      ----------------------------------------------------------- 
     |                   =====================                   |
     |                        A N C O P T                        |
     |                   =====================                   |
     |               Approximate Normal Coordinate               |
     |                Rational Function Optimizer                |
      ----------------------------------------------------------- 

          ...................................................
          :                      SETUP                      :
          :.................................................:
          :   optimization level            normal          :
          :   max. optcycles                   200          :
          :   ANC micro-cycles                  20          :
          :   degrees of freedom                57          :
          :.................................................:
          :   RF solver                   davidson          :
          :   write xtbopt.log                true          :
          :   linear?                        false          :
          :   energy convergence         0.5000000E-05 Eh   :
          :   grad. convergence          0.1000000E-02 Eh/α :
          :   maximium RF displ.         1.0000000          :
          :   Hlow (freq-cutoff)         0.1000000E-01      :
          :   Hmax (freq-cutoff)         5.0000000          :
          :   S6 in model hess.         20.0000000          :
          ...................................................

generating ANC from model Hessian ...
Using Lindh-Hessian (1995)
 Shifting diagonal of input Hessian by    9.7645149565629662E-003
 Lowest  eigenvalues of input Hessian
    0.000000    0.000000    0.000000    0.000000    0.000000    0.000000
    0.010000    0.010717    0.011276    0.012129    0.013958    0.016900
    0.019167    0.020353    0.022437    0.025202    0.034604    0.042164
 Highest eigenvalues
    1.279012    1.323502    1.438012    1.558182    1.708761    2.253260


........................................................................
.............................. CYCLE    1 ..............................
........................................................................
   1    -32.7085992 -0.327086E+02  0.156E-04    2.31       0.0  T
   2    -32.7085992 -0.494893E-10  0.120E-04    2.31     182.4  T
   3    -32.7085992 -0.629043E-10  0.577E-05    2.31     378.4  T
     SCC iter.                  ...        0 min,  0.006 sec
     gradient                   ...        0 min,  0.002 sec
 * total energy  :   -32.4067486 Eh     change       -0.3754153E-09 Eh
   gradient norm :     0.0756990 Eh/α   predicted     0.0000000E+00 (-100.00%)
   displ. norm   :     0.2548205 α      lambda       -0.1140627E-01
   maximum displ.:     0.0849731 α      in ANC's #34, #13, #35, ...

........................................................................
.............................. CYCLE    2 ..............................
........................................................................
   1    -32.7222346 -0.327222E+02  0.283E-01    2.71       0.0  T
   2    -32.7224824 -0.247842E-03  0.171E-01    2.73       1.0  T
   3    -32.7225025 -0.200362E-04  0.633E-02    2.79       1.0  T
   4    -32.7225090 -0.651346E-05  0.266E-02    2.81       1.0  T
   5    -32.7225118 -0.277064E-05  0.204E-02    2.82       1.1  T
   6    -32.7225143 -0.249512E-05  0.112E-02    2.82       1.9  T
   7    -32.7225153 -0.100624E-05  0.555E-03    2.82       3.9  T
   8    -32.7225155 -0.264401E-06  0.118E-03    2.82      18.5  T
   9    -32.7225155 -0.633428E-08  0.522E-04    2.82      41.8  T
  10    -32.7225155 -0.586788E-09  0.138E-04    2.82     157.6  T
     SCC iter.                  ...        0 min,  0.017 sec
     gradient                   ...        0 min,  0.002 sec
 * total energy  :   -32.4145418 Eh     change       -0.7793258E-02 Eh
   gradient norm :     0.0443013 Eh/α   predicted    -0.6075536E-02 ( -22.04%)
   displ. norm   :     0.3238121 α      lambda       -0.6560881E-02
   maximum displ.:     0.1781797 α      in ANC's #5, #2, #13, ...

........................................................................
.............................. CYCLE    3 ..............................
........................................................................
   1    -32.7293612 -0.327294E+02  0.247E-01    3.00       0.0  T
   2    -32.7295480 -0.186798E-03  0.148E-01    3.04       1.0  T
   3    -32.7295650 -0.169882E-04  0.508E-02    3.10       1.0  T
   4    -32.7295695 -0.454767E-05  0.219E-02    3.12       1.0  T
   5    -32.7295711 -0.156822E-05  0.165E-02    3.13       1.3  T
   6    -32.7295729 -0.178234E-05  0.803E-03    3.13       2.7  T
   7    -32.7295733 -0.434887E-06  0.423E-03    3.13       5.2  T
   8    -32.7295735 -0.145916E-06  0.114E-03    3.13      19.2  T
   9    -32.7295735 -0.627749E-08  0.691E-04    3.13      31.6  T
  10    -32.7295735 -0.229215E-08  0.388E-04    3.13      56.3  T
     SCC iter.                  ...        0 min,  0.017 sec
     gradient                   ...        0 min,  0.002 sec
 * total energy  :   -32.4189797 Eh     change       -0.4437928E-02 Eh
   gradient norm :     0.0408104 Eh/α   predicted    -0.3624538E-02 ( -18.33%)
   displ. norm   :     0.2950302 α      lambda       -0.4055494E-02
   maximum displ.:     0.1467457 α      in ANC's #5, #2, #35, ...

........................................................................
.............................. CYCLE    4 ..............................
........................................................................
   1    -32.7293372 -0.327293E+02  0.272E-01    3.13       0.0  T
   2    -32.7296785 -0.341292E-03  0.157E-01    3.26       1.0  T
   3    -32.7297148 -0.363566E-04  0.708E-02    3.35       1.0  T
   4    -32.7297277 -0.129055E-04  0.375E-02    3.41       1.0  T
   5    -32.7297331 -0.537127E-05  0.291E-02    3.41       1.0  T
   6    -32.7297403 -0.716901E-05  0.128E-02    3.41       1.7  T
   7    -32.7297417 -0.143996E-05  0.634E-03    3.41       3.4  T
   8    -32.7297421 -0.361811E-06  0.142E-03    3.41      15.4  T
   9    -32.7297421 -0.774537E-08  0.896E-04    3.41      24.3  T
  10    -32.7297421 -0.395638E-08  0.562E-04    3.41      38.9  T
     SCC iter.                  ...        0 min,  0.017 sec
     gradient                   ...        0 min,  0.002 sec
 * total energy  :   -32.4220370 Eh     change       -0.3057295E-02 Eh
   gradient norm :     0.0334481 Eh/α   predicted    -0.2204251E-02 ( -27.90%)
   displ. norm   :     0.3608055 α      lambda       -0.4059280E-02
   maximum displ.:     0.1638445 α      in ANC's #2, #5, #1, ...

........................................................................
.............................. CYCLE    5 ..............................
........................................................................
   1    -32.7299761 -0.327300E+02  0.316E-01    3.39       0.0  T
   2    -32.7304265 -0.450380E-03  0.177E-01    3.54       1.0  T
   3    -32.7304721 -0.456687E-04  0.730E-02    3.67       1.0  T
   4    -32.7304844 -0.122489E-04  0.356E-02    3.74       1.0  T
   5    -32.7304891 -0.475161E-05  0.274E-02    3.74       1.0  T
   6    -32.7304954 -0.629596E-05  0.137E-02    3.74       1.6  T
   7    -32.7304970 -0.158169E-05  0.772E-03    3.74       2.8  T
   8    -32.7304976 -0.620468E-06  0.206E-03    3.74      10.6  T
   9    -32.7304977 -0.180548E-07  0.144E-03    3.74      15.2  T
  10    -32.7304977 -0.127461E-07  0.839E-04    3.74      26.0  T
  11    -32.7304977 -0.560271E-08  0.231E-04    3.74      94.4  T
     SCC iter.                  ...        0 min,  0.014 sec
     gradient                   ...        0 min,  0.001 sec
 * total energy  :   -32.4251113 Eh     change       -0.3074304E-02 Eh
   gradient norm :     0.0220470 Eh/α   predicted    -0.2293861E-02 ( -25.39%)
   displ. norm   :     0.3482645 α      lambda       -0.3288515E-02
   maximum displ.:     0.1208341 α      in ANC's #35, #4, #2, ...

........................................................................
.............................. CYCLE    6 ..............................
........................................................................
   1    -32.7323014 -0.327323E+02  0.319E-01    3.78       0.0  T
   2    -32.7328310 -0.529604E-03  0.176E-01    3.95       1.0  T
   3    -32.7328888 -0.578130E-04  0.833E-02    4.10       1.0  T
   4    -32.7329088 -0.199984E-04  0.429E-02    4.18       1.0  T
   5    -32.7329171 -0.822640E-05  0.332E-02    4.19       1.0  T
   6    -32.7329291 -0.120648E-04  0.155E-02    4.19       1.4  T
   7    -32.7329318 -0.266148E-05  0.632E-03    4.19       3.5  T
   8    -32.7329323 -0.454565E-06  0.199E-03    4.19      11.0  T
   9    -32.7329323 -0.145974E-07  0.125E-03    4.19      17.5  T
  10    -32.7329323 -0.675831E-08  0.727E-04    4.19      30.0  T
  11    -32.7329323 -0.293488E-08  0.392E-04    4.19      55.6  T
     SCC iter.                  ...        0 min,  0.014 sec
     gradient                   ...        0 min,  0.001 sec
 * total energy  :   -32.4269499 Eh     change       -0.1838543E-02 Eh
   gradient norm :     0.0163846 Eh/α   predicted    -0.1843694E-02 (   0.28%)
   displ. norm   :     0.2280425 α      lambda       -0.1549268E-02
   maximum displ.:     0.1209002 α      in ANC's #2, #1, #13, ...

........................................................................
.............................. CYCLE    7 ..............................
........................................................................
   1    -32.7316858 -0.327317E+02  0.139E-01    4.18       0.0  T
   2    -32.7317129 -0.271416E-04  0.835E-02    4.18       1.0  T
   3    -32.7317227 -0.977100E-05  0.276E-02    4.19       1.0  T
   4    -32.7317255 -0.278770E-05  0.189E-02    4.18       1.2  T
   5    -32.7317274 -0.197851E-05  0.145E-02    4.18       1.5  T
   6    -32.7317294 -0.197746E-05  0.904E-03    4.18       2.4  T
   7    -32.7317304 -0.977999E-06  0.199E-03    4.18      11.0  T
   8    -32.7317304 -0.388889E-07  0.106E-03    4.18      20.5  T
   9    -32.7317304 -0.524616E-08  0.701E-04    4.18      31.1  T
  10    -32.7317304 -0.347757E-08  0.363E-04    4.18      60.2  T
     SCC iter.                  ...        0 min,  0.013 sec
     gradient                   ...        0 min,  0.001 sec
 * total energy  :   -32.4273935 Eh     change       -0.4435894E-03 Eh
   gradient norm :     0.0127066 Eh/α   predicted    -0.8149451E-03 (  83.72%)
   displ. norm   :     0.1265069 α      lambda       -0.7793987E-03
   maximum displ.:     0.0756124 α      in ANC's #4, #2, #5, ...

........................................................................
.............................. CYCLE    8 ..............................
........................................................................
   1    -32.7336302 -0.327336E+02  0.959E-02    4.24       0.0  T
   2    -32.7336496 -0.193855E-04  0.574E-02    4.26       1.0  T
   3    -32.7336544 -0.473970E-05  0.234E-02    4.30       1.0  T
   4    -32.7336563 -0.189050E-05  0.151E-02    4.31       1.4  T
   5    -32.7336573 -0.101238E-05  0.118E-02    4.31       1.8  T
   6    -32.7336588 -0.147838E-05  0.406E-03    4.31       5.4  T
   7    -32.7336589 -0.142300E-06  0.202E-03    4.31      10.8  T
   8    -32.7336589 -0.324336E-07  0.119E-03    4.31      18.4  T
   9    -32.7336589 -0.882515E-08  0.827E-04    4.31      26.4  T
  10    -32.7336589 -0.635639E-08  0.329E-04    4.31      66.4  T
     SCC iter.                  ...        0 min,  0.013 sec
     gradient                   ...        0 min,  0.001 sec
 * total energy  :   -32.4278029 Eh     change       -0.4093830E-03 Eh
   gradient norm :     0.0056184 Eh/α   predicted    -0.3959405E-03 (  -3.28%)
   displ. norm   :     0.0886172 α      lambda       -0.2164118E-03
   maximum displ.:     0.0567819 α      in ANC's #4, #5, #7, ...

........................................................................
.............................. CYCLE    9 ..............................
........................................................................
   1    -32.7340817 -0.327341E+02  0.540E-02    4.31       0.0  T
   2    -32.7340826 -0.935679E-06  0.327E-02    4.31       1.0  T
   3    -32.7340833 -0.707684E-06  0.716E-03    4.32       3.0  T
   4    -32.7340835 -0.156607E-06  0.567E-03    4.32       3.8  T
   5    -32.7340837 -0.188713E-06  0.277E-03    4.32       7.9  T
   6    -32.7340837 -0.571350E-07  0.101E-03    4.32      21.5  T
   7    -32.7340837 -0.434697E-08  0.457E-04    4.32      47.8  T
   8    -32.7340837 -0.986624E-09  0.201E-04    4.32     108.5  T
     SCC iter.                  ...        0 min,  0.010 sec
     gradient                   ...        0 min,  0.001 sec
 * total energy  :   -32.4279163 Eh     change       -0.1134840E-03 Eh
   gradient norm :     0.0029637 Eh/α   predicted    -0.1090579E-03 (  -3.90%)
   displ. norm   :     0.0561490 α      lambda       -0.4723533E-04
   maximum displ.:     0.0395533 α      in ANC's #4, #5, #2, ...

........................................................................
.............................. CYCLE   10 ..............................
........................................................................
   1    -32.7340084 -0.327340E+02  0.221E-02    4.32       0.0  T
   2    -32.7340086 -0.236483E-06  0.133E-02    4.32       1.6  T
   3    -32.7340088 -0.122731E-06  0.322E-03    4.32       6.8  T
   4    -32.7340088 -0.419702E-07  0.248E-03    4.32       8.8  T
   5    -32.7340088 -0.346631E-07  0.161E-03    4.32      13.6  T
   6    -32.7340089 -0.211154E-07  0.805E-04    4.32      27.1  T
   7    -32.7340089 -0.498708E-08  0.345E-04    4.32      63.3  T
     SCC iter.                  ...        0 min,  0.009 sec
     gradient                   ...        0 min,  0.001 sec
 * total energy  :   -32.4279478 Eh     change       -0.3141645E-04 Eh
   gradient norm :     0.0010746 Eh/α   predicted    -0.2369543E-04 ( -24.58%)
   displ. norm   :     0.1021647 α      lambda       -0.2527841E-04
   maximum displ.:     0.0682595 α      in ANC's #4, #2, #10, ...

........................................................................
.............................. CYCLE   11 ..............................
........................................................................
   1    -32.7337123 -0.327337E+02  0.256E-02    4.32       0.0  T
   2    -32.7337127 -0.319902E-06  0.150E-02    4.33       1.5  T
   3    -32.7337127 -0.694630E-07  0.203E-03    4.33      10.7  T
   4    -32.7337127 -0.126478E-07  0.118E-03    4.33      18.5  T
   5    -32.7337128 -0.418029E-08  0.778E-04    4.33      28.0  T
   6    -32.7337128 -0.301929E-08  0.444E-04    4.33      49.1  T
     SCC iter.                  ...        0 min,  0.008 sec
     gradient                   ...        0 min,  0.001 sec
 * total energy  :   -32.4279709 Eh     change       -0.2310558E-04 Eh
   gradient norm :     0.0014769 Eh/α   predicted    -0.1269814E-04 ( -45.04%)
   displ. norm   :     0.0861808 α      lambda       -0.1724541E-04
   maximum displ.:     0.0658063 α      in ANC's #2, #4, #3, ...

........................................................................
.............................. CYCLE   12 ..............................
........................................................................
   1    -32.7337762 -0.327338E+02  0.260E-02    4.33       0.0  T
   2    -32.7337764 -0.163067E-06  0.156E-02    4.33       1.4  T
   3    -32.7337765 -0.132295E-06  0.309E-03    4.33       7.1  T
   4    -32.7337766 -0.289823E-07  0.242E-03    4.33       9.0  T
   5    -32.7337766 -0.326925E-07  0.125E-03    4.33      17.4  T
   6    -32.7337766 -0.121059E-07  0.383E-04    4.33      57.0  T
   7    -32.7337766 -0.620908E-09  0.206E-04    4.33     105.8  T
     SCC iter.                  ...        0 min,  0.009 sec
     gradient                   ...        0 min,  0.001 sec
 * total energy  :   -32.4279909 Eh     change       -0.2007696E-04 Eh
   gradient norm :     0.0015162 Eh/α   predicted    -0.8653834E-05 ( -56.90%)
   displ. norm   :     0.1452942 α      lambda       -0.2242014E-04
   maximum displ.:     0.1121332 α      in ANC's #2, #4, #3, ...

........................................................................
.............................. CYCLE   13 ..............................
........................................................................
   1    -32.7338346 -0.327338E+02  0.417E-02    4.33       0.0  T
   2    -32.7338350 -0.429606E-06  0.249E-02    4.33       1.0  T
   3    -32.7338353 -0.279068E-06  0.445E-03    4.33       4.9  T
   4    -32.7338353 -0.590179E-07  0.343E-03    4.33       6.4  T
   5    -32.7338354 -0.611142E-07  0.190E-03    4.33      11.5  T
   6    -32.7338354 -0.267269E-07  0.613E-04    4.33      35.6  T
   7    -32.7338354 -0.141159E-08  0.169E-04    4.33     129.3  T
     SCC iter.                  ...        0 min,  0.009 sec
     gradient                   ...        0 min,  0.001 sec
 * total energy  :   -32.4280128 Eh     change       -0.2180838E-04 Eh
   gradient norm :     0.0010054 Eh/α   predicted    -0.1132523E-04 ( -48.07%)
   displ. norm   :     0.0865443 α      lambda       -0.8887410E-05
   maximum displ.:     0.0693371 α      in ANC's #2, #7, #3, ...

........................................................................
.............................. CYCLE   14 ..............................
........................................................................
   1    -32.7341005 -0.327341E+02  0.232E-02    4.33       0.0  T
   2    -32.7341007 -0.158558E-06  0.138E-02    4.32       1.6  T
   3    -32.7341008 -0.779480E-07  0.230E-03    4.32       9.5  T
   4    -32.7341008 -0.156736E-07  0.170E-03    4.32      12.8  T
   5    -32.7341008 -0.137864E-07  0.105E-03    4.32      20.8  T
   6    -32.7341008 -0.850985E-08  0.434E-04    4.32      50.3  T
   7    -32.7341008 -0.114660E-08  0.162E-04    4.32     134.6  T
     SCC iter.                  ...        0 min,  0.009 sec
     gradient                   ...        0 min,  0.001 sec
 * total energy  :   -32.4280226 Eh     change       -0.9845142E-05 Eh
   gradient norm :     0.0007492 Eh/α   predicted    -0.4463226E-05 ( -54.67%)
   displ. norm   :     0.1066458 α      lambda       -0.9541032E-05
   maximum displ.:     0.0850221 α      in ANC's #2, #7, #3, ...

........................................................................
.............................. CYCLE   15 ..............................
........................................................................
   1    -32.7341088 -0.327341E+02  0.282E-02    4.32       0.0  T
   2    -32.7341090 -0.143921E-06  0.166E-02    4.32       1.3  T
   3    -32.7341091 -0.956845E-07  0.257E-03    4.32       8.5  T
   4    -32.7341091 -0.206774E-07  0.199E-03    4.32      11.0  T
   5    -32.7341091 -0.215277E-07  0.103E-03    4.32      21.1  T
   6    -32.7341091 -0.678143E-08  0.536E-04    4.32      40.7  T
   7    -32.7341091 -0.176181E-08  0.200E-04    4.32     109.0  T
     SCC iter.                  ...        0 min,  0.009 sec
     gradient                   ...        0 min,  0.001 sec
 * total energy  :   -32.4280327 Eh     change       -0.1007199E-04 Eh
   gradient norm :     0.0007031 Eh/α   predicted    -0.4795872E-05 ( -52.38%)
   displ. norm   :     0.1074892 α      lambda       -0.8172554E-05
   maximum displ.:     0.0840071 α      in ANC's #2, #1, #3, ...

........................................................................
.............................. CYCLE   16 ..............................
........................................................................
   1    -32.7342832 -0.327343E+02  0.271E-02    4.32       0.0  T
   2    -32.7342833 -0.150710E-06  0.160E-02    4.32       1.4  T
   3    -32.7342834 -0.840224E-07  0.240E-03    4.32       9.1  T
   4    -32.7342834 -0.197282E-07  0.187E-03    4.32      11.7  T
   5    -32.7342834 -0.172447E-07  0.108E-03    4.32      20.2  T
   6    -32.7342834 -0.819888E-08  0.564E-04    4.32      38.7  T
   7    -32.7342834 -0.203866E-08  0.192E-04    4.32     113.9  T
     SCC iter.                  ...        0 min,  0.009 sec
     gradient                   ...        0 min,  0.001 sec
 * total energy  :   -32.4280418 Eh     change       -0.9143150E-05 Eh
   gradient norm :     0.0008230 Eh/α   predicted    -0.4110389E-05 ( -55.04%)
   displ. norm   :     0.1438738 α      lambda       -0.1029371E-04
   maximum displ.:     0.1099882 α      in ANC's #2, #1, #3, ...

........................................................................
.............................. CYCLE   17 ..............................
........................................................................
   1    -32.7341064 -0.327341E+02  0.375E-02    4.32       0.0  T
   2    -32.7341066 -0.251727E-06  0.221E-02    4.32       1.0  T
   3    -32.7341068 -0.141643E-06  0.340E-03    4.32       6.4  T
   4    -32.7341068 -0.499475E-07  0.260E-03    4.32       8.4  T
   5    -32.7341069 -0.357843E-07  0.136E-03    4.32      16.1  T
   6    -32.7341069 -0.116260E-07  0.703E-04    4.32      31.0  T
   7    -32.7341069 -0.267281E-08  0.220E-04    4.32      99.3  T
     SCC iter.                  ...        0 min,  0.009 sec
     gradient                   ...        0 min,  0.001 sec
 * total energy  :   -32.4280536 Eh     change       -0.1180072E-04 Eh
   gradient norm :     0.0009726 Eh/α   predicted    -0.5195625E-05 ( -55.97%)
   displ. norm   :     0.1917792 α      lambda       -0.1428856E-04
   maximum displ.:     0.1357844 α      in ANC's #2, #1, #4, ...

........................................................................
.............................. CYCLE   18 ..............................
........................................................................
   1    -32.7339848 -0.327340E+02  0.503E-02    4.32       0.0  T
   2    -32.7339852 -0.433341E-06  0.297E-02    4.32       1.0  T
   3    -32.7339855 -0.281020E-06  0.437E-03    4.33       5.0  T
   4    -32.7339856 -0.591821E-07  0.343E-03    4.33       6.4  T
   5    -32.7339856 -0.607845E-07  0.184E-03    4.33      11.8  T
   6    -32.7339857 -0.220635E-07  0.900E-04    4.33      24.2  T
   7    -32.7339857 -0.432190E-08  0.277E-04    4.33      78.7  T
     SCC iter.                  ...        0 min,  0.009 sec
     gradient                   ...        0 min,  0.001 sec
 * total energy  :   -32.4280694 Eh     change       -0.1579286E-04 Eh
   gradient norm :     0.0010440 Eh/α   predicted    -0.7263510E-05 ( -54.01%)
   displ. norm   :     0.1816994 α      lambda       -0.1323291E-04
   maximum displ.:     0.1134584 α      in ANC's #2, #4, #1, ...

........................................................................
.............................. CYCLE   19 ..............................
........................................................................
   1    -32.7337768 -0.327338E+02  0.481E-02    4.33       0.0  T
   2    -32.7337772 -0.334049E-06  0.285E-02    4.33       1.0  T
   3    -32.7337774 -0.242768E-06  0.400E-03    4.33       5.5  T
   4    -32.7337775 -0.458123E-07  0.310E-03    4.33       7.0  T
   5    -32.7337775 -0.546064E-07  0.149E-03    4.33      14.7  T
   6    -32.7337775 -0.121614E-07  0.769E-04    4.33      28.4  T
   7    -32.7337775 -0.369303E-08  0.196E-04    4.33     111.5  T
     SCC iter.                  ...        0 min,  0.009 sec
     gradient                   ...        0 min,  0.001 sec
 * total energy  :   -32.4280829 Eh     change       -0.1344602E-04 Eh
   gradient norm :     0.0010545 Eh/α   predicted    -0.6715374E-05 ( -50.06%)
   displ. norm   :     0.1095283 α      lambda       -0.7926124E-05
   maximum displ.:     0.0551538 α      in ANC's #4, #2, #1, ...

........................................................................
.............................. CYCLE   20 ..............................
........................................................................
   1    -32.7339038 -0.327339E+02  0.304E-02    4.34       0.0  T
   2    -32.7339040 -0.136767E-06  0.181E-02    4.34       1.2  T
   3    -32.7339041 -0.984915E-07  0.287E-03    4.34       7.6  T
   4    -32.7339041 -0.290505E-07  0.226E-03    4.34       9.7  T
   5    -32.7339041 -0.284841E-07  0.111E-03    4.34      19.6  T
   6    -32.7339041 -0.816692E-08  0.491E-04    4.34      44.5  T
   7    -32.7339041 -0.123030E-08  0.120E-04    4.34     182.0  T
     SCC iter.                  ...        0 min,  0.009 sec
     gradient                   ...        0 min,  0.001 sec
 * total energy  :   -32.4280906 Eh     change       -0.7732061E-05 Eh
   gradient norm :     0.0007307 Eh/α   predicted    -0.3985667E-05 ( -48.45%)
   displ. norm   :     0.0801201 α      lambda       -0.4910306E-05
   maximum displ.:     0.0443942 α      in ANC's #2, #1, #3, ...
 * RMSD in coord.:     0.4561162 α      energy gain  -0.2134202E-01 Eh

generating ANC from model Hessian ...
Using Lindh-Hessian (1995)
 Shifting diagonal of input Hessian by    9.7697175166221589E-003
 Lowest  eigenvalues of input Hessian
    0.000000    0.000000    0.000000    0.000000    0.000000    0.000000
    0.010000    0.010600    0.011246    0.011672    0.013358    0.016090
    0.017097    0.019537    0.020283    0.024360    0.025920    0.034775
 Highest eigenvalues
    1.247611    1.365780    1.377161    1.447716    1.747092    2.347021


........................................................................
.............................. CYCLE   21 ..............................
........................................................................
   1    -32.7338058 -0.327338E+02  0.231E-02    4.33       0.0  T
   2    -32.7338059 -0.885083E-07  0.138E-02    4.33       1.6  T
   3    -32.7338060 -0.735379E-07  0.223E-03    4.33       9.8  T
   4    -32.7338060 -0.139993E-07  0.174E-03    4.33      12.6  T
   5    -32.7338060 -0.178022E-07  0.792E-04    4.33      27.6  T
   6    -32.7338060 -0.424293E-08  0.374E-04    4.33      58.3  T
     SCC iter.                  ...        0 min,  0.008 sec
     gradient                   ...        0 min,  0.001 sec
 * total energy  :   -32.4280957 Eh     change       -0.5152960E-05 Eh
   gradient norm :     0.0009884 Eh/α   predicted     0.0000000E+00 (-100.00%)
   displ. norm   :     0.0223286 α      lambda       -0.3618864E-05
   maximum displ.:     0.0127634 α      in ANC's #2, #5, #6, ...

........................................................................
.............................. CYCLE   22 ..............................
........................................................................
   1    -32.7341244 -0.327341E+02  0.710E-03    4.34       0.0  T
   2    -32.7341244 -0.643285E-07  0.428E-03    4.34       5.1  T
   3    -32.7341244 -0.143630E-07  0.149E-03    4.34      14.7  T
   4    -32.7341244 -0.780986E-08  0.935E-04    4.34      23.3  T
   5    -32.7341244 -0.346566E-08  0.646E-04    4.34      33.8  T
     SCC iter.                  ...        0 min,  0.006 sec
     gradient                   ...        0 min,  0.001 sec
 * total energy  :   -32.4280994 Eh     change       -0.3687038E-05 Eh
   gradient norm :     0.0004195 Eh/α   predicted    -0.2289657E-05 ( -37.90%)
   displ. norm   :     0.0404908 α      lambda       -0.4764634E-05
   maximum displ.:     0.0301232 α      in ANC's #2, #1, #4, ...

   *** GEOMETRY OPTIMIZATION CONVERGED AFTER 22 ITERATIONS ***

------------------------------------------------------------------------
 total energy gain   :        -0.0213509 Eh      -13.3979 kcal/mol
 total RMSD          :         0.4555216 a0        0.2411 Å
 total power (kW/mol):        -2.5480310 (step) -175.1005 (real)
------------------------------------------------------------------------

 ANCopt (total)                0 d,  0 h,  0 min,  0.320 sec
 optimizer setup                ...        0 min,  0.000 sec (  0.045%)
 model hessian                  ...        0 min,  0.014 sec (  4.282%)
 ANC generation                 ...        0 min,  0.002 sec (  0.751%)
 coordinate transformation      ...        0 min,  0.000 sec (  0.149%)
 single point calculation       ...        0 min,  0.296 sec ( 92.478%)
 optimization log               ...        0 min,  0.002 sec (  0.556%)
 hessian update                 ...        0 min,  0.001 sec (  0.201%)
 rational function              ...        0 min,  0.003 sec (  0.850%)

================
 final structure:
================
21
 xtb: 6.5.1 (fef0646)
N            0.99858631841968       -0.23709300028038        0.17735802674393
C            2.45778228480701       -0.28141411881371        0.26914156845463
C            3.05743835091054       -0.35015759760295       -1.13384305095998
C            4.57904479357265       -0.20745157308982       -1.14185602406387
C            5.29507660804296       -1.42775921908255       -0.54766636903795
C            6.80061517662677       -1.25190860889194       -0.63032559893406
O            7.31575672297944       -1.33547924646397       -1.86977481107460
O            7.50211454099102       -1.04102820394649        0.31383130068069
Cl           0.18587653503376        2.00562810527096       -1.53832252387516
H            0.57658505642102       -0.12405181736728        1.09219795674165
H            0.63707130238793       -1.08588555516866       -0.24538680535759
H            0.55859905718645        0.96634480303806       -0.72610836821525
H            2.80091092921991       -1.13123496235761        0.87420566747060
H            2.78318652245372        0.63966432967937        0.75744491023126
H            2.62456867642935        0.46039186992331       -1.72039645720565
H            2.77322300410200       -1.29395541831536       -1.60544107570890
H            4.86209980565296        0.68145835360677       -0.57580801596354
H            4.90436715502472       -0.05650959417839       -2.17452260187846
H            5.00238835876935       -2.33291378897947       -1.08732074772951
H            5.03410623228562       -1.54359987814406        0.50331559335899
H            6.64274256868335       -1.50763487883585       -2.54129257367745

 Bond Distances (Angstroems)
 ---------------------------
N1-C2=1.4628         N1-H10=1.0138        N1-H11=1.0148        C2-N1=1.4628         C2-C3=1.5273         C2-H13=1.0982        
C2-H14=1.0921        C3-C2=1.5273         C3-C4=1.5283         C3-H15=1.0901        C3-H16=1.0927        C4-C3=1.5283         
C4-C5=1.5346         C4-H17=1.0912        C4-H18=1.0932        C5-C4=1.5346         C5-C6=1.5180         C5-H19=1.0937        
C5-H20=1.0891        C6-C5=1.5180         C6-O7=1.3448         C6-O8=1.1950         O7-C6=1.3448         O7-H21=0.9662        
O8-C6=1.1950         Cl9-H12=1.3707       H10-N1=1.0138        H11-N1=1.0148        H12-Cl9=1.3707       H13-C2=1.0982        
H14-C2=1.0921        H15-C3=1.0901        H16-C3=1.0927        H17-C4=1.0912        H18-C4=1.0932        H19-C5=1.0937        
H20-C5=1.0891        H21-O7=0.9662        
 C  H  Rav=1.0925 sigma=0.0026  Rmin=1.0891  Rmax=1.0982     8
 C  C  Rav=1.5271 sigma=0.0059  Rmin=1.5180  Rmax=1.5346     4
 N  H  Rav=1.0143 sigma=0.0005  Rmin=1.0138  Rmax=1.0148     2
 N  C  Rav=1.4628 sigma=0.0000  Rmin=1.4628  Rmax=1.4628     1
 O  H  Rav=0.9662 sigma=0.0000  Rmin=0.9662  Rmax=0.9662     1
 O  C  Rav=1.2699 sigma=0.0749  Rmin=1.1950  Rmax=1.3448     2
 Cl H  Rav=1.3707 sigma=0.0000  Rmin=1.3707  Rmax=1.3707     1

 selected bond angles (degree)
 --------------------
H10-N1-C2=111.22               H11-N1-C2=110.86               H11-N1-H10=108.72              C3-C2-N1=109.60                
H13-C2-N1=111.70               H13-C2-C3=110.40               H14-C2-N1=107.44               H14-C2-C3=109.37               
H14-C2-H13=108.25              C4-C3-C2=113.05                H15-C3-C2=107.75               H15-C3-C4=108.85               
H16-C3-C2=109.46               H16-C3-C4=109.72               H16-C3-H15=107.86              C5-C4-C3=112.85                
H17-C4-C3=109.37               H17-C4-C5=109.02               H18-C4-C3=108.31               H18-C4-C5=109.68               
H18-C4-H17=107.48              C6-C5-C4=110.46                H19-C5-C4=110.01               H19-C5-C6=109.54               
H20-C5-C4=110.27               H20-C5-C6=107.61               H20-C5-H19=108.91              O7-C6-C5=115.02                
O8-C6-C5=124.03                O8-C6-O7=120.95                H21-O7-C6=112.63               

 selected dihedral angles (degree)
 ---------------------------------
C3-C2-N1-H10=184.07           C3-C2-N1-H11= 62.98           H13-C2-N1-H10= 61.40          H13-C2-N1-H11=300.30          
H14-C2-N1-H10=302.82          H14-C2-N1-H11=181.73          C4-C3-C2-N1=172.14            C4-C3-C2-H13=295.58           
C4-C3-C2-H14= 54.59           H15-C3-C2-N1= 51.82           H15-C3-C2-H13=175.26          H15-C3-C2-H14=294.27          
H16-C3-C2-N1=294.77           H16-C3-C2-H13= 58.21          H16-C3-C2-H14=177.23          C5-C4-C3-C2= 70.09            
C5-C4-C3-H15=189.79           C5-C4-C3-H16=307.60           H17-C4-C3-C2=308.56           H17-C4-C3-H15= 68.26          
H17-C4-C3-H16=186.07          H18-C4-C3-C2=191.71           H18-C4-C3-H15=311.41          H18-C4-C3-H16= 69.22          
C6-C5-C4-C3=177.86            C6-C5-C4-H17=299.58           C6-C5-C4-H18= 57.02           H19-C5-C4-C3= 56.81           
H19-C5-C4-H17=178.54          H19-C5-C4-H18=295.97          H20-C5-C4-C3=296.67           H20-C5-C4-H17= 58.40          
H20-C5-C4-H18=175.83          O7-C6-C5-C4=289.01            O7-C6-C5-H19= 50.34           O7-C6-C5-H20=168.59           
O8-C6-C5-C4=108.31            O8-C6-C5-H19=229.63           O8-C6-C5-H20=347.88           H21-O7-C6-C5=359.40           
H21-O7-C6-O8=180.08           

 CMA Distance (Angstroems)
 ---------------------------
R(CMA):  5.3939
           -------------------------------------------------
          |                Final Singlepoint                |
           -------------------------------------------------

          ...................................................
          :                      SETUP                      :
          :.................................................:
          :  # basis functions                  54          :
          :  # atomic orbitals                  53          :
          :  # shells                           31          :
          :  # electrons                        56          :
          :  max. iterations                   250          :
          :  Hamiltonian                  GFN2-xTB          :
          :  restarted?                      false          :
          :  GBSA solvation                  false          :
          :  PC potential                    false          :
          :  electronic temp.          300.0000000     K    :
          :  accuracy                    1.0000000          :
          :  -> integral cutoff          0.2500000E+02      :
          :  -> integral neglect         0.1000000E-07      :
          :  -> SCF convergence          0.1000000E-05 Eh   :
          :  -> wf. convergence          0.1000000E-03 e    :
          :  Broyden damping             0.4000000          :
          ...................................................

 iter      E             dE          RMSdq      gap      omega  full diag
   1    -32.7341244 -0.327341E+02  0.209E-04    4.34       0.0  T
   2    -32.7341245 -0.168747E-09  0.139E-04    4.34     156.9  T
   3    -32.7341245 -0.579234E-10  0.108E-04    4.34     201.1  T

   *** convergence criteria satisfied after 3 iterations ***

         #    Occupation            Energy/Eh            Energy/eV
      -------------------------------------------------------------
         1        2.0000           -1.0246046             -27.8809
       ...           ...                  ...                  ...
        22        2.0000           -0.4792315             -13.0406
        23        2.0000           -0.4616555             -12.5623
        24        2.0000           -0.4598247             -12.5125
        25        2.0000           -0.4231976             -11.5158
        26        2.0000           -0.4074854             -11.0882
        27        2.0000           -0.4016134             -10.9285
        28        2.0000           -0.4015732             -10.9274 (HOMO)
        29                         -0.2422310              -6.5914 (LUMO)
        30                         -0.0647926              -1.7631
        31                         -0.0006051              -0.0165
        32                          0.0478393               1.3018
        33                          0.0556204               1.5135
       ...                                ...                  ...
        53                          0.6457596              17.5720
      -------------------------------------------------------------
                  HL-Gap            0.1593422 Eh            4.3359 eV
             Fermi-level           -0.3219021 Eh           -8.7594 eV

 SCC (total)                   0 d,  0 h,  0 min,  0.006 sec
 SCC setup                      ...        0 min,  0.000 sec (  1.332%)
 Dispersion                     ...        0 min,  0.000 sec (  2.171%)
 classical contributions        ...        0 min,  0.000 sec (  0.506%)
 integral evaluation            ...        0 min,  0.001 sec ( 10.601%)
 iterations                     ...        0 min,  0.004 sec ( 61.171%)
 molecular gradient             ...        0 min,  0.001 sec ( 21.072%)
 printout                       ...        0 min,  0.000 sec (  1.327%)

         :::::::::::::::::::::::::::::::::::::::::::::::::::::
         ::                     SUMMARY                     ::
         :::::::::::::::::::::::::::::::::::::::::::::::::::::
         :: total energy             -32.428099430070 Eh    ::
         :: gradient norm              0.000420959962 Eh/a0 ::
         :: HOMO-LUMO gap              4.335921490729 eV    ::
         ::.................................................::
         :: SCC energy               -32.734124450142 Eh    ::
         :: -> isotropic ES            0.075478792715 Eh    ::
         :: -> anisotropic ES         -0.003210066221 Eh    ::
         :: -> anisotropic XC          0.005130984485 Eh    ::
         :: -> dispersion             -0.013428200134 Eh    ::
         :: repulsion energy           0.306039172758 Eh    ::
         :: add. restraining           0.000000000000 Eh    ::
         :: total charge               0.000000000000 e     ::
         :::::::::::::::::::::::::::::::::::::::::::::::::::::

           -------------------------------------------------
          |                Property Printout                |
           -------------------------------------------------

    * Orbital Energies and Occupations

         #    Occupation            Energy/Eh            Energy/eV
      -------------------------------------------------------------
         1        2.0000           -1.0246046             -27.8809
       ...           ...                  ...                  ...
        16        2.0000           -0.5207729             -14.1710
        17        2.0000           -0.5167601             -14.0618
        18        2.0000           -0.5095022             -13.8643
        19        2.0000           -0.4957723             -13.4907
        20        2.0000           -0.4852773             -13.2051
        21        2.0000           -0.4840868             -13.1727
        22        2.0000           -0.4792315             -13.0406
        23        2.0000           -0.4616555             -12.5623
        24        2.0000           -0.4598247             -12.5125
        25        2.0000           -0.4231976             -11.5158
        26        2.0000           -0.4074854             -11.0882
        27        2.0000           -0.4016134             -10.9285
        28        2.0000           -0.4015732             -10.9274 (HOMO)
        29                         -0.2422310              -6.5914 (LUMO)
        30                         -0.0647926              -1.7631
        31                         -0.0006051              -0.0165
        32                          0.0478393               1.3018
        33                          0.0556204               1.5135
        34                          0.0596121               1.6221
        35                          0.0608888               1.6569
        36                          0.0652605               1.7758
        37                          0.0653084               1.7771
        38                          0.0768490               2.0912
        39                          0.0851089               2.3159
       ...                                ...                  ...
        53                          0.6457596              17.5720
      -------------------------------------------------------------
                  HL-Gap            0.1593422 Eh            4.3359 eV
             Fermi-level           -0.3219021 Eh           -8.7594 eV

     #   Z          covCN         q      C6AA      α(0)
     1   7 N        2.688    -0.307    27.903     7.845
     2   6 C        3.731     0.005    20.583     6.476
     3   6 C        3.803    -0.077    21.966     6.672
     4   6 C        3.803    -0.057    21.600     6.617
     5   6 C        3.801    -0.106    22.520     6.756
     6   6 C        2.689     0.357    20.934     7.488
     7   8 O        1.659    -0.371    20.302     6.083
     8   8 O        0.856    -0.363    20.950     6.137
     9  17 Cl       0.838    -0.482   115.019    16.407
    10   1 H        0.860     0.168     1.283     1.774
    11   1 H        0.860     0.167     1.291     1.780
    12   1 H        0.894     0.333     0.622     1.234
    13   1 H        0.923     0.028     2.610     2.526
    14   1 H        0.924     0.057     2.237     2.339
    15   1 H        0.925     0.073     2.051     2.240
    16   1 H        0.924     0.041     2.432     2.439
    17   1 H        0.924     0.053     2.285     2.364
    18   1 H        0.924     0.040     2.451     2.448
    19   1 H        0.924     0.051     2.310     2.377
    20   1 H        0.925     0.068     2.111     2.272
    21   1 H        0.805     0.322     0.659     1.275

 Mol. C6AA /au·bohr⁶  :       4116.425899
 Mol. C8AA /au·bohr⁸  :      99023.896123
 Mol. α(0) /au        :         95.548667


Wiberg/Mayer (AO) data.
largest (>0.10) Wiberg bond orders for each atom

 ---------------------------------------------------------------------------
     #   Z sym  total        # sym  WBO       # sym  WBO       # sym  WBO
 ---------------------------------------------------------------------------
     1   7 N    3.233 --     2 C    1.006    11 H    0.958    10 H    0.958
                            12 H    0.201
     2   6 C    3.974 --     3 C    1.007     1 N    1.006    14 H    0.974
                            13 H    0.971
     3   6 C    3.993 --     2 C    1.007     4 C    1.005    16 H    0.976
                            15 H    0.969
     4   6 C    3.994 --     3 C    1.005     5 C    0.988    17 H    0.976
                            18 H    0.974
     5   6 C    3.995 --     4 C    0.988    20 H    0.972     6 C    0.966
                            19 H    0.964
     6   6 C    3.917 --     8 O    1.804     7 O    1.118     5 C    0.966
     7   8 O    2.201 --     6 C    1.118    21 H    0.873     8 O    0.164
     8   8 O    2.078 --     6 C    1.804     7 O    0.164
     9  17 Cl   0.771 --    12 H    0.683
    10   1 H    0.971 --     1 N    0.958
    11   1 H    0.972 --     1 N    0.958
    12   1 H    0.889 --     9 Cl   0.683     1 N    0.201
    13   1 H    0.999 --     2 C    0.971
    14   1 H    0.997 --     2 C    0.974
    15   1 H    0.994 --     3 C    0.969
    16   1 H    0.998 --     3 C    0.976
    17   1 H    0.997 --     4 C    0.976
    18   1 H    0.998 --     4 C    0.974
    19   1 H    0.997 --     5 C    0.964
    20   1 H    0.995 --     5 C    0.972
    21   1 H    0.897 --     7 O    0.873
 ---------------------------------------------------------------------------

Topologies differ in total number of bonds
Writing topology from bond orders to xtbtopo.mol

molecular dipole:
                 x           y           z       tot (Debye)
 q only:       -0.624      -1.606       0.142
   full:       -1.096      -1.629      -0.085       4.995
molecular quadrupole (traceless):
                xx          xy          yy          xz          yz          zz
 q only:      -27.524       0.378       9.993     -15.186      10.467      17.531
  q+dip:      -39.953      -1.100      17.760     -17.247       9.094      22.193
   full:      -39.653      -1.428      17.801     -17.338       8.733      21.852

           -------------------------------------------------
          |                Geometry Summary                 |
           -------------------------------------------------

      molecular mass/u    :      153.6074191
   center of mass at/Å    :        3.6696326      -0.1229005      -0.7988226
  moments of inertia/u·Å² :        0.1687187E+03   0.1434400E+04   0.1522253E+04
rotational constants/cm⁻¹ :        0.9991564E-01   0.1175239E-01   0.1107413E-01

 * 17 selected distances

     #   Z          #   Z                                           value/Å
     1   7 N        2   6 C                                       1.4627515
     2   6 C        3   6 C                                       1.5273111
     3   6 C        4   6 C                                       1.5283049
     4   6 C        5   6 C                                       1.5345729 (max)
     6   6 C        7   8 O                                       1.3448381
     6   6 C        8   8 O                                       1.1949914
     1   7 N       10   1 H                                       1.0138026
     1   7 N       11   1 H                                       1.0148179
     2   6 C       13   1 H                                       1.0981965
     2   6 C       14   1 H                                       1.0921144
     3   6 C       15   1 H                                       1.0901430
     3   6 C       16   1 H                                       1.0926745
     4   6 C       17   1 H                                       1.0911881
     4   6 C       18   1 H                                       1.0931691
     5   6 C       19   1 H                                       1.0937085
     5   6 C       20   1 H                                       1.0890766
     7   8 O       21   1 H                                       0.9661894 (min)

 * 6 distinct bonds (by element types)

   Z      Z             #   av. dist./Å        max./Å        min./Å
   1 H    6 C           8     1.0925338     1.0981965     1.0890766
   6 C    6 C           3     1.5300630     1.5345729     1.5273111
   1 H    7 N           2     1.0143102     1.0148179     1.0138026
   6 C    7 N           1     1.4627515     1.4627515     1.4627515
   1 H    8 O           1     0.9661894     0.9661894     0.9661894
   6 C    8 O           2     1.2699148     1.3448381     1.1949914


optimized geometry written to: xtbopt.xyz


           -------------------------------------------------
          | TOTAL ENERGY              -32.428099430070 Eh   |
          | GRADIENT NORM               0.000420959962 Eh/α |
          | HOMO-LUMO GAP               4.335921490729 eV   |
           -------------------------------------------------

------------------------------------------------------------------------
 * finished run on 2023/01/23 at 14:14:14.906     
------------------------------------------------------------------------
 total:
 * wall-time:     0 d,  0 h,  0 min,  0.378 sec
 *  cpu-time:     0 d,  0 h,  0 min, 35.052 sec
 * ratio c/w:    92.815 speedup
 SCF:
 * wall-time:     0 d,  0 h,  0 min,  0.028 sec
 *  cpu-time:     0 d,  0 h,  0 min,  3.947 sec
 * ratio c/w:   141.977 speedup
 ANC optimizer:
 * wall-time:     0 d,  0 h,  0 min,  0.327 sec
 *  cpu-time:     0 d,  0 h,  0 min, 28.205 sec
 * ratio c/w:    86.148 speedup

