15
 energy: -17.352099143142 gnorm: 0.000432548940 xtb: 6.5.1 (fef0646)
N            2.99271131141282       -0.66231715323775        1.17619818307638
C            2.52261567785225        0.09896596101690       -0.00203353040531
C            3.08850586903937        1.50691714946765        0.03168002541037
S            4.93768847354675        1.41431663653174       -0.00084941313885
C            5.32903831046364        3.16835394892574        0.07088803795119
H            2.70356894113434       -1.64470528249226        1.12359817199102
H            2.63271007841755       -0.24970042199718        2.04404805256560
H            4.02081563111519       -0.61116283448610        1.20150411510490
H            1.43333030298162        0.14256116545081       -0.00758170235317
H            2.86553692812176       -0.40188675765763       -0.90720803721677
H            2.80281811522648        2.04155010269066        0.93633237130286
H            2.76736006787319        2.07237024438556       -0.84040517537700
H            6.41205527026919        3.24827023691399        0.09348431436757
H            4.90607289493267        3.59972654960819        0.97361055817805
H            4.94001212761315        3.66317045487967       -0.81558597145685
