 Entering Gaussian System
 *********************************************
 Gaussian 98:
 frequency output generated by the xtb code
 *********************************************
                         Standard orientation:
 --------------------------------------------------------------------
  Center     Atomic     Atomic              Coordinates (Angstroms)
  Number     Number      Type              X           Y           Z
 --------------------------------------------------------------------
    1          7             0       -2.741954   -0.798156    0.012681
    2          6             0       -1.768483   -0.033902   -0.822514
    3          6             0       -1.059275    1.079436   -0.055448
    4          6             0       -0.176153    0.590323    1.096810
    5          6             0        0.968521   -0.338264    0.676757
    6          6             0        1.988941    0.316799   -0.257428
    7          6             0        3.147425   -0.606568   -0.609660
    8          1             0       -3.444230   -0.169781    0.416692
    9          1             0       -2.270904   -1.281347    0.785230
   10          1             0       -3.234050   -1.506774   -0.542046
   11          1             0       -2.301174    0.388019   -1.683673
   12          1             0       -1.034348   -0.725947   -1.248205
   13          1             0       -1.814240    1.772760    0.332843
   14          1             0       -0.455484    1.678661   -0.746211
   15          1             0       -0.803413    0.087167    1.841023
   16          1             0        0.247133    1.454032    1.623617
   17          1             0        0.564504   -1.237683    0.200740
   18          1             0        1.491382   -0.704265    1.568666
   19          1             0        2.369667    1.233528    0.208890
   20          1             0        1.489249    0.647580   -1.175186
   21          1             0        2.793428   -1.510877   -1.105927
   22          1             0        3.688887   -0.918399    0.284069
   23          1             0        3.864265   -0.124782   -1.276633
 --------------------------------------------------------------------
     1 basis functions        1 primitive gaussians
     1 alpha electrons        1 beta electrons

 Harmonic frequencies (cm**-1), IR intensities (km*mol⁻¹),
 Raman scattering activities (A**4/amu), Raman depolarization ratios,
 reduced masses (AMU), force constants (mDyne/A) and normal coordinates:
                      1                      2                      3
                        a                      a                      a 
 Frequencies --    66.2369                96.9960               109.7202
 Red. masses --     9.7987                 6.1221                 7.6127
 Frc consts  --     0.0000                 0.0000                 0.0000
 IR Inten    --    18.1273                 1.0685                12.4173
 Raman Activ --     0.0000                 0.0000                 0.0000
 Depolar     --     0.0000                 0.0000                 0.0000
 Atom AN      X      Y      Z        X      Y      Z        X      Y      Z
   1   7    -0.45   0.24   0.17     0.05  -0.10   0.08     0.32  -0.18   0.23
   2   6    -0.24  -0.11   0.05    -0.05  -0.09  -0.03    -0.24   0.24  -0.04
   3   6     0.01  -0.16  -0.10    -0.04  -0.02  -0.14    -0.08   0.16  -0.07
   4   6     0.05  -0.19  -0.15    -0.04   0.10  -0.09    -0.04   0.01  -0.16
   5   6     0.10  -0.10  -0.20    -0.01   0.09   0.01    -0.18  -0.10  -0.26
   6   6     0.23   0.08   0.07     0.28   0.19   0.40     0.03  -0.07  -0.01
   7   6     0.34   0.19   0.14    -0.19  -0.16  -0.22     0.14  -0.04   0.26
   8   1    -0.08   0.13   0.01     0.02  -0.03   0.04     0.16  -0.11   0.28
   9   1    -0.15   0.07   0.07     0.04  -0.02   0.01     0.23  -0.15  -0.10
  10   1    -0.16   0.07   0.07     0.00  -0.03   0.04    -0.02   0.03   0.05
  11   1    -0.04  -0.03  -0.00    -0.04  -0.04  -0.00    -0.20   0.11   0.09
  12   1    -0.11  -0.09   0.04    -0.02  -0.02  -0.02    -0.09   0.14  -0.16
  13   1     0.04  -0.00  -0.03    -0.01   0.01  -0.06     0.01   0.06   0.01
  14   1     0.01  -0.09  -0.06    -0.01  -0.03  -0.06    -0.02   0.04  -0.03
  15   1     0.02  -0.08  -0.05    -0.01   0.04  -0.02    -0.02   0.02  -0.04
  16   1     0.00  -0.06  -0.03    -0.02   0.04  -0.04     0.03  -0.02  -0.05
  17   1     0.04  -0.00  -0.13     0.01   0.07  -0.09    -0.08   0.02  -0.14
  18   1    -0.00  -0.08  -0.06    -0.07  -0.04   0.02    -0.09  -0.11  -0.08
  19   1     0.03   0.01   0.08     0.21  -0.08   0.27    -0.03  -0.02   0.03
  20   1     0.11   0.06   0.01     0.12   0.28   0.18     0.07  -0.01  -0.03
  21   1     0.13   0.06  -0.00    -0.18   0.11  -0.26     0.08  -0.02   0.06
  22   1     0.06   0.04   0.05    -0.11  -0.32  -0.12    -0.01   0.00   0.11
  23   1     0.12   0.09   0.09     0.03  -0.01   0.05     0.08  -0.01   0.12
                      4                      5                      6
                        a                      a                      a 
 Frequencies --   191.3247               200.8709               242.0232
 Red. masses --     4.9640                 6.6850                 2.2841
 Frc consts  --     0.0000                 0.0000                 0.0000
 IR Inten    --     2.7060                12.1099                 0.2114
 Raman Activ --     0.0000                 0.0000                 0.0000
 Depolar     --     0.0000                 0.0000                 0.0000
 Atom AN      X      Y      Z        X      Y      Z        X      Y      Z
   1   7     0.07   0.16   0.10     0.25   0.19   0.22    -0.04   0.00  -0.03
   2   6     0.07  -0.08  -0.11     0.16  -0.03  -0.05     0.11  -0.08   0.07
   3   6     0.23  -0.11  -0.22     0.16   0.03  -0.16    -0.01  -0.01   0.06
   4   6    -0.10  -0.12   0.02    -0.09  -0.12  -0.04     0.05   0.09   0.05
   5   6     0.00  -0.09   0.22    -0.23  -0.27  -0.05    -0.01   0.04  -0.01
   6   6    -0.16   0.00   0.11    -0.23  -0.07   0.09    -0.13  -0.06  -0.21
   7   6    -0.10   0.18  -0.12    -0.06   0.21  -0.04     0.02   0.02   0.07
   8   1     0.28   0.14   0.33    -0.08   0.04  -0.19     0.07   0.04   0.07
   9   1     0.07  -0.26  -0.19     0.06   0.34   0.24    -0.04  -0.12  -0.07
  10   1    -0.30   0.29  -0.01     0.25  -0.18   0.19    -0.11   0.10  -0.05
  11   1     0.01  -0.01  -0.02     0.04  -0.06  -0.03     0.07  -0.04  -0.01
  12   1    -0.02  -0.06  -0.04     0.05  -0.03   0.02     0.05  -0.04   0.07
  13   1     0.09   0.03  -0.13     0.05   0.04  -0.09    -0.02  -0.02   0.01
  14   1     0.13  -0.10  -0.06     0.09  -0.02  -0.03    -0.02   0.01   0.02
  15   1    -0.08  -0.03  -0.04    -0.07  -0.00  -0.03     0.03   0.04   0.03
  16   1    -0.06  -0.04   0.03     0.01  -0.06   0.01     0.03   0.03  -0.01
  17   1     0.03  -0.06   0.09    -0.08  -0.05  -0.05    -0.02  -0.01   0.05
  18   1     0.01   0.03   0.08    -0.08  -0.12  -0.03     0.04   0.05  -0.01
  19   1    -0.06   0.01   0.02    -0.11  -0.02   0.07    -0.08   0.02  -0.11
  20   1    -0.09  -0.01   0.05    -0.06   0.00   0.03    -0.04  -0.09  -0.09
  21   1    -0.02   0.03  -0.00     0.05   0.10  -0.13     0.11   0.20  -0.41
  22   1     0.05   0.08  -0.07    -0.05  -0.01  -0.02    -0.33  -0.34   0.11
  23   1    -0.10   0.08  -0.09    -0.00   0.16   0.08     0.28   0.17   0.44
                      7                      8                      9
                        a                      a                      a 
 Frequencies --   285.7607               297.2530               367.7103
 Red. masses --     6.9204                 7.1473                 7.6726
 Frc consts  --     0.0000                 0.0000                 0.0000
 IR Inten    --     0.4919                 4.7317                 9.3717
 Raman Activ --     0.0000                 0.0000                 0.0000
 Depolar     --     0.0000                 0.0000                 0.0000
 Atom AN      X      Y      Z        X      Y      Z        X      Y      Z
   1   7     0.05   0.10   0.03     0.13   0.11   0.12    -0.16  -0.22  -0.09
   2   6     0.37  -0.23   0.11    -0.05   0.06  -0.11    -0.11   0.06   0.13
   3   6    -0.04   0.00   0.11     0.04  -0.07  -0.03     0.45  -0.10  -0.08
   4   6     0.00   0.01   0.05    -0.23  -0.37   0.03     0.25   0.06   0.11
   5   6    -0.20   0.02  -0.41     0.22   0.24  -0.03     0.01  -0.02  -0.09
   6   6    -0.02   0.20  -0.06     0.05   0.26  -0.19    -0.15   0.21  -0.04
   7   6    -0.17  -0.05   0.15    -0.18  -0.16   0.15    -0.28   0.05   0.15
   8   1     0.13   0.12   0.06     0.01   0.03  -0.01    -0.12  -0.13  -0.05
   9   1    -0.05  -0.09  -0.03     0.08   0.12   0.06    -0.07  -0.06  -0.01
  10   1    -0.12   0.14  -0.02     0.06  -0.04   0.10     0.06  -0.07  -0.10
  11   1     0.20  -0.15  -0.06    -0.05   0.03  -0.00    -0.06   0.11   0.10
  12   1     0.15  -0.10   0.17    -0.03   0.02  -0.06    -0.10   0.01  -0.07
  13   1    -0.07  -0.06   0.02     0.02   0.00  -0.02     0.24   0.14  -0.12
  14   1    -0.03   0.05   0.06     0.07  -0.03   0.04     0.22  -0.21  -0.10
  15   1     0.02  -0.02   0.01    -0.08  -0.29  -0.13     0.05   0.08   0.05
  16   1     0.04  -0.02   0.03    -0.21  -0.14   0.18     0.12   0.02  -0.02
  17   1    -0.10   0.09  -0.24     0.16   0.00   0.02    -0.05   0.05  -0.09
  18   1    -0.07  -0.16  -0.17     0.12   0.15  -0.00     0.04  -0.09  -0.08
  19   1     0.01   0.01   0.06     0.04   0.09  -0.12    -0.05   0.06  -0.00
  20   1     0.07   0.13  -0.03     0.02   0.02  -0.08    -0.03   0.05  -0.02
  21   1    -0.11  -0.07   0.18    -0.12  -0.02   0.04    -0.12   0.02   0.07
  22   1    -0.03   0.08   0.06    -0.17  -0.09   0.10    -0.13   0.02   0.07
  23   1    -0.05  -0.13  -0.04     0.06  -0.15   0.09    -0.03  -0.06   0.05
                     10                     11                     12
                        a                      a                      a 
 Frequencies --   435.0498               507.5320               758.4777
 Red. masses --     7.1087                 8.2161                 2.9110
 Frc consts  --     0.0000                 0.0000                 0.0000
 IR Inten    --     8.3715                 2.0422                37.8047
 Raman Activ --     0.0000                 0.0000                 0.0000
 Depolar     --     0.0000                 0.0000                 0.0000
 Atom AN      X      Y      Z        X      Y      Z        X      Y      Z
   1   7    -0.10  -0.19   0.02    -0.06  -0.08   0.03     0.06   0.07  -0.07
   2   6     0.09   0.04   0.33     0.06   0.08   0.23    -0.06   0.09   0.05
   3   6     0.14   0.32  -0.09    -0.06   0.34  -0.10    -0.15  -0.08   0.12
   4   6    -0.33  -0.00   0.06     0.15  -0.16  -0.47    -0.17  -0.11   0.06
   5   6    -0.15   0.14  -0.05     0.22  -0.25   0.04    -0.09  -0.09  -0.12
   6   6     0.11  -0.12  -0.05    -0.09   0.07   0.09    -0.01   0.04  -0.14
   7   6     0.21  -0.05  -0.13    -0.20   0.06   0.10     0.04  -0.01  -0.03
   8   1    -0.08  -0.11  -0.01    -0.05  -0.07   0.02     0.00  -0.04   0.06
   9   1    -0.11  -0.14  -0.00    -0.07  -0.10  -0.01     0.12   0.05  -0.07
  10   1     0.05   0.00  -0.13     0.03   0.03  -0.10     0.03  -0.01   0.00
  11   1     0.07  -0.07   0.03     0.06  -0.11  -0.02     0.09  -0.06  -0.09
  12   1     0.08   0.01   0.18     0.11   0.03   0.20     0.08   0.03   0.17
  13   1     0.11   0.23  -0.16    -0.00   0.03   0.12     0.09   0.20  -0.14
  14   1     0.16  -0.09  -0.07    -0.13   0.16  -0.07     0.17  -0.26   0.01
  15   1    -0.18  -0.14  -0.15    -0.01  -0.03  -0.17     0.08   0.17   0.25
  16   1    -0.17  -0.09   0.22     0.09  -0.10  -0.08     0.13   0.04  -0.25
  17   1    -0.04   0.04  -0.01     0.19  -0.17   0.10     0.13  -0.23   0.22
  18   1    -0.07   0.03  -0.00     0.05   0.10   0.09     0.11   0.29   0.02
  19   1     0.04  -0.03  -0.02    -0.05   0.02   0.05     0.07  -0.14   0.21
  20   1     0.06  -0.03  -0.03    -0.07   0.02   0.05     0.13   0.28  -0.01
  21   1     0.09  -0.02  -0.06    -0.09   0.02   0.05     0.08  -0.05   0.03
  22   1     0.10  -0.01  -0.06    -0.08   0.01   0.04    -0.04   0.08   0.06
  23   1     0.02   0.04  -0.04    -0.03  -0.03   0.02     0.05  -0.03   0.02
                     13                     14                     15
                        a                      a                      a 
 Frequencies --   786.3945               824.5307               864.9893
 Red. masses --     2.8258                 4.5706                 5.4739
 Frc consts  --     0.0000                 0.0000                 0.0000
 IR Inten    --    18.9878                27.6819                23.5657
 Raman Activ --     0.0000                 0.0000                 0.0000
 Depolar     --     0.0000                 0.0000                 0.0000
 Atom AN      X      Y      Z        X      Y      Z        X      Y      Z
   1   7     0.03  -0.03   0.07    -0.20  -0.08   0.00     0.01   0.25  -0.00
   2   6     0.14  -0.07   0.07    -0.12  -0.02  -0.26    -0.02   0.10   0.16
   3   6     0.18  -0.09  -0.00     0.08   0.21  -0.07     0.13  -0.35   0.02
   4   6     0.03   0.06  -0.12     0.20   0.10   0.20     0.03  -0.03  -0.22
   5   6    -0.13   0.11  -0.08     0.10  -0.01   0.04    -0.11   0.25  -0.07
   6   6    -0.12  -0.11  -0.10    -0.10  -0.09  -0.10    -0.05  -0.11   0.09
   7   6    -0.03  -0.02  -0.01    -0.06  -0.01  -0.03    -0.06  -0.02   0.05
   8   1     0.02   0.11  -0.14    -0.05  -0.13   0.18    -0.21  -0.32   0.22
   9   1    -0.24  -0.08   0.12     0.25   0.10  -0.11     0.23  -0.00  -0.18
  10   1    -0.01   0.07  -0.07    -0.07  -0.15   0.18     0.26   0.02  -0.17
  11   1    -0.14   0.17   0.23     0.11  -0.14  -0.22     0.17   0.06  -0.05
  12   1    -0.09   0.03  -0.28     0.01  -0.10   0.16    -0.08  -0.14   0.18
  13   1    -0.05  -0.18   0.09    -0.01  -0.01   0.03     0.00  -0.19   0.11
  14   1    -0.09   0.13   0.02    -0.04   0.14   0.00    -0.06   0.01   0.01
  15   1    -0.03  -0.08  -0.13    -0.02  -0.12  -0.10     0.04  -0.07  -0.07
  16   1    -0.06  -0.02   0.08    -0.05  -0.04   0.25    -0.09   0.04  -0.05
  17   1    -0.04  -0.09   0.21    -0.10   0.04   0.03    -0.03   0.06  -0.01
  18   1     0.06   0.24   0.01     0.10  -0.08  -0.06    -0.08   0.08   0.01
  19   1     0.10  -0.22   0.25     0.12  -0.18   0.16     0.01  -0.03  -0.00
  20   1     0.08   0.32   0.04    -0.02   0.24   0.07     0.02  -0.04   0.00
  21   1     0.18  -0.09   0.02     0.18  -0.10   0.03     0.05   0.00  -0.05
  22   1    -0.05   0.14   0.08    -0.10   0.16   0.10     0.07  -0.01  -0.04
  23   1    -0.00   0.07   0.05     0.03   0.04   0.07    -0.11   0.13   0.01
                     16                     17                     18
                        a                      a                      a 
 Frequencies --   893.9859               898.3015               954.7273
 Red. masses --     4.9699                 5.7237                 5.4437
 Frc consts  --     0.0000                 0.0000                 0.0000
 IR Inten    --    18.0378                 2.1826                23.0690
 Raman Activ --     0.0000                 0.0000                 0.0000
 Depolar     --     0.0000                 0.0000                 0.0000
 Atom AN      X      Y      Z        X      Y      Z        X      Y      Z
   1   7     0.10   0.16   0.08    -0.23  -0.08   0.15     0.20   0.21  -0.09
   2   6    -0.00   0.03   0.10     0.14   0.02  -0.19    -0.19  -0.14   0.11
   3   6    -0.06  -0.08  -0.19     0.28   0.09  -0.05    -0.18  -0.03  -0.10
   4   6    -0.17  -0.01   0.10    -0.13  -0.02   0.10     0.18   0.22   0.19
   5   6     0.10  -0.21   0.27    -0.23  -0.14  -0.02     0.04  -0.19  -0.08
   6   6     0.03   0.16  -0.17     0.07   0.19  -0.06    -0.01  -0.02  -0.04
   7   6     0.09  -0.02  -0.17     0.20   0.01  -0.02     0.10   0.09   0.06
   8   1    -0.13  -0.13   0.01    -0.13  -0.16   0.13    -0.03  -0.04  -0.02
   9   1    -0.09  -0.12  -0.01     0.06  -0.02  -0.03     0.01  -0.03  -0.05
  10   1     0.21   0.13  -0.25     0.01  -0.06   0.02     0.15   0.09  -0.16
  11   1    -0.04  -0.01   0.04     0.04   0.05  -0.03    -0.06  -0.05   0.02
  12   1    -0.05  -0.04   0.01    -0.09  -0.12  -0.06    -0.06  -0.04   0.02
  13   1    -0.09  -0.11  -0.03    -0.10  -0.21   0.08    -0.07   0.01  -0.10
  14   1    -0.08   0.07  -0.02    -0.01   0.29   0.14    -0.11  -0.08  -0.14
  15   1    -0.12   0.14   0.06    -0.12   0.17   0.07    -0.01  -0.15  -0.13
  16   1    -0.04   0.06  -0.08     0.11  -0.03  -0.04    -0.08  -0.02   0.28
  17   1    -0.04   0.07  -0.12     0.03  -0.16   0.15    -0.13  -0.10   0.20
  18   1    -0.01  -0.28  -0.00     0.02   0.16   0.03     0.18   0.05  -0.07
  19   1     0.14  -0.02  -0.04    -0.15   0.10   0.02    -0.24   0.00   0.17
  20   1    -0.16   0.14   0.08     0.11  -0.02  -0.09     0.13   0.02  -0.08
  21   1     0.11  -0.11   0.08    -0.21   0.09   0.02    -0.26   0.12   0.03
  22   1    -0.21   0.15   0.16     0.06  -0.15  -0.06     0.06  -0.16  -0.07
  23   1     0.23  -0.18   0.05     0.10  -0.18  -0.09     0.04  -0.14  -0.09
                     19                     20                     21
                        a                      a                      a 
 Frequencies --   965.3907              1021.9954              1034.2205
 Red. masses --     5.3385                 5.2606                 7.2955
 Frc consts  --     0.0000                 0.0000                 0.0000
 IR Inten    --    24.3849                 4.6000                 6.5887
 Raman Activ --     0.0000                 0.0000                 0.0000
 Depolar     --     0.0000                 0.0000                 0.0000
 Atom AN      X      Y      Z        X      Y      Z        X      Y      Z
   1   7     0.00   0.02   0.25    -0.10   0.08  -0.15    -0.22  -0.09   0.23
   2   6     0.02   0.04  -0.25     0.18  -0.19   0.23     0.39   0.24  -0.19
   3   6    -0.09   0.13  -0.16    -0.08   0.12  -0.02    -0.22  -0.13   0.10
   4   6    -0.01  -0.09   0.24    -0.19   0.15   0.08     0.01   0.14  -0.14
   5   6     0.19   0.06  -0.15     0.22  -0.18  -0.11     0.14  -0.06  -0.04
   6   6     0.00  -0.12   0.04     0.10  -0.04  -0.00     0.02  -0.16   0.03
   7   6    -0.17  -0.03   0.16    -0.16  -0.00   0.07    -0.01   0.16  -0.05
   8   1    -0.15  -0.10  -0.02    -0.02  -0.06   0.11    -0.11  -0.11   0.10
   9   1    -0.23  -0.20   0.07     0.23   0.14  -0.12    -0.04  -0.05   0.03
  10   1     0.17   0.14  -0.25    -0.02  -0.10   0.11     0.01  -0.03   0.01
  11   1    -0.11  -0.15  -0.08     0.05   0.30   0.23     0.10   0.17   0.01
  12   1    -0.00  -0.03  -0.02    -0.18  -0.12  -0.20     0.05   0.04  -0.10
  13   1    -0.11  -0.01  -0.12    -0.19  -0.02  -0.23    -0.08   0.08  -0.24
  14   1     0.09   0.10   0.12    -0.04   0.00  -0.04     0.14  -0.17   0.07
  15   1     0.09   0.03   0.18    -0.12   0.10   0.00     0.16  -0.19  -0.06
  16   1     0.07   0.02  -0.06     0.07  -0.05   0.06    -0.19   0.10   0.01
  17   1     0.08   0.00  -0.04     0.22  -0.09  -0.09    -0.10   0.02   0.04
  18   1     0.16   0.01  -0.11     0.07  -0.00  -0.02    -0.04  -0.04   0.02
  19   1     0.05  -0.04  -0.00     0.09  -0.01  -0.06    -0.09  -0.04   0.08
  20   1     0.10  -0.04  -0.05     0.01  -0.04  -0.00    -0.05  -0.02   0.05
  21   1     0.07   0.02  -0.09     0.08  -0.01  -0.04    -0.14   0.04   0.08
  22   1     0.14  -0.02  -0.08     0.03   0.04  -0.01    -0.13   0.02   0.06
  23   1    -0.24   0.26   0.02    -0.13   0.15   0.04     0.12  -0.15  -0.02
                     22                     23                     24
                        a                      a                      a 
 Frequencies --  1061.9371              1092.2058              1118.4136
 Red. masses --     4.7191                 8.8202                 6.0382
 Frc consts  --     0.0000                 0.0000                 0.0000
 IR Inten    --    10.1041                 1.7056                 6.2086
 Raman Activ --     0.0000                 0.0000                 0.0000
 Depolar     --     0.0000                 0.0000                 0.0000
 Atom AN      X      Y      Z        X      Y      Z        X      Y      Z
   1   7    -0.06  -0.13  -0.01    -0.07  -0.01   0.04    -0.04  -0.02   0.14
   2   6     0.10   0.28   0.13     0.16   0.07   0.00     0.11   0.18  -0.16
   3   6     0.04  -0.19  -0.15    -0.14  -0.01  -0.07    -0.14  -0.21   0.02
   4   6    -0.18   0.01  -0.00     0.11  -0.05   0.01     0.19   0.10   0.06
   5   6     0.17  -0.10   0.12     0.03   0.07  -0.01    -0.26  -0.19   0.10
   6   6    -0.00  -0.01  -0.18    -0.48   0.34   0.15     0.23   0.22  -0.11
   7   6    -0.04  -0.00   0.16     0.31  -0.40  -0.03    -0.13  -0.06   0.04
   8   1     0.07   0.08  -0.02    -0.03  -0.03   0.04    -0.05  -0.03   0.01
   9   1     0.01   0.05   0.03     0.02   0.01  -0.01    -0.06  -0.06   0.03
  10   1    -0.12  -0.06   0.13    -0.00  -0.02   0.02     0.02   0.02  -0.03
  11   1     0.08   0.05  -0.01     0.03   0.09   0.04     0.06   0.03  -0.07
  12   1     0.14   0.15   0.11     0.02   0.03  -0.06     0.12   0.10   0.02
  13   1     0.06  -0.10   0.15    -0.04   0.04  -0.10     0.03   0.01   0.00
  14   1    -0.13   0.02  -0.10    -0.06  -0.07  -0.10    -0.17  -0.19  -0.23
  15   1    -0.16   0.13  -0.00     0.04  -0.04  -0.00    -0.18   0.02  -0.17
  16   1    -0.24   0.17  -0.12     0.04  -0.03   0.02     0.16  -0.17   0.24
  17   1    -0.17   0.07   0.02     0.06   0.03  -0.06     0.05  -0.12   0.06
  18   1     0.27  -0.20  -0.18     0.12  -0.00  -0.08    -0.13   0.06   0.11
  19   1    -0.03  -0.06   0.09    -0.18   0.10   0.07     0.19   0.08  -0.19
  20   1     0.21   0.09  -0.12    -0.15   0.10   0.06     0.10  -0.02  -0.08
  21   1    -0.07   0.07  -0.05     0.20  -0.11  -0.08     0.13  -0.04  -0.06
  22   1     0.15  -0.10  -0.09     0.20  -0.11  -0.08     0.05   0.06  -0.02
  23   1    -0.14   0.11  -0.03     0.00   0.02  -0.01    -0.11   0.16   0.04
                     25                     26                     27
                        a                      a                      a 
 Frequencies --  1145.7004              1151.1693              1195.9327
 Red. masses --     7.5483                 8.1234                 4.5410
 Frc consts  --     0.0000                 0.0000                 0.0000
 IR Inten    --     1.7444                 6.4113                 5.2838
 Raman Activ --     0.0000                 0.0000                 0.0000
 Depolar     --     0.0000                 0.0000                 0.0000
 Atom AN      X      Y      Z        X      Y      Z        X      Y      Z
   1   7    -0.07   0.07  -0.04     0.04   0.07   0.05    -0.06   0.09   0.10
   2   6     0.15  -0.16   0.06    -0.09  -0.24  -0.19     0.11  -0.16  -0.20
   3   6    -0.18   0.22  -0.07     0.08   0.08   0.44    -0.04   0.04   0.19
   4   6     0.20  -0.36  -0.10    -0.11   0.24  -0.31    -0.07  -0.07  -0.00
   5   6    -0.19   0.13   0.36     0.09  -0.22   0.13     0.10   0.24  -0.00
   6   6     0.06   0.04  -0.23    -0.05   0.20  -0.15    -0.13  -0.25  -0.00
   7   6    -0.00   0.05   0.10     0.01  -0.13   0.09     0.08   0.13   0.02
   8   1    -0.04  -0.07   0.08    -0.05  -0.04  -0.01    -0.09  -0.07   0.04
   9   1     0.08   0.04  -0.06    -0.02  -0.06  -0.01     0.02  -0.05  -0.04
  10   1     0.03  -0.03   0.01     0.08   0.04  -0.08     0.08   0.01  -0.05
  11   1    -0.05   0.06   0.12    -0.02  -0.04  -0.04    -0.02   0.02   0.01
  12   1    -0.05  -0.03  -0.16    -0.07  -0.11  -0.06     0.06   0.04  -0.14
  13   1    -0.03   0.10  -0.09     0.12   0.15   0.07     0.22   0.15   0.23
  14   1     0.04  -0.02  -0.01     0.23  -0.06   0.22    -0.19  -0.17  -0.27
  15   1     0.17  -0.08   0.08    -0.10   0.02  -0.16    -0.32   0.26  -0.06
  16   1     0.11  -0.07  -0.10    -0.17   0.09  -0.01     0.20  -0.14   0.02
  17   1    -0.32   0.15   0.10    -0.06  -0.00  -0.00     0.12   0.09  -0.15
  18   1    -0.02  -0.13   0.01     0.01  -0.11   0.01     0.10  -0.03  -0.08
  19   1     0.10  -0.05  -0.01     0.00   0.02   0.02     0.00  -0.11   0.07
  20   1     0.17   0.11  -0.11     0.06   0.09  -0.06    -0.02   0.05   0.04
  21   1    -0.07   0.07  -0.02     0.07  -0.01  -0.07    -0.15   0.07   0.05
  22   1     0.07  -0.06  -0.05     0.14  -0.05  -0.07    -0.03  -0.07  -0.00
  23   1    -0.06   0.03  -0.03    -0.11   0.11   0.00     0.05  -0.10  -0.05
                     28                     29                     30
                        a                      a                      a 
 Frequencies --  1223.7525              1246.1161              1273.6330
 Red. masses --     4.1179                 3.0280                 2.4843
 Frc consts  --     0.0000                 0.0000                 0.0000
 IR Inten    --     8.9180                 8.7176                 4.9494
 Raman Activ --     0.0000                 0.0000                 0.0000
 Depolar     --     0.0000                 0.0000                 0.0000
 Atom AN      X      Y      Z        X      Y      Z        X      Y      Z
   1   7    -0.13   0.13  -0.02     0.15  -0.11   0.05    -0.04   0.04  -0.04
   2   6     0.13  -0.19  -0.01    -0.08   0.07  -0.07    -0.05   0.04   0.08
   3   6     0.01   0.08  -0.01    -0.07   0.09   0.09    -0.02  -0.15   0.03
   4   6    -0.02  -0.04   0.05     0.01  -0.12  -0.08     0.06   0.03  -0.14
   5   6    -0.04  -0.06  -0.12    -0.01   0.08   0.02     0.03   0.13   0.15
   6   6     0.18   0.10   0.24     0.10   0.02   0.18    -0.05  -0.05   0.07
   7   6    -0.13  -0.08  -0.19    -0.09  -0.04  -0.15    -0.04  -0.00  -0.13
   8   1    -0.07  -0.08   0.10     0.04   0.06  -0.10    -0.00  -0.00   0.02
   9   1     0.10   0.02  -0.09    -0.11  -0.05   0.09     0.04   0.02  -0.03
  10   1     0.07  -0.03  -0.01    -0.05   0.05  -0.01    -0.00  -0.02   0.03
  11   1    -0.21  -0.14   0.10     0.33   0.28  -0.11    -0.17  -0.16   0.03
  12   1     0.18   0.20  -0.17    -0.31  -0.36   0.09     0.18   0.22   0.03
  13   1     0.17   0.07   0.22    -0.03   0.05  -0.04    -0.22  -0.13  -0.24
  14   1    -0.05  -0.02  -0.09    -0.04  -0.05  -0.07     0.24   0.03   0.28
  15   1     0.03  -0.01   0.04    -0.13   0.11  -0.04    -0.23   0.14  -0.15
  16   1    -0.20   0.14  -0.08     0.09  -0.06  -0.03     0.26  -0.20   0.11
  17   1    -0.18  -0.05   0.18    -0.21   0.06   0.12     0.06   0.09  -0.11
  18   1     0.19   0.04  -0.12     0.26  -0.02  -0.16     0.07  -0.07  -0.05
  19   1    -0.17   0.16  -0.03    -0.16   0.09   0.03    -0.21   0.02   0.13
  20   1     0.10  -0.20  -0.05     0.15  -0.14  -0.08     0.32  -0.05  -0.18
  21   1     0.19  -0.13   0.01     0.11  -0.09   0.02     0.06  -0.06   0.03
  22   1    -0.12   0.17   0.08    -0.10   0.12   0.06    -0.08   0.07   0.04
  23   1     0.05   0.04   0.08     0.05   0.01   0.06     0.05  -0.02   0.02
                     31                     32                     33
                        a                      a                      a 
 Frequencies --  1288.8880              1314.6630              1327.6839
 Red. masses --     1.9093                 3.5725                 3.5461
 Frc consts  --     0.0000                 0.0000                 0.0000
 IR Inten    --     0.6774                 0.6917                37.2092
 Raman Activ --     0.0000                 0.0000                 0.0000
 Depolar     --     0.0000                 0.0000                 0.0000
 Atom AN      X      Y      Z        X      Y      Z        X      Y      Z
   1   7     0.01  -0.02   0.03     0.01   0.02  -0.04    -0.09  -0.05   0.19
   2   6     0.01  -0.02  -0.04     0.01   0.05   0.00    -0.21  -0.27  -0.02
   3   6     0.02   0.08  -0.04     0.06  -0.03   0.09    -0.06  -0.02  -0.20
   4   6    -0.03   0.00   0.10    -0.04  -0.12   0.02    -0.06   0.04   0.00
   5   6     0.10   0.01   0.12     0.26   0.07  -0.16     0.05   0.02  -0.02
   6   6     0.00  -0.01  -0.14     0.23   0.03  -0.16     0.07   0.01  -0.04
   7   6    -0.08  -0.06  -0.07    -0.03  -0.12   0.07    -0.00  -0.03   0.02
   8   1     0.00   0.01  -0.02    -0.01  -0.03   0.03     0.03   0.14  -0.11
   9   1    -0.00  -0.01   0.01    -0.03  -0.01   0.00     0.16   0.02  -0.06
  10   1     0.01   0.02  -0.03    -0.02  -0.02   0.05     0.12   0.08  -0.19
  11   1     0.07   0.08  -0.01    -0.08  -0.11  -0.01     0.37   0.43  -0.02
  12   1    -0.05  -0.07  -0.01     0.01   0.01   0.01     0.30   0.32  -0.01
  13   1     0.08   0.02   0.12    -0.09  -0.03  -0.13     0.09   0.02   0.11
  14   1    -0.12  -0.02  -0.16    -0.06  -0.02  -0.05     0.13   0.10   0.17
  15   1     0.16  -0.08   0.11    -0.18   0.17  -0.00     0.05  -0.02   0.04
  16   1    -0.09   0.07  -0.01     0.11  -0.08  -0.00     0.13  -0.10   0.06
  17   1     0.26   0.03  -0.22    -0.37   0.07   0.22    -0.08   0.01   0.06
  18   1    -0.39  -0.03   0.26    -0.29   0.02   0.17    -0.02  -0.02   0.01
  19   1    -0.42   0.02   0.28    -0.32   0.05   0.19    -0.07   0.02   0.03
  20   1     0.34   0.03  -0.21    -0.34   0.05   0.19    -0.10   0.01   0.06
  21   1     0.08  -0.06  -0.02     0.00   0.01  -0.05    -0.01   0.01  -0.01
  22   1    -0.04   0.07   0.02     0.04   0.03   0.00     0.01   0.01   0.00
  23   1    -0.02   0.04   0.02    -0.11   0.13   0.02    -0.03   0.03   0.00
                     34                     35                     36
                        a                      a                      a 
 Frequencies --  1358.5813              1361.2916              1369.1227
 Red. masses --     4.1611                 4.8600                 3.0213
 Frc consts  --     0.0000                 0.0000                 0.0000
 IR Inten    --    15.8173                 5.6036               264.7688
 Raman Activ --     0.0000                 0.0000                 0.0000
 Depolar     --     0.0000                 0.0000                 0.0000
 Atom AN      X      Y      Z        X      Y      Z        X      Y      Z
   1   7    -0.05  -0.03   0.10    -0.02  -0.03  -0.03    -0.25  -0.21   0.10
   2   6    -0.12  -0.09  -0.03     0.14   0.06   0.08     0.10   0.13   0.01
   3   6     0.11   0.13   0.18    -0.35  -0.07  -0.26     0.03  -0.03   0.07
   4   6     0.31  -0.25   0.08     0.30  -0.08   0.13    -0.07   0.04  -0.05
   5   6    -0.03   0.01  -0.08    -0.05   0.03  -0.07    -0.01   0.00   0.03
   6   6    -0.08  -0.01   0.04     0.04  -0.02  -0.04     0.04  -0.00  -0.01
   7   6     0.02   0.03  -0.01     0.01  -0.01   0.01    -0.01  -0.01   0.00
   8   1     0.01   0.10  -0.11     0.05   0.05  -0.01     0.31   0.37  -0.04
   9   1     0.13  -0.00  -0.07     0.04   0.03  -0.01     0.33   0.27  -0.04
  10   1     0.06   0.05  -0.10     0.02  -0.02  -0.01     0.28   0.10  -0.43
  11   1     0.09   0.08  -0.03    -0.04  -0.00   0.05    -0.15  -0.22  -0.02
  12   1     0.12   0.14  -0.00    -0.17  -0.18  -0.02    -0.15  -0.15  -0.02
  13   1    -0.24  -0.05  -0.32     0.23   0.14   0.26    -0.00   0.01  -0.02
  14   1    -0.09  -0.01  -0.10     0.28   0.06   0.33    -0.07  -0.02  -0.06
  15   1    -0.26   0.19  -0.09    -0.31   0.21  -0.13     0.05  -0.03   0.03
  16   1    -0.40   0.28  -0.15    -0.18   0.11   0.03     0.06  -0.06   0.04
  17   1     0.05  -0.02  -0.02     0.09  -0.02  -0.04    -0.01   0.01   0.00
  18   1    -0.12   0.07   0.07    -0.09   0.07   0.05     0.06  -0.01  -0.04
  19   1     0.09  -0.02  -0.05    -0.05  -0.01   0.05    -0.03   0.01   0.02
  20   1     0.07  -0.01  -0.04    -0.08  -0.00   0.04    -0.03   0.00   0.02
  21   1    -0.00   0.00   0.01    -0.01   0.01  -0.01     0.00   0.00  -0.00
  22   1    -0.00  -0.02  -0.01    -0.00   0.00   0.01     0.00   0.01   0.00
  23   1     0.02  -0.03  -0.01    -0.02   0.02  -0.01    -0.00   0.01   0.00
                     37                     38                     39
                        a                      a                      a 
 Frequencies --  1381.1329              1394.8230              1407.1908
 Red. masses --     4.9785                 1.5670                 1.6933
 Frc consts  --     0.0000                 0.0000                 0.0000
 IR Inten    --     2.0048               115.6074               102.1419
 Raman Activ --     0.0000                 0.0000                 0.0000
 Depolar     --     0.0000                 0.0000                 0.0000
 Atom AN      X      Y      Z        X      Y      Z        X      Y      Z
   1   7     0.01   0.03   0.01     0.13  -0.14   0.07     0.01  -0.08  -0.18
   2   6    -0.02  -0.01  -0.02     0.05  -0.01   0.01    -0.06  -0.09  -0.05
   3   6     0.04   0.02   0.07    -0.01   0.00  -0.00     0.01   0.01   0.02
   4   6     0.09  -0.01  -0.05     0.00   0.00  -0.02     0.04  -0.03  -0.00
   5   6    -0.37   0.06   0.20    -0.01   0.00   0.00    -0.03   0.01   0.00
   6   6     0.34  -0.08  -0.19     0.01  -0.00  -0.01     0.01  -0.01  -0.01
   7   6    -0.03  -0.06   0.05    -0.00  -0.00   0.00     0.00  -0.00  -0.00
   8   1    -0.03  -0.01  -0.04    -0.33  -0.25  -0.22     0.20  -0.16   0.58
   9   1    -0.01  -0.06  -0.03     0.25   0.36   0.09    -0.30   0.42   0.44
  10   1    -0.02  -0.02   0.05    -0.51   0.49  -0.17     0.05   0.09  -0.20
  11   1    -0.01   0.01   0.01    -0.05  -0.05   0.02     0.07   0.10  -0.00
  12   1     0.03   0.03   0.02     0.00   0.00  -0.03     0.08   0.07   0.01
  13   1    -0.06   0.01  -0.11     0.00  -0.01   0.02    -0.01   0.02  -0.03
  14   1    -0.02   0.01  -0.01     0.01  -0.02  -0.00    -0.01   0.02   0.01
  15   1     0.05  -0.05  -0.02     0.01   0.02   0.02    -0.05   0.05  -0.00
  16   1    -0.10   0.07  -0.03    -0.01  -0.02   0.03    -0.06   0.02   0.01
  17   1     0.33  -0.05  -0.19     0.00  -0.00  -0.00     0.04  -0.01  -0.03
  18   1     0.32  -0.04  -0.21     0.01   0.00  -0.01     0.01   0.00  -0.01
  19   1    -0.31   0.04   0.16    -0.01   0.00   0.01    -0.02   0.00   0.01
  20   1    -0.32   0.05   0.20    -0.01   0.00   0.01    -0.01   0.01   0.01
  21   1    -0.05   0.04  -0.04    -0.00  -0.00  -0.00    -0.01   0.00  -0.00
  22   1     0.00   0.06   0.03     0.00   0.00   0.00    -0.01   0.00   0.01
  23   1    -0.07   0.08   0.01    -0.00   0.00   0.00    -0.01   0.01  -0.00
                     40                     41                     42
                        a                      a                      a 
 Frequencies --  1432.3665              1481.4541              1499.6740
 Red. masses --     3.2311                 1.8652                 1.8997
 Frc consts  --     0.0000                 0.0000                 0.0000
 IR Inten    --     0.2344                12.7592                 6.1610
 Raman Activ --     0.0000                 0.0000                 0.0000
 Depolar     --     0.0000                 0.0000                 0.0000
 Atom AN      X      Y      Z        X      Y      Z        X      Y      Z
   1   7    -0.00  -0.00   0.00     0.00  -0.00  -0.01     0.01   0.01  -0.00
   2   6     0.00   0.00   0.00     0.04  -0.06  -0.25     0.01  -0.01   0.01
   3   6     0.00   0.01   0.00     0.01   0.00   0.01     0.02  -0.27   0.06
   4   6    -0.00   0.01   0.00     0.00  -0.01  -0.01    -0.01   0.00   0.04
   5   6     0.01  -0.02  -0.00     0.00   0.08  -0.03     0.01  -0.02   0.01
   6   6    -0.08   0.01   0.05    -0.01   0.01   0.01    -0.00  -0.03   0.02
   7   6     0.34  -0.25  -0.12     0.01  -0.00   0.00    -0.01   0.01  -0.03
   8   1    -0.00   0.00  -0.01     0.01   0.02  -0.03    -0.03  -0.02  -0.01
   9   1     0.01  -0.00  -0.00     0.03   0.01  -0.02     0.01   0.00  -0.01
  10   1     0.00  -0.00  -0.00     0.01   0.00  -0.01    -0.02   0.01   0.01
  11   1     0.00  -0.01  -0.00    -0.39   0.33   0.40    -0.00  -0.02   0.00
  12   1    -0.01  -0.00  -0.01     0.18  -0.19   0.59    -0.01  -0.00  -0.02
  13   1    -0.01  -0.01   0.01     0.01   0.03  -0.02     0.28   0.49  -0.34
  14   1     0.00  -0.01  -0.01    -0.02   0.02  -0.01    -0.37   0.53   0.14
  15   1     0.01  -0.01  -0.01     0.00   0.01   0.01    -0.02  -0.07  -0.06
  16   1    -0.00   0.01  -0.01    -0.01  -0.00   0.01     0.06   0.01  -0.08
  17   1    -0.00  -0.01   0.00     0.05  -0.10   0.15    -0.02   0.03  -0.03
  18   1    -0.00  -0.01   0.01    -0.06  -0.19  -0.04     0.01   0.04   0.01
  19   1     0.06   0.02  -0.08     0.01  -0.00  -0.00    -0.03   0.04  -0.06
  20   1     0.08   0.04  -0.04     0.01  -0.01  -0.01     0.07   0.06  -0.01
  21   1    -0.48   0.14   0.06     0.00   0.01  -0.02    -0.01  -0.03   0.07
  22   1    -0.33   0.24   0.30    -0.01   0.01   0.01     0.00  -0.03  -0.02
  23   1    -0.27   0.43  -0.01    -0.00  -0.01  -0.01     0.02   0.04   0.04
                     43                     44                     45
                        a                      a                      a 
 Frequencies --  1508.9713              1512.4046              1513.7486
 Red. masses --     1.5417                 1.5839                 1.8270
 Frc consts  --     0.0000                 0.0000                 0.0000
 IR Inten    --     1.6962                 1.2152                 0.4930
 Raman Activ --     0.0000                 0.0000                 0.0000
 Depolar     --     0.0000                 0.0000                 0.0000
 Atom AN      X      Y      Z        X      Y      Z        X      Y      Z
   1   7     0.00  -0.00   0.00     0.00   0.00  -0.00    -0.00  -0.01   0.00
   2   6    -0.00   0.00   0.02     0.00   0.00  -0.01    -0.00  -0.00   0.01
   3   6     0.00  -0.02   0.01     0.00  -0.01  -0.00    -0.01   0.05   0.00
   4   6    -0.01   0.01   0.05     0.01  -0.02  -0.09    -0.03   0.06   0.24
   5   6     0.01   0.04  -0.02    -0.01  -0.05   0.01    -0.00   0.06  -0.01
   6   6    -0.01   0.03   0.04     0.05  -0.03   0.02     0.03  -0.02  -0.01
   7   6     0.04  -0.04   0.19     0.11   0.15   0.04     0.03   0.06  -0.03
   8   1    -0.00  -0.00   0.00    -0.00   0.00  -0.01     0.01   0.00   0.01
   9   1     0.00   0.01   0.00    -0.01  -0.02  -0.01     0.02   0.04   0.02
  10   1    -0.00   0.01  -0.00     0.00  -0.01   0.01    -0.00   0.02  -0.02
  11   1     0.03  -0.02  -0.03    -0.01   0.01   0.01     0.02  -0.01  -0.02
  12   1    -0.01   0.01  -0.05     0.01  -0.01   0.02    -0.02   0.00  -0.03
  13   1     0.03   0.05  -0.03     0.00   0.00  -0.01    -0.04  -0.07   0.06
  14   1    -0.04   0.05   0.01    -0.00   0.01   0.00     0.07  -0.08  -0.01
  15   1    -0.04  -0.08  -0.09     0.07   0.14   0.15    -0.17  -0.39  -0.41
  16   1     0.07   0.03  -0.11    -0.10  -0.06   0.18     0.28   0.16  -0.49
  17   1     0.02  -0.04   0.06    -0.05   0.05  -0.06     0.07  -0.09   0.12
  18   1    -0.01  -0.07  -0.02     0.04   0.09   0.01    -0.05  -0.16  -0.03
  19   1     0.03  -0.03   0.05    -0.08   0.09  -0.10    -0.07   0.06  -0.06
  20   1     0.02  -0.09  -0.03     0.02   0.12   0.04     0.01   0.10   0.03
  21   1     0.17   0.25  -0.57     0.30  -0.18   0.13     0.08  -0.12   0.17
  22   1    -0.15   0.27   0.19    -0.42  -0.46   0.10    -0.11  -0.23  -0.01
  23   1    -0.17  -0.35  -0.42    -0.35   0.02  -0.37    -0.09   0.08  -0.04
                     46                     47                     48
                        a                      a                      a 
 Frequencies --  1520.5135              1522.8163              2912.3788
 Red. masses --     1.9129                 1.9747                 1.8900
 Frc consts  --     0.0000                 0.0000                 0.0000
 IR Inten    --     0.9039                 0.3999                14.0525
 Raman Activ --     0.0000                 0.0000                 0.0000
 Depolar     --     0.0000                 0.0000                 0.0000
 Atom AN      X      Y      Z        X      Y      Z        X      Y      Z
   1   7     0.00  -0.00  -0.00     0.00   0.00   0.00    -0.00  -0.00  -0.00
   2   6    -0.00   0.01   0.03    -0.01   0.02   0.07    -0.00   0.00   0.00
   3   6    -0.00   0.01  -0.01     0.01  -0.03   0.02     0.00   0.00  -0.00
   4   6     0.01  -0.01  -0.05     0.02  -0.01  -0.08    -0.00   0.01   0.01
   5   6     0.01   0.09  -0.05    -0.03   0.23  -0.06    -0.08  -0.03  -0.13
   6   6    -0.00  -0.23   0.10    -0.02   0.12  -0.04     0.12   0.10   0.18
   7   6    -0.04  -0.03   0.02     0.03   0.03  -0.03    -0.01  -0.00  -0.01
   8   1     0.00  -0.00   0.00    -0.01  -0.01   0.00    -0.00   0.00   0.00
   9   1    -0.01  -0.01   0.00    -0.02  -0.01   0.00     0.00  -0.00   0.00
  10   1    -0.00  -0.01   0.01    -0.00  -0.01   0.01    -0.00   0.00  -0.00
  11   1     0.04  -0.04  -0.05     0.10  -0.09  -0.10    -0.00   0.00  -0.00
  12   1    -0.04   0.00  -0.07    -0.06   0.04  -0.17     0.01  -0.01  -0.00
  13   1    -0.01  -0.02   0.01     0.03   0.05  -0.05    -0.00   0.00   0.00
  14   1     0.03  -0.02   0.01    -0.05   0.06   0.01    -0.01  -0.01   0.01
  15   1     0.03   0.09   0.08     0.04   0.11   0.10     0.01   0.01  -0.01
  16   1    -0.06  -0.03   0.10    -0.08  -0.04   0.13    -0.02  -0.04  -0.02
  17   1     0.10  -0.15   0.20     0.24  -0.31   0.39     0.11   0.26   0.13
  18   1    -0.08  -0.25  -0.05    -0.14  -0.52  -0.13     0.20  -0.15   0.35
  19   1    -0.20   0.31  -0.45     0.10  -0.15   0.20    -0.21  -0.52  -0.26
  20   1     0.15   0.55   0.12    -0.05  -0.25  -0.07    -0.22   0.17  -0.41
  21   1    -0.02   0.06  -0.09     0.01  -0.07   0.11     0.01   0.04   0.02
  22   1     0.10   0.11  -0.02    -0.06  -0.11  -0.00     0.02  -0.01   0.03
  23   1     0.07  -0.07   0.04    -0.04   0.06  -0.00     0.00   0.00  -0.01
                     49                     50                     51
                        a                      a                      a 
 Frequencies --  2920.2401              2923.3424              2936.9175
 Red. masses --     1.9417                 1.9581                 1.8968
 Frc consts  --     0.0000                 0.0000                 0.0000
 IR Inten    --    38.8615               145.9310                29.8022
 Raman Activ --     0.0000                 0.0000                 0.0000
 Depolar     --     0.0000                 0.0000                 0.0000
 Atom AN      X      Y      Z        X      Y      Z        X      Y      Z
   1   7    -0.00   0.00   0.00    -0.00  -0.00  -0.00    -0.00   0.00   0.00
   2   6     0.00  -0.00   0.00    -0.00   0.00   0.00    -0.02   0.02  -0.00
   3   6    -0.02  -0.00   0.02     0.01   0.00  -0.01     0.22  -0.06  -0.16
   4   6     0.14   0.19  -0.03    -0.10  -0.12   0.04     0.02   0.03   0.03
   5   6    -0.07  -0.03  -0.11    -0.11  -0.03  -0.17     0.00   0.00   0.01
   6   6    -0.05  -0.05  -0.07    -0.07  -0.06  -0.11     0.00  -0.01   0.00
   7   6     0.00   0.00   0.00     0.01   0.00   0.01     0.00   0.00   0.00
   8   1     0.00  -0.00  -0.00    -0.00   0.00   0.00    -0.00  -0.00   0.00
   9   1    -0.00  -0.00   0.00     0.00   0.00  -0.00    -0.00  -0.00  -0.00
  10   1    -0.00   0.00   0.00     0.00   0.00  -0.00    -0.00  -0.00  -0.00
  11   1    -0.00   0.00  -0.01    -0.00  -0.00   0.00     0.02  -0.01   0.03
  12   1    -0.00   0.00   0.00     0.01  -0.01  -0.00     0.07  -0.07  -0.04
  13   1     0.02  -0.03  -0.01    -0.01   0.01   0.01    -0.54   0.51   0.29
  14   1     0.06   0.06  -0.07    -0.03  -0.03   0.04    -0.25  -0.27   0.29
  15   1    -0.31  -0.25   0.38     0.25   0.20  -0.30     0.03   0.03  -0.03
  16   1    -0.22  -0.45  -0.28     0.10   0.21   0.14    -0.08  -0.17  -0.09
  17   1     0.10   0.24   0.12     0.11   0.27   0.13    -0.00  -0.00  -0.00
  18   1     0.15  -0.11   0.25     0.28  -0.19   0.48    -0.01   0.01  -0.02
  19   1     0.09   0.21   0.11     0.12   0.30   0.15     0.02   0.04   0.02
  20   1     0.07  -0.05   0.13     0.12  -0.08   0.21    -0.02   0.01  -0.04
  21   1    -0.00  -0.01  -0.01    -0.01  -0.02  -0.01    -0.00  -0.00  -0.00
  22   1    -0.01   0.01  -0.02    -0.01   0.01  -0.02     0.00   0.00   0.00
  23   1     0.00  -0.00   0.00    -0.00  -0.00   0.00    -0.00  -0.00   0.00
                     52                     53                     54
                        a                      a                      a 
 Frequencies --  2949.4724              2955.8654              2957.8986
 Red. masses --     1.4974                 1.5574                 1.8400
 Frc consts  --     0.0000                 0.0000                 0.0000
 IR Inten    --    34.9491               106.6373                20.4016
 Raman Activ --     0.0000                 0.0000                 0.0000
 Depolar     --     0.0000                 0.0000                 0.0000
 Atom AN      X      Y      Z        X      Y      Z        X      Y      Z
   1   7    -0.00   0.00  -0.00    -0.00  -0.00  -0.00    -0.00  -0.00   0.00
   2   6    -0.02   0.02  -0.01     0.01  -0.01  -0.00     0.17  -0.14   0.12
   3   6     0.01  -0.02  -0.00    -0.04   0.00   0.04     0.04   0.03  -0.04
   4   6     0.00  -0.00  -0.01    -0.02   0.07   0.19     0.01   0.01  -0.04
   5   6    -0.01  -0.04  -0.01     0.02   0.08   0.02     0.00   0.08  -0.01
   6   6    -0.04   0.17  -0.10     0.00   0.03  -0.00    -0.00   0.03  -0.02
   7   6    -0.01  -0.01   0.02    -0.01  -0.01   0.00    -0.00  -0.01   0.01
   8   1    -0.00   0.00   0.00     0.00  -0.00  -0.00     0.00  -0.00  -0.00
   9   1    -0.00   0.00  -0.00    -0.00   0.00  -0.00     0.01  -0.01   0.01
  10   1     0.00   0.00   0.00     0.00   0.00   0.00    -0.00   0.00   0.00
  11   1     0.04  -0.03   0.06    -0.01   0.00  -0.01    -0.36   0.29  -0.58
  12   1     0.03  -0.03  -0.02    -0.04   0.04   0.02    -0.23   0.22   0.15
  13   1    -0.06   0.05   0.03     0.08  -0.08  -0.04     0.01   0.00  -0.01
  14   1     0.02   0.02  -0.02     0.07   0.07  -0.07    -0.13  -0.12   0.15
  15   1    -0.01  -0.01   0.01     0.35   0.30  -0.38    -0.08  -0.07   0.09
  16   1     0.01   0.02   0.01    -0.28  -0.54  -0.29     0.03   0.06   0.03
  17   1     0.07   0.15   0.09    -0.12  -0.25  -0.14    -0.11  -0.23  -0.14
  18   1    -0.04   0.02  -0.07     0.04  -0.01   0.07     0.11  -0.06   0.19
  19   1    -0.22  -0.46  -0.28    -0.03  -0.07  -0.04    -0.04  -0.08  -0.05
  20   1     0.35  -0.19   0.63     0.03  -0.01   0.06     0.06  -0.03   0.11
  21   1     0.00   0.01   0.01     0.00   0.01   0.01     0.01   0.02   0.01
  22   1    -0.03   0.01  -0.04    -0.00   0.00  -0.00    -0.01   0.01  -0.02
  23   1     0.05   0.04  -0.05     0.02   0.01  -0.02     0.02   0.01  -0.02
                     55                     56                     57
                        a                      a                      a 
 Frequencies --  2959.4111              2972.2960              2989.8137
 Red. masses --     1.5820                 1.5818                 1.9116
 Frc consts  --     0.0000                 0.0000                 0.0000
 IR Inten    --    70.4041                56.7754               104.0886
 Raman Activ --     0.0000                 0.0000                 0.0000
 Depolar     --     0.0000                 0.0000                 0.0000
 Atom AN      X      Y      Z        X      Y      Z        X      Y      Z
   1   7     0.00   0.00   0.00     0.00   0.00  -0.00     0.00   0.00   0.00
   2   6    -0.08   0.07  -0.06     0.05  -0.04   0.04     0.01  -0.01  -0.01
   3   6    -0.00  -0.03   0.01    -0.03  -0.20   0.08    -0.00  -0.00   0.00
   4   6     0.02   0.00  -0.06    -0.01  -0.03   0.00    -0.00  -0.00   0.00
   5   6     0.00   0.18  -0.03    -0.00  -0.01   0.00    -0.00  -0.01   0.00
   6   6    -0.00   0.03  -0.01     0.00  -0.01   0.01     0.00  -0.03   0.01
   7   6    -0.01  -0.02   0.01     0.00   0.00  -0.00    -0.13  -0.19   0.17
   8   1    -0.00   0.00   0.00    -0.00   0.00   0.00     0.00  -0.00  -0.00
   9   1    -0.00   0.00  -0.00     0.00  -0.00   0.01    -0.00   0.00  -0.00
  10   1    -0.00  -0.00  -0.00    -0.00  -0.00  -0.00    -0.00  -0.00  -0.00
  11   1     0.18  -0.14   0.28    -0.11   0.09  -0.18     0.02  -0.01   0.02
  12   1     0.11  -0.10  -0.07    -0.06   0.05   0.04    -0.04   0.03   0.02
  13   1    -0.07   0.06   0.04    -0.36   0.29   0.20    -0.01   0.00   0.00
  14   1     0.06   0.05  -0.07     0.46   0.40  -0.50     0.01   0.00  -0.01
  15   1    -0.14  -0.12   0.15     0.02   0.02  -0.03     0.00   0.00  -0.00
  16   1     0.07   0.13   0.07     0.03   0.06   0.04     0.00   0.01   0.00
  17   1    -0.26  -0.52  -0.31     0.01   0.02   0.01     0.02   0.03   0.02
  18   1     0.24  -0.12   0.40    -0.01   0.00  -0.01    -0.02   0.01  -0.03
  19   1    -0.03  -0.06  -0.04     0.01   0.02   0.01     0.03   0.05   0.03
  20   1     0.04  -0.02   0.06    -0.03   0.02  -0.04    -0.04   0.02  -0.07
  21   1     0.01   0.03   0.02    -0.00  -0.00  -0.00     0.08   0.21   0.16
  22   1    -0.02   0.01  -0.03     0.00  -0.00   0.00    -0.17   0.06  -0.24
  23   1     0.02   0.01  -0.02    -0.01  -0.01   0.01     0.56   0.38  -0.52
                     58                     59                     60
                        a                      a                      a 
 Frequencies --  2993.0980              2994.0561              3013.8044
 Red. masses --     1.5805                 1.9315                 1.2770
 Frc consts  --     0.0000                 0.0000                 0.0000
 IR Inten    --    16.6365                98.0468                57.8102
 Raman Activ --     0.0000                 0.0000                 0.0000
 Depolar     --     0.0000                 0.0000                 0.0000
 Atom AN      X      Y      Z        X      Y      Z        X      Y      Z
   1   7    -0.00  -0.00  -0.00    -0.00  -0.00  -0.00     0.00  -0.00  -0.00
   2   6    -0.10   0.10   0.17    -0.01   0.01   0.02     0.00  -0.00  -0.00
   3   6    -0.02   0.01   0.02    -0.00   0.00   0.00     0.00  -0.00   0.00
   4   6    -0.00   0.00   0.01    -0.00   0.00   0.00     0.00  -0.00  -0.00
   5   6     0.00   0.00   0.00     0.00   0.00   0.00     0.00   0.01  -0.00
   6   6    -0.00  -0.00  -0.00     0.01   0.01   0.02    -0.00   0.01  -0.00
   7   6    -0.02  -0.02  -0.01     0.15   0.10   0.23    -0.10   0.12   0.00
   8   1    -0.02   0.01   0.01    -0.00   0.00   0.00    -0.00   0.00   0.00
   9   1     0.01  -0.01   0.01     0.00  -0.00   0.00    -0.00   0.00  -0.00
  10   1    -0.00  -0.00   0.00     0.00  -0.00   0.00     0.00  -0.00  -0.00
  11   1    -0.22   0.19  -0.31    -0.02   0.02  -0.03     0.00  -0.00   0.00
  12   1     0.59  -0.55  -0.30     0.06  -0.05  -0.03    -0.00   0.00   0.00
  13   1     0.06  -0.05  -0.03     0.01  -0.01  -0.00    -0.00   0.00   0.00
  14   1     0.02   0.02  -0.02     0.00   0.00  -0.00     0.00   0.00  -0.00
  15   1     0.01   0.01  -0.01     0.00   0.00  -0.00    -0.01  -0.00   0.01
  16   1    -0.01  -0.01  -0.01    -0.00  -0.00  -0.00     0.00   0.01   0.00
  17   1    -0.01  -0.02  -0.01    -0.01  -0.01  -0.01    -0.01  -0.02  -0.01
  18   1     0.00   0.00   0.00     0.00   0.00  -0.00     0.01  -0.01   0.02
  19   1     0.00   0.01   0.00    -0.02  -0.03  -0.02    -0.00  -0.00  -0.00
  20   1     0.00  -0.00   0.00    -0.02   0.01  -0.05     0.00  -0.00   0.01
  21   1     0.03   0.07   0.04    -0.23  -0.58  -0.29    -0.22  -0.49  -0.28
  22   1     0.02  -0.02   0.04    -0.31   0.20  -0.54     0.30  -0.16   0.54
  23   1     0.04   0.02  -0.04     0.02   0.02   0.04     0.27   0.22  -0.27
                     61                     62                     63
                        a                      a                      a 
 Frequencies --  3268.2330              3270.8361              3294.3820
 Red. masses --     2.0445                 2.0518                 1.2803
 Frc consts  --     0.0000                 0.0000                 0.0000
 IR Inten    --   193.5285               166.2823                54.0281
 Raman Activ --     0.0000                 0.0000                 0.0000
 Depolar     --     0.0000                 0.0000                 0.0000
 Atom AN      X      Y      Z        X      Y      Z        X      Y      Z
   1   7     0.13   0.10   0.23    -0.17   0.23   0.00     0.09   0.07  -0.09
   2   6     0.00   0.00   0.01    -0.01   0.01   0.00     0.01   0.00  -0.01
   3   6    -0.00   0.00   0.00    -0.00  -0.00  -0.00    -0.00   0.00  -0.00
   4   6     0.00   0.00   0.00    -0.00  -0.00   0.00    -0.00   0.00   0.00
   5   6    -0.00  -0.00  -0.00     0.00   0.00   0.00     0.00  -0.00   0.00
   6   6    -0.00   0.00   0.00    -0.00  -0.00  -0.00    -0.00   0.00  -0.00
   7   6     0.00   0.00   0.00     0.00   0.00  -0.00    -0.00   0.00  -0.00
   8   1     0.13  -0.10  -0.05     0.52  -0.47  -0.30    -0.38   0.37   0.21
   9   1    -0.26   0.27  -0.40     0.25  -0.24   0.42     0.29  -0.27   0.44
  10   1    -0.36  -0.53  -0.42    -0.12  -0.13  -0.13    -0.25  -0.37  -0.32
  11   1    -0.01   0.00  -0.01     0.01  -0.00   0.01     0.01  -0.01   0.01
  12   1     0.00  -0.00  -0.00     0.01  -0.01  -0.01    -0.01   0.01   0.01
  13   1     0.00  -0.00  -0.00    -0.00  -0.00  -0.00     0.00  -0.00  -0.00
  14   1    -0.00  -0.00   0.00     0.00   0.00  -0.00    -0.00  -0.00   0.00
  15   1    -0.00   0.00  -0.00     0.00   0.00  -0.00     0.00   0.00  -0.00
  16   1    -0.00  -0.00  -0.00     0.00   0.00   0.00    -0.00  -0.00  -0.00
  17   1     0.00   0.00  -0.00     0.00  -0.00   0.00     0.00   0.00   0.00
  18   1     0.00   0.00   0.00    -0.00  -0.00  -0.00    -0.00   0.00  -0.00
  19   1    -0.00  -0.00  -0.00     0.00  -0.00   0.00    -0.00  -0.00  -0.00
  20   1     0.00  -0.00   0.00     0.00   0.00  -0.00     0.00  -0.00   0.00
  21   1    -0.00  -0.00  -0.00    -0.00  -0.00  -0.00     0.00  -0.00   0.00
  22   1     0.00   0.00  -0.00     0.00  -0.00   0.00    -0.00  -0.00  -0.00
  23   1    -0.00  -0.00   0.00    -0.00  -0.00   0.00    -0.00   0.00   0.00
