      -----------------------------------------------------------      
     |                   =====================                   |     
     |                           x T B                           |     
     |                   =====================                   |     
     |                         S. Grimme                         |     
     |          Mulliken Center for Theoretical Chemistry        |     
     |                    University of Bonn                     |     
      -----------------------------------------------------------      

   * xtb version 6.5.1 (fef0646) compiled by 'conda@b96dff2e9fd6' on 2023-01-04

   xtb is free software: you can redistribute it and/or modify it under
   the terms of the GNU Lesser General Public License as published by
   the Free Software Foundation, either version 3 of the License, or
   (at your option) any later version.
   
   xtb is distributed in the hope that it will be useful,
   but WITHOUT ANY WARRANTY; without even the implied warranty of
   MERCHANTABILITY or FITNESS FOR A PARTICULAR PURPOSE.  See the
   GNU Lesser General Public License for more details.
   
   Cite this work as:
   * C. Bannwarth, E. Caldeweyher, S. Ehlert, A. Hansen, P. Pracht,
     J. Seibert, S. Spicher, S. Grimme, WIREs Comput. Mol. Sci., 2020, 11,
     e01493. DOI: 10.1002/wcms.1493
   
   for GFN2-xTB:
   * C. Bannwarth, S. Ehlert and S. Grimme., J. Chem. Theory Comput., 2019,
     15, 1652-1671. DOI: 10.1021/acs.jctc.8b01176
   for GFN1-xTB:
   * S. Grimme, C. Bannwarth, P. Shushkov, J. Chem. Theory Comput., 2017,
     13, 1989-2009. DOI: 10.1021/acs.jctc.7b00118
   for GFN0-xTB:
   * P. Pracht, E. Caldeweyher, S. Ehlert, S. Grimme, ChemRxiv, 2019, preprint.
     DOI: 10.26434/chemrxiv.8326202.v1
   for GFN-FF:
   * S. Spicher and S. Grimme, Angew. Chem. Int. Ed., 2020, 59, 15665-15673.
     DOI: 10.1002/anie.202004239
   
   for ALPB and GBSA implicit solvation:
   * S. Ehlert, M. Stahn, S. Spicher, S. Grimme, J. Chem. Theory Comput.,
     2021, 17, 4250-4261. DOI: 10.1021/acs.jctc.1c00471
   
   for DFT-D4:
   * E. Caldeweyher, C. Bannwarth and S. Grimme, J. Chem. Phys., 2017,
     147, 034112. DOI: 10.1063/1.4993215
   * E. Caldeweyher, S. Ehlert, A. Hansen, H. Neugebauer, S. Spicher,
     C. Bannwarth and S. Grimme, J. Chem. Phys., 2019, 150, 154122.
     DOI: 10.1063/1.5090222
   * E. Caldeweyher, J.-M. Mewes, S. Ehlert and S. Grimme, Phys. Chem. Chem. Phys.
     2020, 22, 8499-8512. DOI: 10.1039/D0CP00502A
   
   for sTDA-xTB:
   * S. Grimme and C. Bannwarth, J. Chem. Phys., 2016, 145, 054103.
     DOI: 10.1063/1.4959605
   
   in the mass-spec context:
   * V. Asgeirsson, C. Bauer and S. Grimme, Chem. Sci., 2017, 8, 4879.
     DOI: 10.1039/c7sc00601b
   * J. Koopman and S. Grimme, ACS Omega 2019, 4, 12, 15120-15133.
     DOI: 10.1021/acsomega.9b02011
   
   for metadynamics refer to:
   * S. Grimme, J. Chem. Theory Comput., 2019, 155, 2847-2862
     DOI: 10.1021/acs.jctc.9b00143
   
   for SPH calculations refer to:
   * S. Spicher and S. Grimme, J. Chem. Theory Comput., 2021, 17, 1701-1714
     DOI: 10.1021/acs.jctc.0c01306
   
   with help from (in alphabetical order)
   P. Atkinson, C. Bannwarth, F. Bohle, G. Brandenburg, E. Caldeweyher
   M. Checinski, S. Dohm, S. Ehlert, S. Ehrlich, I. Gerasimov, C. Hölzer
   A. Katbashev, J. Koopman, C. Lavigne, S. Lehtola, F. März, M. Müller,
   F. Musil, H. Neugebauer, J. Pisarek, C. Plett, P. Pracht, F. Pultar,
   J. Seibert, P. Shushkov, S. Spicher, M. Stahn, M. Steiner, T. Strunk,
   J. Stückrath, T. Rose, and J. Unsleber
   
 * started run on 2023/01/23 at 14:30:45.321     

           -------------------------------------------------
          |                Calculation Setup                |
           -------------------------------------------------

          program call               : xtb init.xyz --opt -c 0 -u 0 -P 16
          hostname                   : gpg-woodward
          coordinate file            : init.xyz
          omp threads                :                    16

   ID    Z sym.   atoms
    1    7 N      1
    2    6 C      2-9
    3   17 Cl     10
    4    1 H      11-22

molecular fragmentation (1/2 indicates fragments):
1111111112111111111111
# atoms in fragment 1/2:    21     1
 fragment masses (1/2) :      122.19       35.45
CMA distance (Bohr)    :   8.323
constraining FC (au)   :  0.0500

           -------------------------------------------------
          |                 G F N 2 - x T B                 |
           -------------------------------------------------

        Reference                      10.1021/acs.jctc.8b01176
      * Hamiltonian:
        H0-scaling (s, p, d)           1.850000    2.230000    2.230000
        zeta-weighting                 0.500000
      * Dispersion:
        s8                             2.700000
        a1                             0.520000
        a2                             5.000000
        s9                             5.000000
      * Repulsion:
        kExp                           1.500000    1.000000
        rExp                           1.000000
      * Coulomb:
        alpha                          2.000000
        third order                    shell-resolved
        anisotropic                    true
        a3                             3.000000
        a5                             4.000000
        cn-shift                       1.200000
        cn-exp                         4.000000
        max-rad                        5.000000


          ...................................................
          :                      SETUP                      :
          :.................................................:
          :  # basis functions                  58          :
          :  # atomic orbitals                  57          :
          :  # shells                           33          :
          :  # electrons                        56          :
          :  max. iterations                   250          :
          :  Hamiltonian                  GFN2-xTB          :
          :  restarted?                      false          :
          :  GBSA solvation                  false          :
          :  PC potential                    false          :
          :  electronic temp.          300.0000000     K    :
          :  accuracy                    1.0000000          :
          :  -> integral cutoff          0.2500000E+02      :
          :  -> integral neglect         0.1000000E-07      :
          :  -> SCF convergence          0.1000000E-05 Eh   :
          :  -> wf. convergence          0.1000000E-03 e    :
          :  Broyden damping             0.4000000          :
          ...................................................

 iter      E             dE          RMSdq      gap      omega  full diag
   1    -30.9028869 -0.309029E+02  0.438E+00    4.64       0.0  T
   2    -31.0459688 -0.143082E+00  0.250E+00    2.23       1.0  T
   3    -31.0499858 -0.401699E-02  0.136E+00    1.14       1.0  T
   4    -31.0472126  0.277317E-02  0.502E-01    0.43       1.0  T
   5    -31.0516852 -0.447255E-02  0.162E-01    0.45       1.0  T
   6    -31.0517782 -0.930596E-04  0.994E-02    0.49       1.0  T
   7    -31.0518173 -0.390229E-04  0.671E-02    0.49       1.0  T
   8    -31.0518450 -0.276969E-04  0.378E-02    0.49       1.0  T
   9    -31.0518534 -0.845989E-05  0.121E-02    0.49       1.8  T
  10    -31.0518551 -0.169628E-05  0.418E-03    0.50       5.1  T
  11    -31.0518553 -0.150850E-06  0.179E-03    0.50      11.9  T
  12    -31.0518553 -0.151344E-07  0.412E-04    0.50      51.7  T
  13    -31.0518553 -0.754479E-09  0.186E-04    0.50     114.5  T

   *** convergence criteria satisfied after 13 iterations ***

         #    Occupation            Energy/Eh            Energy/eV
      -------------------------------------------------------------
         1        2.0000           -0.8772572             -23.8714
       ...           ...                  ...                  ...
        22        2.0000           -0.4526136             -12.3162
        23        2.0000           -0.4443321             -12.0909
        24        2.0000           -0.4311206             -11.7314
        25        2.0000           -0.4280184             -11.6470
        26        2.0000           -0.2814977              -7.6599
        27        1.9999           -0.2796959              -7.6109
        28        1.9999           -0.2793828              -7.6024 (HOMO)
        29        0.0002           -0.2611718              -7.1068 (LUMO)
        30                         -0.2516303              -6.8472
        31                         -0.1431263              -3.8947
        32                         -0.1161455              -3.1605
        33                         -0.0288122              -0.7840
       ...                                ...                  ...
        57                          0.6029299              16.4066
      -------------------------------------------------------------
                  HL-Gap            0.0182110 Eh            0.4955 eV
             Fermi-level           -0.2699910 Eh           -7.3468 eV

 SCC (total)                   0 d,  0 h,  0 min,  0.033 sec
 SCC setup                      ...        0 min,  0.000 sec (  0.681%)
 Dispersion                     ...        0 min,  0.000 sec (  1.024%)
 classical contributions        ...        0 min,  0.000 sec (  0.690%)
 integral evaluation            ...        0 min,  0.001 sec (  4.297%)
 iterations                     ...        0 min,  0.027 sec ( 83.450%)
 molecular gradient             ...        0 min,  0.003 sec (  8.433%)
 printout                       ...        0 min,  0.000 sec (  0.538%)

         :::::::::::::::::::::::::::::::::::::::::::::::::::::
         ::                     SUMMARY                     ::
         :::::::::::::::::::::::::::::::::::::::::::::::::::::
         :: total energy             -30.621026977692 Eh    ::
         :: gradient norm              0.038967031978 Eh/a0 ::
         :: HOMO-LUMO gap              0.495547542276 eV    ::
         ::.................................................::
         :: SCC energy               -31.051855289971 Eh    ::
         :: -> isotropic ES            0.151480458023 Eh    ::
         :: -> anisotropic ES         -0.011613615664 Eh    ::
         :: -> anisotropic XC          0.017653752387 Eh    ::
         :: -> dispersion             -0.017321229123 Eh    ::
         :: repulsion energy           0.430676861173 Eh    ::
         :: add. restraining           0.000000000000 Eh    ::
         :: total charge               0.000000000086 e     ::
         :::::::::::::::::::::::::::::::::::::::::::::::::::::

      ----------------------------------------------------------- 
     |                   =====================                   |
     |                        A N C O P T                        |
     |                   =====================                   |
     |               Approximate Normal Coordinate               |
     |                Rational Function Optimizer                |
      ----------------------------------------------------------- 

          ...................................................
          :                      SETUP                      :
          :.................................................:
          :   optimization level            normal          :
          :   max. optcycles                   200          :
          :   ANC micro-cycles                  20          :
          :   degrees of freedom                60          :
          :.................................................:
          :   RF solver                   davidson          :
          :   write xtbopt.log                true          :
          :   linear?                        false          :
          :   energy convergence         0.5000000E-05 Eh   :
          :   grad. convergence          0.1000000E-02 Eh/α :
          :   maximium RF displ.         1.0000000          :
          :   Hlow (freq-cutoff)         0.1000000E-01      :
          :   Hmax (freq-cutoff)         5.0000000          :
          :   S6 in model hess.         20.0000000          :
          ...................................................

generating ANC from model Hessian ...
Using Lindh-Hessian (1995)
 Shifting diagonal of input Hessian by    1.0208869591967802E-002
 Lowest  eigenvalues of input Hessian
    0.010000    0.000000    0.000000    0.000000    0.000000    0.000000
    0.000000    0.010475    0.012252    0.012413    0.012722    0.016583
    0.020231    0.020850    0.021806    0.023904    0.024236    0.032152
 Highest eigenvalues
    1.449424    1.526648    1.565248    1.828272    1.932330    1.942781


........................................................................
.............................. CYCLE    1 ..............................
........................................................................
   1    -31.0518553 -0.310519E+02  0.591E-05    0.50       0.0  T
   2    -31.0518553 -0.181934E-10  0.403E-05    0.50     529.2  T
   3    -31.0518553 -0.821032E-11  0.291E-05    0.50     733.0  T
     SCC iter.                  ...        0 min,  0.006 sec
     gradient                   ...        0 min,  0.003 sec
 * total energy  :   -30.6210270 Eh     change       -0.7695533E-10 Eh
   gradient norm :     0.0389670 Eh/α   predicted     0.0000000E+00 (-100.00%)
   displ. norm   :     0.5554333 α      lambda       -0.1234050E-01
   maximum displ.:     0.3318108 α      in ANC's #4, #5, #1, ...

........................................................................
.............................. CYCLE    2 ..............................
........................................................................
   1    -31.0775877 -0.310776E+02  0.239E-01    0.83       0.0  T
   2    -31.0776679 -0.802319E-04  0.145E-01    0.88       1.0  T
   3    -31.0776134  0.545717E-04  0.758E-02    0.91       1.0  T
   4    -31.0777174 -0.104035E-03  0.290E-02    0.92       1.0  T
   5    -31.0777207 -0.326313E-05  0.188E-02    0.92       1.1  T
   6    -31.0777223 -0.168223E-05  0.116E-02    0.92       1.8  T
   7    -31.0777234 -0.105995E-05  0.488E-03    0.92       4.4  T
   8    -31.0777235 -0.133888E-06  0.139E-03    0.92      15.4  T
   9    -31.0777236 -0.243252E-07  0.500E-04    0.92      42.6  T
  10    -31.0777236 -0.118156E-08  0.226E-04    0.92      94.4  T
     SCC iter.                  ...        0 min,  0.020 sec
     gradient                   ...        0 min,  0.003 sec
 * total energy  :   -30.6317582 Eh     change       -0.1073119E-01 Eh
   gradient norm :     0.0197502 Eh/α   predicted    -0.8073838E-02 ( -24.76%)
   displ. norm   :     0.8485819 α      lambda       -0.1313350E-01
   maximum displ.:     0.5230410 α      in ANC's #4, #5, #1, ...

........................................................................
.............................. CYCLE    3 ..............................
........................................................................
   1    -31.0947345 -0.310947E+02  0.344E-01    1.44       0.0  T
   2    -31.0952493 -0.514760E-03  0.201E-01    1.61       1.0  T
   3    -31.0952763 -0.270117E-04  0.107E-01    1.70       1.0  T
   4    -31.0953589 -0.825866E-04  0.428E-02    1.76       1.0  T
   5    -31.0953731 -0.141747E-04  0.245E-02    1.76       1.0  T
   6    -31.0953764 -0.338391E-05  0.152E-02    1.76       1.4  T
   7    -31.0953777 -0.126017E-05  0.934E-03    1.76       2.3  T
   8    -31.0953783 -0.549963E-06  0.503E-03    1.76       4.2  T
   9    -31.0953785 -0.241752E-06  0.112E-03    1.76      19.1  T
  10    -31.0953785 -0.831368E-08  0.557E-04    1.76      38.3  T
  11    -31.0953785 -0.225370E-08  0.203E-04    1.76     105.2  T
     SCC iter.                  ...        0 min,  0.022 sec
     gradient                   ...        0 min,  0.003 sec
 * total energy  :   -30.6390255 Eh     change       -0.7267341E-02 Eh
   gradient norm :     0.0162714 Eh/α   predicted    -0.1129542E-01 (  55.43%)
   displ. norm   :     0.3418276 α      lambda       -0.2852933E-02
   maximum displ.:     0.2099764 α      in ANC's #1, #5, #2, ...

........................................................................
.............................. CYCLE    4 ..............................
........................................................................
   1    -31.0935719 -0.310936E+02  0.166E-01    1.64       0.0  T
   2    -31.0936079 -0.359604E-04  0.975E-02    1.60       1.0  T
   3    -31.0935882  0.196954E-04  0.484E-02    1.58       1.0  T
   4    -31.0936248 -0.366851E-04  0.176E-02    1.57       1.2  T
   5    -31.0936263 -0.145999E-05  0.125E-02    1.57       1.7  T
   6    -31.0936271 -0.756904E-06  0.811E-03    1.57       2.6  T
   7    -31.0936275 -0.439288E-06  0.370E-03    1.57       5.8  T
   8    -31.0936276 -0.775408E-07  0.125E-03    1.57      17.1  T
   9    -31.0936276 -0.153259E-07  0.337E-04    1.57      63.3  T
  10    -31.0936276 -0.671520E-09  0.204E-04    1.57     104.3  T
     SCC iter.                  ...        0 min,  0.017 sec
     gradient                   ...        0 min,  0.002 sec
 * total energy  :   -30.6406021 Eh     change       -0.1576627E-02 Eh
   gradient norm :     0.0081354 Eh/α   predicted    -0.1593146E-02 (   1.05%)
   displ. norm   :     0.4589757 α      lambda       -0.2052219E-02
   maximum displ.:     0.3714791 α      in ANC's #1, #2, #3, ...

........................................................................
.............................. CYCLE    5 ..............................
........................................................................
   1    -31.0926541 -0.310927E+02  0.132E-01    1.58       0.0  T
   2    -31.0926918 -0.376655E-04  0.790E-02    1.61       1.0  T
   3    -31.0926860  0.578117E-05  0.421E-02    1.62       1.0  T
   4    -31.0927048 -0.187454E-04  0.191E-02    1.63       1.1  T
   5    -31.0927069 -0.210085E-05  0.141E-02    1.63       1.5  T
   6    -31.0927080 -0.113939E-05  0.744E-03    1.63       2.9  T
   7    -31.0927084 -0.411361E-06  0.247E-03    1.63       8.6  T
   8    -31.0927085 -0.432481E-07  0.976E-04    1.63      21.8  T
   9    -31.0927085 -0.562243E-08  0.346E-04    1.63      61.6  T
     SCC iter.                  ...        0 min,  0.013 sec
     gradient                   ...        0 min,  0.002 sec
 * total energy  :   -30.6424778 Eh     change       -0.1875676E-02 Eh
   gradient norm :     0.0086957 Eh/α   predicted    -0.1242273E-02 ( -33.77%)
   displ. norm   :     0.5609790 α      lambda       -0.2651889E-02
   maximum displ.:     0.4196188 α      in ANC's #1, #2, #3, ...

........................................................................
.............................. CYCLE    6 ..............................
........................................................................
   1    -31.0925656 -0.310926E+02  0.128E-01    1.67       0.0  T
   2    -31.0925970 -0.314432E-04  0.784E-02    1.70       1.0  T
   3    -31.0925925  0.453312E-05  0.383E-02    1.72       1.0  T
   4    -31.0926082 -0.156950E-04  0.194E-02    1.73       1.1  T
   5    -31.0926103 -0.211654E-05  0.141E-02    1.73       1.5  T
   6    -31.0926115 -0.116153E-05  0.731E-03    1.73       2.9  T
   7    -31.0926119 -0.389947E-06  0.282E-03    1.73       7.6  T
   8    -31.0926119 -0.441150E-07  0.107E-03    1.73      20.0  T
   9    -31.0926119 -0.803567E-08  0.349E-04    1.73      61.1  T
  10    -31.0926119 -0.459714E-09  0.225E-04    1.73      94.7  T
     SCC iter.                  ...        0 min,  0.015 sec
     gradient                   ...        0 min,  0.002 sec
 * total energy  :   -30.6449453 Eh     change       -0.2467460E-02 Eh
   gradient norm :     0.0091988 Eh/α   predicted    -0.1743233E-02 ( -29.35%)
   displ. norm   :     0.7211912 α      lambda       -0.3314663E-02
   maximum displ.:     0.5296189 α      in ANC's #1, #2, #3, ...

........................................................................
.............................. CYCLE    7 ..............................
........................................................................
   1    -31.0942415 -0.310942E+02  0.154E-01    1.78       0.0  T
   2    -31.0942685 -0.269625E-04  0.937E-02    1.79       1.0  T
   3    -31.0942661  0.240731E-05  0.401E-02    1.79       1.0  T
   4    -31.0942839 -0.177911E-04  0.242E-02    1.80       1.0  T
   5    -31.0942870 -0.313707E-05  0.166E-02    1.80       1.3  T
   6    -31.0942888 -0.180595E-05  0.683E-03    1.80       3.1  T
   7    -31.0942892 -0.331017E-06  0.317E-03    1.80       6.7  T
   8    -31.0942892 -0.589283E-07  0.740E-04    1.80      28.8  T
   9    -31.0942892 -0.296133E-08  0.407E-04    1.80      52.4  T
     SCC iter.                  ...        0 min,  0.013 sec
     gradient                   ...        0 min,  0.002 sec
 * total energy  :   -30.6481029 Eh     change       -0.3157631E-02 Eh
   gradient norm :     0.0105597 Eh/α   predicted    -0.2519340E-02 ( -20.21%)
   displ. norm   :     0.8308314 α      lambda       -0.3960379E-02
   maximum displ.:     0.6103900 α      in ANC's #1, #2, #3, ...

........................................................................
.............................. CYCLE    8 ..............................
........................................................................
   1    -31.0980147 -0.310980E+02  0.174E-01    1.88       0.0  T
   2    -31.0980504 -0.356456E-04  0.106E-01    1.87       1.0  T
   3    -31.0980454  0.495544E-05  0.472E-02    1.86       1.0  T
   4    -31.0980718 -0.263754E-04  0.274E-02    1.86       1.0  T
   5    -31.0980756 -0.375917E-05  0.184E-02    1.86       1.2  T
   6    -31.0980777 -0.216793E-05  0.878E-03    1.86       2.4  T
   7    -31.0980783 -0.543884E-06  0.345E-03    1.86       6.2  T
   8    -31.0980783 -0.550315E-07  0.112E-03    1.86      19.0  T
   9    -31.0980784 -0.137042E-07  0.440E-04    1.86      48.5  T
  10    -31.0980784 -0.500691E-09  0.310E-04    1.86      68.8  T
     SCC iter.                  ...        0 min,  0.014 sec
     gradient                   ...        0 min,  0.002 sec
 * total energy  :   -30.6519113 Eh     change       -0.3808387E-02 Eh
   gradient norm :     0.0106684 Eh/α   predicted    -0.3347079E-02 ( -12.11%)
   displ. norm   :     0.9028512 α      lambda       -0.4757088E-02
   maximum displ.:     0.6564686 α      in ANC's #1, #3, #2, ...

........................................................................
.............................. CYCLE    9 ..............................
........................................................................
   1    -31.1048292 -0.311048E+02  0.182E-01    2.00       0.0  T
   2    -31.1048757 -0.465217E-04  0.110E-01    1.97       1.0  T
   3    -31.1048588  0.169422E-04  0.565E-02    1.97       1.0  T
   4    -31.1049041 -0.452781E-04  0.273E-02    1.96       1.0  T
   5    -31.1049075 -0.338834E-05  0.185E-02    1.96       1.1  T
   6    -31.1049096 -0.213867E-05  0.100E-02    1.97       2.1  T
   7    -31.1049103 -0.681052E-06  0.380E-03    1.97       5.6  T
   8    -31.1049104 -0.770553E-07  0.129E-03    1.97      16.5  T
   9    -31.1049104 -0.151604E-07  0.454E-04    1.97      47.0  T
  10    -31.1049104 -0.537575E-09  0.331E-04    1.97      64.4  T
     SCC iter.                  ...        0 min,  0.015 sec
     gradient                   ...        0 min,  0.002 sec
 * total energy  :   -30.6566244 Eh     change       -0.4713139E-02 Eh
   gradient norm :     0.0125984 Eh/α   predicted    -0.4317401E-02 (  -8.40%)
   displ. norm   :     0.9266505 α      lambda       -0.5887842E-02
   maximum displ.:     0.6075989 α      in ANC's #1, #4, #3, ...

........................................................................
.............................. CYCLE   10 ..............................
........................................................................
   1    -31.1181373 -0.311181E+02  0.196E-01    2.20       0.0  T
   2    -31.1181855 -0.482527E-04  0.117E-01    2.19       1.0  T
   3    -31.1181584  0.271411E-04  0.630E-02    2.20       1.0  T
   4    -31.1182208 -0.623888E-04  0.269E-02    2.20       1.0  T
   5    -31.1182245 -0.369894E-05  0.154E-02    2.20       1.4  T
   6    -31.1182260 -0.147286E-05  0.974E-03    2.20       2.2  T
   7    -31.1182267 -0.715706E-06  0.158E-03    2.20      13.5  T
   8    -31.1182267 -0.169918E-07  0.842E-04    2.20      25.3  T
   9    -31.1182267 -0.741763E-08  0.353E-04    2.20      60.3  T
     SCC iter.                  ...        0 min,  0.013 sec
     gradient                   ...        0 min,  0.002 sec
 * total energy  :   -30.6622146 Eh     change       -0.5590201E-02 Eh
   gradient norm :     0.0271746 Eh/α   predicted    -0.5471816E-02 (  -2.12%)
   displ. norm   :     0.9616999 α      lambda       -0.6166831E-02
   maximum displ.:     0.6472864 α      in ANC's #1, #3, #4, ...

........................................................................
.............................. CYCLE   11 ..............................
........................................................................
   1    -31.1259077 -0.311259E+02  0.223E-01    2.39       0.0  T
   2    -31.1260323 -0.124535E-03  0.130E-01    2.35       1.0  T
   3    -31.1260281  0.415395E-05  0.739E-02    2.34       1.0  T
   4    -31.1260859 -0.578072E-04  0.331E-02    2.33       1.0  T
   5    -31.1260911 -0.516942E-05  0.243E-02    2.33       1.0  T
   6    -31.1260947 -0.362890E-05  0.136E-02    2.34       1.6  T
   7    -31.1260960 -0.126439E-05  0.577E-03    2.34       3.7  T
   8    -31.1260962 -0.188125E-06  0.174E-03    2.34      12.2  T
   9    -31.1260962 -0.275903E-07  0.415E-04    2.34      51.3  T
  10    -31.1260962 -0.470475E-09  0.270E-04    2.34      79.0  T
     SCC iter.                  ...        0 min,  0.015 sec
     gradient                   ...        0 min,  0.002 sec
 * total energy  :   -30.6674473 Eh     change       -0.5232701E-02 Eh
   gradient norm :     0.0497488 Eh/α   predicted    -0.5935180E-02 (  13.42%)
   displ. norm   :     0.8193008 α      lambda       -0.1182165E-01
   maximum displ.:     0.4238000 α      in ANC's #4, #5, #3, ...

........................................................................
.............................. CYCLE   12 ..............................
........................................................................
   1    -31.1382866 -0.311383E+02  0.525E-01    2.68       0.0  T
   2    -31.1387283 -0.441641E-03  0.301E-01    2.71       1.0  T
   3    -31.1386463  0.820060E-04  0.118E-01    2.74       1.0  T
   4    -31.1388079 -0.161651E-03  0.450E-02    2.75       1.0  T
   5    -31.1388289 -0.209235E-04  0.291E-02    2.76       1.0  T
   6    -31.1388326 -0.369658E-05  0.197E-02    2.75       1.1  T
   7    -31.1388353 -0.277135E-05  0.946E-03    2.75       2.3  T
   8    -31.1388359 -0.535330E-06  0.400E-03    2.75       5.3  T
   9    -31.1388361 -0.196790E-06  0.113E-03    2.75      18.9  T
  10    -31.1388361 -0.368284E-08  0.471E-04    2.75      45.2  T
  11    -31.1388361 -0.264910E-08  0.141E-04    2.75     151.0  T
     SCC iter.                  ...        0 min,  0.016 sec
     gradient                   ...        0 min,  0.002 sec
 * total energy  :   -30.6663342 Eh     change        0.1113180E-02 Eh
   gradient norm :     0.0891763 Eh/α   predicted    -0.9878556E-02 (-987.42%)
   displ. norm   :     0.3593870 α      lambda       -0.1402774E-01
   maximum displ.:     0.2115592 α      in ANC's #2, #1, #4, ...

........................................................................
.............................. CYCLE   13 ..............................
........................................................................
   1    -31.1325940 -0.311326E+02  0.261E-01    2.61       0.0  T
   2    -31.1326625 -0.685494E-04  0.156E-01    2.58       1.0  T
   3    -31.1326302  0.323705E-04  0.605E-02    2.55       1.0  T
   4    -31.1326897 -0.594791E-04  0.286E-02    2.55       1.0  T
   5    -31.1326942 -0.458631E-05  0.207E-02    2.55       1.0  T
   6    -31.1326968 -0.254168E-05  0.107E-02    2.55       2.0  T
   7    -31.1326977 -0.902553E-06  0.468E-03    2.55       4.6  T
   8    -31.1326978 -0.127257E-06  0.182E-03    2.55      11.7  T
   9    -31.1326978 -0.266508E-07  0.635E-04    2.55      33.6  T
  10    -31.1326978 -0.126115E-08  0.248E-04    2.55      86.1  T
     SCC iter.                  ...        0 min,  0.014 sec
     gradient                   ...        0 min,  0.002 sec
 * total energy  :   -30.6752251 Eh     change       -0.8890984E-02 Eh
   gradient norm :     0.0446696 Eh/α   predicted    -0.7919788E-02 ( -10.92%)
   displ. norm   :     0.6821892 α      lambda       -0.8045941E-02
   maximum displ.:     0.3567656 α      in ANC's #1, #3, #2, ...

........................................................................
.............................. CYCLE   14 ..............................
........................................................................
   1    -31.1239614 -0.311240E+02  0.324E-01    2.63       0.0  T
   2    -31.1242275 -0.266049E-03  0.186E-01    2.68       1.0  T
   3    -31.1242162  0.113105E-04  0.734E-02    2.74       1.0  T
   4    -31.1242490 -0.327940E-04  0.352E-02    2.76       1.0  T
   5    -31.1242668 -0.178428E-04  0.201E-02    2.76       1.1  T
   6    -31.1242686 -0.181434E-05  0.138E-02    2.76       1.5  T
   7    -31.1242699 -0.132140E-05  0.688E-03    2.76       3.1  T
   8    -31.1242702 -0.277605E-06  0.243E-03    2.76       8.8  T
   9    -31.1242703 -0.699578E-07  0.827E-04    2.76      25.8  T
  10    -31.1242703 -0.154459E-08  0.433E-04    2.76      49.2  T
     SCC iter.                  ...        0 min,  0.014 sec
     gradient                   ...        0 min,  0.002 sec
 * total energy  :   -30.6791134 Eh     change       -0.3888264E-02 Eh
   gradient norm :     0.0480541 Eh/α   predicted    -0.5895188E-02 (  51.61%)
   displ. norm   :     0.6814559 α      lambda       -0.1366526E-01
   maximum displ.:     0.4014145 α      in ANC's #2, #10, #6, ...

........................................................................
.............................. CYCLE   15 ..............................
........................................................................
   1    -31.1146378 -0.311146E+02  0.444E-01    2.69       0.0  T
   2    -31.1150465 -0.408678E-03  0.259E-01    2.78       1.0  T
   3    -31.1149753  0.712339E-04  0.104E-01    2.85       1.0  T
   4    -31.1151052 -0.129873E-03  0.411E-02    2.89       1.0  T
   5    -31.1151262 -0.210215E-04  0.247E-02    2.89       1.0  T
   6    -31.1151287 -0.250198E-05  0.157E-02    2.88       1.4  T
   7    -31.1151303 -0.158539E-05  0.872E-03    2.88       2.4  T
   8    -31.1151307 -0.473895E-06  0.374E-03    2.88       5.7  T
   9    -31.1151308 -0.764272E-07  0.116E-03    2.88      18.4  T
  10    -31.1151308 -0.197560E-07  0.428E-04    2.88      49.9  T
  11    -31.1151308 -0.647287E-09  0.124E-04    2.88     172.4  T
     SCC iter.                  ...        0 min,  0.016 sec
     gradient                   ...        0 min,  0.002 sec
 * total energy  :   -30.6847967 Eh     change       -0.5683293E-02 Eh
   gradient norm :     0.0575689 Eh/α   predicted    -0.1000558E-01 (  76.05%)
   displ. norm   :     0.5592557 α      lambda       -0.1215980E-01
   maximum displ.:     0.2382370 α      in ANC's #4, #3, #1, ...

........................................................................
.............................. CYCLE   16 ..............................
........................................................................
   1    -31.1257062 -0.311257E+02  0.411E-01    2.99       0.0  T
   2    -31.1264518 -0.745645E-03  0.230E-01    3.11       1.0  T
   3    -31.1265087 -0.568964E-04  0.103E-01    3.23       1.0  T
   4    -31.1265214 -0.126592E-04  0.618E-02    3.28       1.0  T
   5    -31.1265567 -0.352969E-04  0.455E-02    3.29       1.0  T
   6    -31.1265750 -0.183330E-04  0.181E-02    3.28       1.2  T
   7    -31.1265776 -0.258440E-05  0.996E-03    3.29       2.1  T
   8    -31.1265787 -0.109818E-05  0.292E-03    3.28       7.3  T
   9    -31.1265787 -0.573662E-07  0.149E-03    3.28      14.3  T
  10    -31.1265787 -0.153381E-07  0.103E-03    3.28      20.6  T
  11    -31.1265788 -0.687394E-08  0.520E-04    3.28      41.0  T
  12    -31.1265788 -0.178617E-08  0.237E-04    3.28      89.8  T
     SCC iter.                  ...        0 min,  0.017 sec
     gradient                   ...        0 min,  0.002 sec
 * total energy  :   -30.6928865 Eh     change       -0.8089850E-02 Eh
   gradient norm :     0.0378066 Eh/α   predicted    -0.7981499E-02 (  -1.34%)
   displ. norm   :     0.6101854 α      lambda       -0.8735034E-02
   maximum displ.:     0.4080234 α      in ANC's #10, #2, #4, ...

........................................................................
.............................. CYCLE   17 ..............................
........................................................................
   1    -31.1286911 -0.311287E+02  0.480E-01    3.44       0.0  T
   2    -31.1296351 -0.943984E-03  0.290E-01    3.65       1.0  T
   3    -31.1297753 -0.140266E-03  0.138E-01    3.85       1.0  T
   4    -31.1298288 -0.534895E-04  0.945E-02    3.92       1.0  T
   5    -31.1298884 -0.595391E-04  0.727E-02    3.92       1.0  T
   6    -31.1299351 -0.467230E-04  0.378E-02    3.92       1.0  T
   7    -31.1299524 -0.173488E-04  0.173E-02    3.92       1.2  T
   8    -31.1299552 -0.273833E-05  0.634E-03    3.91       3.4  T
   9    -31.1299557 -0.475880E-06  0.304E-03    3.91       7.0  T
  10    -31.1299557 -0.469771E-07  0.204E-03    3.91      10.4  T
  11    -31.1299557 -0.171787E-07  0.143E-03    3.91      14.9  T
  12    -31.1299557 -0.174455E-07  0.647E-04    3.91      33.0  T
  13    -31.1299557 -0.256433E-08  0.145E-04    3.91     147.2  T
     SCC iter.                  ...        0 min,  0.019 sec
     gradient                   ...        0 min,  0.002 sec
 * total energy  :   -30.6968497 Eh     change       -0.3963156E-02 Eh
   gradient norm :     0.0421301 Eh/α   predicted    -0.5993679E-02 (  51.24%)
   displ. norm   :     0.3719445 α      lambda       -0.5173086E-02
   maximum displ.:     0.2897148 α      in ANC's #2, #1, #22, ...

........................................................................
.............................. CYCLE   18 ..............................
........................................................................
   1    -31.1411365 -0.311411E+02  0.220E-01    3.86       0.0  T
   2    -31.1411645 -0.279868E-04  0.133E-01    3.84       1.0  T
   3    -31.1411642  0.254474E-06  0.422E-02    3.82       1.0  T
   4    -31.1411863 -0.220593E-04  0.286E-02    3.82       1.0  T
   5    -31.1411917 -0.543655E-05  0.186E-02    3.82       1.1  T
   6    -31.1411945 -0.275807E-05  0.109E-02    3.82       2.0  T
   7    -31.1411956 -0.110542E-05  0.471E-03    3.82       4.5  T
   8    -31.1411958 -0.203648E-06  0.207E-03    3.82      10.3  T
   9    -31.1411958 -0.274595E-07  0.149E-03    3.82      14.4  T
  10    -31.1411958 -0.145112E-07  0.956E-04    3.82      22.3  T
  11    -31.1411958 -0.670448E-08  0.594E-04    3.82      35.9  T
     SCC iter.                  ...        0 min,  0.016 sec
     gradient                   ...        0 min,  0.002 sec
 * total energy  :   -30.6998473 Eh     change       -0.2997551E-02 Eh
   gradient norm :     0.0210832 Eh/α   predicted    -0.2944381E-02 (  -1.77%)
   displ. norm   :     0.2467645 α      lambda       -0.1735486E-02
   maximum displ.:     0.1021437 α      in ANC's #10, #2, #7, ...

........................................................................
.............................. CYCLE   19 ..............................
........................................................................
   1    -31.1432692 -0.311433E+02  0.156E-01    3.88       0.0  T
   2    -31.1433423 -0.730540E-04  0.911E-02    3.95       1.0  T
   3    -31.1433503 -0.804860E-05  0.369E-02    4.02       1.0  T
   4    -31.1433551 -0.480425E-05  0.251E-02    4.04       1.0  T
   5    -31.1433604 -0.530080E-05  0.184E-02    4.04       1.2  T
   6    -31.1433635 -0.308940E-05  0.925E-03    4.03       2.3  T
   7    -31.1433645 -0.992859E-06  0.462E-03    4.03       4.6  T
   8    -31.1433648 -0.223814E-06  0.174E-03    4.03      12.3  T
   9    -31.1433648 -0.233590E-07  0.117E-03    4.03      18.2  T
  10    -31.1433648 -0.735868E-08  0.821E-04    4.03      26.0  T
  11    -31.1433648 -0.366141E-08  0.487E-04    4.03      43.7  T
     SCC iter.                  ...        0 min,  0.016 sec
     gradient                   ...        0 min,  0.002 sec
 * total energy  :   -30.7009256 Eh     change       -0.1078315E-02 Eh
   gradient norm :     0.0221355 Eh/α   predicted    -0.9205887E-03 ( -14.63%)
   displ. norm   :     0.2094818 α      lambda       -0.1060738E-02
   maximum displ.:     0.1075628 α      in ANC's #10, #2, #6, ...

........................................................................
.............................. CYCLE   20 ..............................
........................................................................
   1    -31.1418403 -0.311418E+02  0.108E-01    4.05       0.0  T
   2    -31.1418731 -0.328667E-04  0.621E-02    4.10       1.0  T
   3    -31.1418754 -0.223521E-05  0.214E-02    4.15       1.0  T
   4    -31.1418768 -0.141814E-05  0.129E-02    4.16       1.6  T
   5    -31.1418788 -0.198774E-05  0.789E-03    4.16       2.7  T
   6    -31.1418792 -0.397140E-06  0.462E-03    4.16       4.6  T
   7    -31.1418793 -0.156128E-06  0.297E-03    4.16       7.2  T
   8    -31.1418794 -0.103144E-06  0.960E-04    4.16      22.2  T
   9    -31.1418794 -0.762579E-08  0.632E-04    4.16      33.8  T
     SCC iter.                  ...        0 min,  0.013 sec
     gradient                   ...        0 min,  0.002 sec
 * total energy  :   -30.7015800 Eh     change       -0.6544732E-03 Eh
   gradient norm :     0.0187043 Eh/α   predicted    -0.5536444E-03 ( -15.41%)
   displ. norm   :     0.2614049 α      lambda       -0.1162313E-02
   maximum displ.:     0.1177017 α      in ANC's #1, #5, #4, ...
 * RMSD in coord.:     1.8231340 α      energy gain  -0.8055306E-01 Eh

generating ANC from model Hessian ...
Using Lindh-Hessian (1995)
 Shifting diagonal of input Hessian by    9.8220474106417467E-003
 Lowest  eigenvalues of input Hessian
    0.000000    0.000000    0.000000    0.000000    0.000000    0.000000
    0.010000    0.011326    0.012200    0.013333    0.014443    0.017037
    0.020413    0.021837    0.022044    0.025515    0.033377    0.035711
 Highest eigenvalues
    1.429583    1.589566    1.619755    1.907819    2.013684    2.033339


........................................................................
.............................. CYCLE   21 ..............................
........................................................................
   1    -31.1489810 -0.311490E+02  0.183E-01    4.21       0.0  T
   2    -31.1490275 -0.464628E-04  0.108E-01    4.26       1.0  T
   3    -31.1490340 -0.648975E-05  0.354E-02    4.32       1.0  T
   4    -31.1490390 -0.507839E-05  0.245E-02    4.33       1.0  T
   5    -31.1490435 -0.448112E-05  0.185E-02    4.32       1.2  T
   6    -31.1490465 -0.295994E-05  0.617E-03    4.32       3.5  T
   7    -31.1490469 -0.374322E-06  0.322E-03    4.32       6.6  T
   8    -31.1490470 -0.874548E-07  0.178E-03    4.32      12.0  T
   9    -31.1490470 -0.180881E-07  0.138E-03    4.32      15.5  T
  10    -31.1490470 -0.121782E-07  0.104E-03    4.32      20.4  T
  11    -31.1490470 -0.128126E-07  0.412E-04    4.32      51.7  T
  12    -31.1490470 -0.171115E-08  0.154E-04    4.32     138.3  T
     SCC iter.                  ...        0 min,  0.017 sec
     gradient                   ...        0 min,  0.002 sec
 * total energy  :   -30.7019211 Eh     change       -0.3410894E-03 Eh
   gradient norm :     0.0156451 Eh/α   predicted     0.0000000E+00 (-100.00%)
   displ. norm   :     0.1970215 α      lambda       -0.1268799E-02
   maximum displ.:     0.1249033 α      in ANC's #5, #3, #15, ...

........................................................................
.............................. CYCLE   22 ..............................
........................................................................
   1    -31.1459001 -0.311459E+02  0.129E-01    4.28       0.0  T
   2    -31.1459134 -0.132965E-04  0.797E-02    4.29       1.0  T
   3    -31.1459051  0.835550E-05  0.345E-02    4.30       1.0  T
   4    -31.1459242 -0.191386E-04  0.196E-02    4.31       1.1  T
   5    -31.1459260 -0.182572E-05  0.135E-02    4.31       1.6  T
   6    -31.1459272 -0.117221E-05  0.625E-03    4.31       3.4  T
   7    -31.1459275 -0.319072E-06  0.272E-03    4.31       7.8  T
   8    -31.1459276 -0.444008E-07  0.971E-04    4.31      22.0  T
   9    -31.1459276 -0.655831E-08  0.663E-04    4.31      32.2  T
     SCC iter.                  ...        0 min,  0.013 sec
     gradient                   ...        0 min,  0.002 sec
 * total energy  :   -30.7025486 Eh     change       -0.6275101E-03 Eh
   gradient norm :     0.0075486 Eh/α   predicted    -0.6590315E-03 (   5.02%)
   displ. norm   :     0.1697125 α      lambda       -0.4870509E-03
   maximum displ.:     0.1280967 α      in ANC's #1, #4, #2, ...

........................................................................
.............................. CYCLE   23 ..............................
........................................................................
   1    -31.1444096 -0.311444E+02  0.841E-02    4.31       0.0  T
   2    -31.1444149 -0.525720E-05  0.501E-02    4.32       1.0  T
   3    -31.1444161 -0.119192E-05  0.158E-02    4.33       1.3  T
   4    -31.1444177 -0.161107E-05  0.115E-02    4.33       1.9  T
   5    -31.1444184 -0.706853E-06  0.835E-03    4.33       2.6  T
   6    -31.1444189 -0.501169E-06  0.285E-03    4.33       7.5  T
   7    -31.1444189 -0.579694E-07  0.129E-03    4.33      16.5  T
   8    -31.1444189 -0.742470E-08  0.389E-04    4.33      54.8  T
   9    -31.1444189 -0.237539E-08  0.113E-04    4.33     189.1  T
     SCC iter.                  ...        0 min,  0.013 sec
     gradient                   ...        0 min,  0.002 sec
 * total energy  :   -30.7028690 Eh     change       -0.3203228E-03 Eh
   gradient norm :     0.0038367 Eh/α   predicted    -0.2505636E-03 ( -21.78%)
   displ. norm   :     0.1799043 α      lambda       -0.2106086E-03
   maximum displ.:     0.1266345 α      in ANC's #1, #4, #2, ...

........................................................................
.............................. CYCLE   24 ..............................
........................................................................
   1    -31.1449683 -0.311450E+02  0.633E-02    4.33       0.0  T
   2    -31.1449701 -0.173457E-05  0.374E-02    4.34       1.0  T
   3    -31.1449703 -0.217493E-06  0.930E-03    4.34       2.3  T
   4    -31.1449710 -0.727701E-06  0.666E-03    4.35       3.2  T
   5    -31.1449712 -0.239839E-06  0.486E-03    4.34       4.4  T
   6    -31.1449714 -0.168199E-06  0.186E-03    4.34      11.5  T
   7    -31.1449714 -0.266908E-07  0.719E-04    4.34      29.7  T
   8    -31.1449714 -0.146965E-08  0.253E-04    4.34      84.1  T
     SCC iter.                  ...        0 min,  0.012 sec
     gradient                   ...        0 min,  0.002 sec
 * total energy  :   -30.7030270 Eh     change       -0.1580270E-03 Eh
   gradient norm :     0.0039348 Eh/α   predicted    -0.1087139E-03 ( -31.21%)
   displ. norm   :     0.2418093 α      lambda       -0.2119784E-03
   maximum displ.:     0.1590422 α      in ANC's #1, #4, #2, ...

........................................................................
.............................. CYCLE   25 ..............................
........................................................................
   1    -31.1461511 -0.311462E+02  0.776E-02    4.34       0.0  T
   2    -31.1461522 -0.114901E-05  0.460E-02    4.35       1.0  T
   3    -31.1461523 -0.707979E-07  0.932E-03    4.35       2.3  T
   4    -31.1461532 -0.932275E-06  0.663E-03    4.35       3.2  T
   5    -31.1461534 -0.202805E-06  0.451E-03    4.35       4.7  T
   6    -31.1461536 -0.166222E-06  0.148E-03    4.35      14.4  T
   7    -31.1461536 -0.166123E-07  0.565E-04    4.35      37.8  T
   8    -31.1461536 -0.102130E-08  0.255E-04    4.35      83.6  T
     SCC iter.                  ...        0 min,  0.012 sec
     gradient                   ...        0 min,  0.002 sec
 * total energy  :   -30.7031943 Eh     change       -0.1672963E-03 Eh
   gradient norm :     0.0050853 Eh/α   predicted    -0.1121868E-03 ( -32.94%)
   displ. norm   :     0.3472565 α      lambda       -0.2648789E-03
   maximum displ.:     0.2285434 α      in ANC's #1, #4, #2, ...

........................................................................
.............................. CYCLE   26 ..............................
........................................................................
   1    -31.1470060 -0.311470E+02  0.110E-01    4.35       0.0  T
   2    -31.1470077 -0.164093E-05  0.651E-02    4.35       1.0  T
   3    -31.1470079 -0.281337E-06  0.121E-02    4.36       1.8  T
   4    -31.1470094 -0.148161E-05  0.877E-03    4.36       2.4  T
   5    -31.1470098 -0.387240E-06  0.511E-03    4.36       4.2  T
   6    -31.1470101 -0.247572E-06  0.159E-03    4.36      13.4  T
   7    -31.1470101 -0.129231E-07  0.611E-04    4.36      34.9  T
   8    -31.1470101 -0.238630E-08  0.275E-04    4.36      77.6  T
     SCC iter.                  ...        0 min,  0.011 sec
     gradient                   ...        0 min,  0.002 sec
 * total energy  :   -30.7033987 Eh     change       -0.2043891E-03 Eh
   gradient norm :     0.0052776 Eh/α   predicted    -0.1484119E-03 ( -27.39%)
   displ. norm   :     0.3785169 α      lambda       -0.2637675E-03
   maximum displ.:     0.2555159 α      in ANC's #1, #5, #4, ...

........................................................................
.............................. CYCLE   27 ..............................
........................................................................
   1    -31.1470163 -0.311470E+02  0.116E-01    4.36       0.0  T
   2    -31.1470184 -0.207878E-05  0.690E-02    4.36       1.0  T
   3    -31.1470192 -0.821740E-06  0.117E-02    4.36       1.8  T
   4    -31.1470202 -0.983082E-06  0.898E-03    4.36       2.4  T
   5    -31.1470206 -0.398450E-06  0.598E-03    4.36       3.6  T
   6    -31.1470208 -0.274847E-06  0.211E-03    4.36      10.1  T
   7    -31.1470209 -0.424276E-07  0.806E-04    4.36      26.5  T
   8    -31.1470209 -0.134312E-08  0.404E-04    4.36      52.7  T
     SCC iter.                  ...        0 min,  0.012 sec
     gradient                   ...        0 min,  0.002 sec
 * total energy  :   -30.7035961 Eh     change       -0.1974725E-03 Eh
   gradient norm :     0.0034214 Eh/α   predicted    -0.1507837E-03 ( -23.64%)
   displ. norm   :     0.3262340 α      lambda       -0.1970681E-03
   maximum displ.:     0.2311307 α      in ANC's #1, #5, #2, ...

........................................................................
.............................. CYCLE   28 ..............................
........................................................................
   1    -31.1467724 -0.311468E+02  0.983E-02    4.36       0.0  T
   2    -31.1467744 -0.196148E-05  0.585E-02    4.36       1.0  T
   3    -31.1467755 -0.119005E-05  0.966E-03    4.36       2.2  T
   4    -31.1467759 -0.309744E-06  0.776E-03    4.36       2.7  T
   5    -31.1467761 -0.265362E-06  0.561E-03    4.36       3.8  T
   6    -31.1467764 -0.278297E-06  0.192E-03    4.36      11.1  T
   7    -31.1467764 -0.303230E-07  0.964E-04    4.36      22.1  T
   8    -31.1467764 -0.462741E-08  0.481E-04    4.36      44.3  T
     SCC iter.                  ...        0 min,  0.012 sec
     gradient                   ...        0 min,  0.002 sec
 * total energy  :   -30.7037343 Eh     change       -0.1381726E-03 Eh
   gradient norm :     0.0036671 Eh/α   predicted    -0.1090238E-03 ( -21.10%)
   displ. norm   :     0.3068906 α      lambda       -0.1139934E-03
   maximum displ.:     0.2377495 α      in ANC's #1, #5, #2, ...

........................................................................
.............................. CYCLE   29 ..............................
........................................................................
   1    -31.1460910 -0.311461E+02  0.949E-02    4.36       0.0  T
   2    -31.1460928 -0.181529E-05  0.568E-02    4.35       1.0  T
   3    -31.1460939 -0.101223E-05  0.111E-02    4.35       1.9  T
   4    -31.1460945 -0.650796E-06  0.886E-03    4.35       2.4  T
   5    -31.1460950 -0.455934E-06  0.573E-03    4.35       3.7  T
   6    -31.1460952 -0.262719E-06  0.139E-03    4.35      15.3  T
   7    -31.1460952 -0.144682E-07  0.678E-04    4.35      31.4  T
   8    -31.1460952 -0.200152E-08  0.216E-04    4.35      98.9  T
     SCC iter.                  ...        0 min,  0.012 sec
     gradient                   ...        0 min,  0.002 sec
 * total energy  :   -30.7038143 Eh     change       -0.7997006E-04 Eh
   gradient norm :     0.0050390 Eh/α   predicted    -0.6236504E-04 ( -22.01%)
   displ. norm   :     0.3060665 α      lambda       -0.1700266E-03
   maximum displ.:     0.2330192 α      in ANC's #1, #5, #9, ...

........................................................................
.............................. CYCLE   30 ..............................
........................................................................
   1    -31.1474144 -0.311474E+02  0.893E-02    4.37       0.0  T
   2    -31.1474170 -0.258796E-05  0.539E-02    4.37       1.0  T
   3    -31.1474177 -0.684192E-06  0.134E-02    4.37       1.6  T
   4    -31.1474193 -0.163519E-05  0.987E-03    4.37       2.2  T
   5    -31.1474198 -0.534386E-06  0.684E-03    4.37       3.1  T
   6    -31.1474202 -0.394827E-06  0.312E-03    4.36       6.8  T
   7    -31.1474203 -0.661300E-07  0.132E-03    4.36      16.1  T
   8    -31.1474203 -0.156625E-07  0.760E-04    4.36      28.1  T
   9    -31.1474203 -0.317409E-08  0.594E-04    4.36      35.9  T
     SCC iter.                  ...        0 min,  0.013 sec
     gradient                   ...        0 min,  0.002 sec
 * total energy  :   -30.7038975 Eh     change       -0.8317076E-04 Eh
   gradient norm :     0.0051253 Eh/α   predicted    -0.9297774E-04 (  11.79%)
   displ. norm   :     0.3685177 α      lambda       -0.1299237E-03
   maximum displ.:     0.3064111 α      in ANC's #1, #5, #2, ...

........................................................................
.............................. CYCLE   31 ..............................
........................................................................
   1    -31.1462623 -0.311463E+02  0.111E-01    4.36       0.0  T
   2    -31.1462650 -0.274789E-05  0.662E-02    4.36       1.0  T
   3    -31.1462659 -0.880159E-06  0.154E-02    4.35       1.4  T
   4    -31.1462681 -0.212487E-05  0.115E-02    4.35       1.8  T
   5    -31.1462689 -0.867069E-06  0.614E-03    4.35       3.5  T
   6    -31.1462692 -0.266078E-06  0.284E-03    4.35       7.5  T
   7    -31.1462692 -0.643145E-07  0.108E-03    4.35      19.7  T
   8    -31.1462693 -0.706839E-08  0.623E-04    4.35      34.2  T
   9    -31.1462693 -0.246178E-08  0.465E-04    4.35      45.8  T
     SCC iter.                  ...        0 min,  0.013 sec
     gradient                   ...        0 min,  0.002 sec
 * total energy  :   -30.7039629 Eh     change       -0.6541967E-04 Eh
   gradient norm :     0.0043534 Eh/α   predicted    -0.7382814E-04 (  12.85%)
   displ. norm   :     0.0599847 α      lambda       -0.7123071E-04
   maximum displ.:     0.0524589 α      in ANC's #4, #1, #2, ...

........................................................................
.............................. CYCLE   32 ..............................
........................................................................
   1    -31.1475580 -0.311476E+02  0.252E-02    4.36       0.0  T
   2    -31.1475587 -0.644022E-06  0.145E-02    4.36       1.5  T
   3    -31.1475586  0.901825E-07  0.493E-03    4.37       4.3  T
   4    -31.1475589 -0.278553E-06  0.276E-03    4.37       7.7  T
   5    -31.1475589 -0.516730E-07  0.198E-03    4.37      10.8  T
   6    -31.1475589 -0.270692E-07  0.108E-03    4.37      19.7  T
   7    -31.1475590 -0.102824E-07  0.535E-04    4.37      39.8  T
   8    -31.1475590 -0.209285E-08  0.225E-04    4.37      94.7  T
     SCC iter.                  ...        0 min,  0.012 sec
     gradient                   ...        0 min,  0.002 sec
 * total energy  :   -30.7040104 Eh     change       -0.4747424E-04 Eh
   gradient norm :     0.0026703 Eh/α   predicted    -0.3574655E-04 ( -24.70%)
   displ. norm   :     0.2040987 α      lambda       -0.6273008E-04
   maximum displ.:     0.1537498 α      in ANC's #1, #5, #4, ...

........................................................................
.............................. CYCLE   33 ..............................
........................................................................
   1    -31.1479441 -0.311479E+02  0.562E-02    4.38       0.0  T
   2    -31.1479452 -0.108531E-05  0.336E-02    4.39       1.0  T
   3    -31.1479451  0.413487E-07  0.830E-03    4.39       2.6  T
   4    -31.1479459 -0.798557E-06  0.565E-03    4.39       3.8  T
   5    -31.1479461 -0.155918E-06  0.399E-03    4.39       5.3  T
   6    -31.1479462 -0.122096E-06  0.147E-03    4.39      14.5  T
   7    -31.1479462 -0.209308E-07  0.627E-04    4.39      34.0  T
   8    -31.1479462 -0.199361E-08  0.358E-04    4.39      59.5  T
     SCC iter.                  ...        0 min,  0.012 sec
     gradient                   ...        0 min,  0.002 sec
 * total energy  :   -30.7040536 Eh     change       -0.4324664E-04 Eh
   gradient norm :     0.0025468 Eh/α   predicted    -0.3267283E-04 ( -24.45%)
   displ. norm   :     0.1743354 α      lambda       -0.4123887E-04
   maximum displ.:     0.1315803 α      in ANC's #1, #4, #5, ...

........................................................................
.............................. CYCLE   34 ..............................
........................................................................
   1    -31.1484620 -0.311485E+02  0.518E-02    4.40       0.0  T
   2    -31.1484625 -0.546969E-06  0.311E-02    4.40       1.0  T
   3    -31.1484626 -0.145438E-06  0.701E-03    4.39       3.0  T
   4    -31.1484631 -0.466251E-06  0.519E-03    4.40       4.1  T
   5    -31.1484633 -0.153627E-06  0.278E-03    4.39       7.7  T
   6    -31.1484633 -0.650433E-07  0.896E-04    4.39      23.8  T
   7    -31.1484633 -0.533233E-08  0.385E-04    4.39      55.3  T
     SCC iter.                  ...        0 min,  0.010 sec
     gradient                   ...        0 min,  0.002 sec
 * total energy  :   -30.7040833 Eh     change       -0.2968639E-04 Eh
   gradient norm :     0.0022749 Eh/α   predicted    -0.2124891E-04 ( -28.42%)
   displ. norm   :     0.1714876 α      lambda       -0.4024323E-04
   maximum displ.:     0.1097502 α      in ANC's #1, #4, #2, ...

........................................................................
.............................. CYCLE   35 ..............................
........................................................................
   1    -31.1483113 -0.311483E+02  0.533E-02    4.40       0.0  T
   2    -31.1483117 -0.467092E-06  0.318E-02    4.40       1.0  T
   3    -31.1483119 -0.221101E-06  0.533E-03    4.41       4.0  T
   4    -31.1483121 -0.188767E-06  0.416E-03    4.41       5.1  T
   5    -31.1483122 -0.990973E-07  0.265E-03    4.41       8.0  T
   6    -31.1483123 -0.564567E-07  0.115E-03    4.41      18.5  T
   7    -31.1483123 -0.119467E-07  0.555E-04    4.41      38.4  T
   8    -31.1483123 -0.177604E-08  0.292E-04    4.41      73.1  T
     SCC iter.                  ...        0 min,  0.012 sec
     gradient                   ...        0 min,  0.002 sec
 * total energy  :   -30.7041116 Eh     change       -0.2834420E-04 Eh
   gradient norm :     0.0022035 Eh/α   predicted    -0.2071404E-04 ( -26.92%)
   displ. norm   :     0.2521967 α      lambda       -0.4369497E-04
   maximum displ.:     0.1710692 α      in ANC's #1, #4, #2, ...

........................................................................
.............................. CYCLE   36 ..............................
........................................................................
   1    -31.1477741 -0.311478E+02  0.823E-02    4.41       0.0  T
   2    -31.1477749 -0.787072E-06  0.490E-02    4.41       1.0  T
   3    -31.1477753 -0.474044E-06  0.770E-03    4.41       2.8  T
   4    -31.1477757 -0.370546E-06  0.609E-03    4.41       3.5  T
   5    -31.1477759 -0.230323E-06  0.315E-03    4.41       6.8  T
   6    -31.1477760 -0.758785E-07  0.128E-03    4.40      16.7  T
   7    -31.1477760 -0.137763E-07  0.518E-04    4.40      41.2  T
   8    -31.1477760 -0.757289E-09  0.178E-04    4.40     120.0  T
     SCC iter.                  ...        0 min,  0.012 sec
     gradient                   ...        0 min,  0.002 sec
 * total energy  :   -30.7041411 Eh     change       -0.2949227E-04 Eh
   gradient norm :     0.0024721 Eh/α   predicted    -0.2323755E-04 ( -21.21%)
   displ. norm   :     0.1929432 α      lambda       -0.5987998E-04
   maximum displ.:     0.1023032 α      in ANC's #4, #2, #7, ...

........................................................................
.............................. CYCLE   37 ..............................
........................................................................
   1    -31.1479087 -0.311479E+02  0.674E-02    4.41       0.0  T
   2    -31.1479092 -0.524845E-06  0.397E-02    4.41       1.0  T
   3    -31.1479092  0.934958E-07  0.466E-03    4.41       4.6  T
   4    -31.1479095 -0.329795E-06  0.260E-03    4.41       8.2  T
   5    -31.1479095 -0.375875E-07  0.185E-03    4.41      11.5  T
   6    -31.1479095 -0.203940E-07  0.130E-03    4.41      16.4  T
   7    -31.1479096 -0.127643E-07  0.776E-04    4.41      27.5  T
   8    -31.1479096 -0.718205E-08  0.293E-04    4.41      72.7  T
     SCC iter.                  ...        0 min,  0.012 sec
     gradient                   ...        0 min,  0.002 sec
 * total energy  :   -30.7041704 Eh     change       -0.2931531E-04 Eh
   gradient norm :     0.0038464 Eh/α   predicted    -0.3105570E-04 (   5.94%)
   displ. norm   :     0.1306544 α      lambda       -0.5209095E-04
   maximum displ.:     0.0788849 α      in ANC's #2, #1, #3, ...

........................................................................
.............................. CYCLE   38 ..............................
........................................................................
   1    -31.1474048 -0.311474E+02  0.480E-02    4.41       0.0  T
   2    -31.1474050 -0.209802E-06  0.283E-02    4.41       1.0  T
   3    -31.1474048  0.204041E-06  0.403E-03    4.41       5.3  T
   4    -31.1474051 -0.336267E-06  0.184E-03    4.41      11.6  T
   5    -31.1474051 -0.140302E-07  0.119E-03    4.41      18.0  T
   6    -31.1474051 -0.744621E-08  0.742E-04    4.41      28.7  T
   7    -31.1474051 -0.382544E-08  0.346E-04    4.41      61.7  T
     SCC iter.                  ...        0 min,  0.010 sec
     gradient                   ...        0 min,  0.002 sec
 * total energy  :   -30.7042113 Eh     change       -0.4084910E-04 Eh
   gradient norm :     0.0022841 Eh/α   predicted    -0.2650159E-04 ( -35.12%)
   displ. norm   :     0.1136571 α      lambda       -0.6193708E-04
   maximum displ.:     0.0738648 α      in ANC's #2, #5, #7, ...

........................................................................
.............................. CYCLE   39 ..............................
........................................................................
   1    -31.1483832 -0.311484E+02  0.350E-02    4.40       0.0  T
   2    -31.1483836 -0.436999E-06  0.208E-02    4.40       1.0  T
   3    -31.1483830  0.567911E-06  0.661E-03    4.40       3.2  T
   4    -31.1483839 -0.838049E-06  0.253E-03    4.40       8.4  T
   5    -31.1483839 -0.226257E-07  0.189E-03    4.40      11.3  T
   6    -31.1483839 -0.212761E-07  0.105E-03    4.40      20.4  T
   7    -31.1483839 -0.848214E-08  0.514E-04    4.40      41.5  T
   8    -31.1483839 -0.166807E-08  0.152E-04    4.40     139.9  T
     SCC iter.                  ...        0 min,  0.012 sec
     gradient                   ...        0 min,  0.002 sec
 * total energy  :   -30.7042500 Eh     change       -0.3866707E-04 Eh
   gradient norm :     0.0014239 Eh/α   predicted    -0.3136994E-04 ( -18.87%)
   displ. norm   :     0.1827624 α      lambda       -0.2501000E-04
   maximum displ.:     0.1213527 α      in ANC's #2, #7, #4, ...

........................................................................
.............................. CYCLE   40 ..............................
........................................................................
   1    -31.1474370 -0.311474E+02  0.672E-02    4.40       0.0  T
   2    -31.1474374 -0.389343E-06  0.395E-02    4.40       1.0  T
   3    -31.1474368  0.579059E-06  0.565E-03    4.40       3.8  T
   4    -31.1474375 -0.751484E-06  0.134E-03    4.40      15.9  T
   5    -31.1474375 -0.685456E-08  0.870E-04    4.40      24.5  T
   6    -31.1474375 -0.275586E-08  0.497E-04    4.40      42.9  T
     SCC iter.                  ...        0 min,  0.009 sec
     gradient                   ...        0 min,  0.002 sec
 * total energy  :   -30.7042709 Eh     change       -0.2089643E-04 Eh
   gradient norm :     0.0021927 Eh/α   predicted    -0.1269420E-04 ( -39.25%)
   displ. norm   :     0.0296408 α      lambda       -0.1431620E-04
   maximum displ.:     0.0281083 α      in ANC's #2, #4, #35, ...

........................................................................
.............................. CYCLE   41 ..............................
........................................................................
   1    -31.1477837 -0.311478E+02  0.129E-02    4.40       0.0  T
   2    -31.1477837 -0.665829E-07  0.750E-03    4.40       2.8  T
   3    -31.1477837  0.341981E-07  0.159E-03    4.40      13.4  T
   4    -31.1477838 -0.479922E-07  0.556E-04    4.40      38.4  T
   5    -31.1477838 -0.285340E-08  0.350E-04    4.40      60.9  T
     SCC iter.                  ...        0 min,  0.007 sec
     gradient                   ...        0 min,  0.002 sec
 * total energy  :   -30.7042824 Eh     change       -0.1152278E-04 Eh
   gradient norm :     0.0012183 Eh/α   predicted    -0.7169379E-05 ( -37.78%)
   displ. norm   :     0.0949968 α      lambda       -0.2081376E-04
   maximum displ.:     0.0757987 α      in ANC's #2, #4, #9, ...

........................................................................
.............................. CYCLE   42 ..............................
........................................................................
   1    -31.1488355 -0.311488E+02  0.380E-02    4.40       0.0  T
   2    -31.1488357 -0.216688E-06  0.223E-02    4.40       1.0  T
   3    -31.1488353  0.387829E-06  0.429E-03    4.40       5.0  T
   4    -31.1488358 -0.483381E-06  0.858E-04    4.40      24.8  T
   5    -31.1488358 -0.297456E-08  0.486E-04    4.40      43.9  T
     SCC iter.                  ...        0 min,  0.007 sec
     gradient                   ...        0 min,  0.002 sec
 * total energy  :   -30.7043021 Eh     change       -0.1973607E-04 Eh
   gradient norm :     0.0018684 Eh/α   predicted    -0.1045045E-04 ( -47.05%)
   displ. norm   :     0.0971199 α      lambda       -0.1258084E-04
   maximum displ.:     0.0782511 α      in ANC's #2, #4, #1, ...
 * RMSD in coord.:     0.7383697 α      energy gain  -0.2722071E-02 Eh

generating ANC from model Hessian ...
Using Lindh-Hessian (1995)
 Shifting diagonal of input Hessian by    1.0045701645960067E-002
 Lowest  eigenvalues of input Hessian
    0.010000    0.000000    0.000000    0.000000    0.000000    0.000000
    0.000000    0.011351    0.011953    0.013400    0.015055    0.016928
    0.020254    0.021297    0.022688    0.025645    0.028853    0.034073
 Highest eigenvalues
    1.432491    1.585464    1.614044    1.901955    2.006877    2.028805


........................................................................
.............................. CYCLE   43 ..............................
........................................................................
   1    -31.1487165 -0.311487E+02  0.388E-02    4.40       0.0  T
   2    -31.1487166 -0.116157E-06  0.227E-02    4.40       1.0  T
   3    -31.1487164  0.283800E-06  0.370E-03    4.40       5.8  T
   4    -31.1487167 -0.362578E-06  0.984E-04    4.40      21.7  T
   5    -31.1487167 -0.297704E-08  0.652E-04    4.40      32.7  T
     SCC iter.                  ...        0 min,  0.007 sec
     gradient                   ...        0 min,  0.002 sec
 * total energy  :   -30.7043194 Eh     change       -0.1730280E-04 Eh
   gradient norm :     0.0018804 Eh/α   predicted     0.0000000E+00 (-100.00%)
   displ. norm   :     0.0303987 α      lambda       -0.3432638E-05
   maximum displ.:     0.0203754 α      in ANC's #3, #2, #7, ...

........................................................................
.............................. CYCLE   44 ..............................
........................................................................
   1    -31.1483656 -0.311484E+02  0.133E-02    4.40       0.0  T
   2    -31.1483657 -0.837150E-07  0.776E-03    4.40       2.7  T
   3    -31.1483656  0.345386E-07  0.176E-03    4.40      12.1  T
   4    -31.1483657 -0.501231E-07  0.604E-04    4.40      35.3  T
   5    -31.1483657 -0.332390E-08  0.379E-04    4.40      56.3  T
     SCC iter.                  ...        0 min,  0.007 sec
     gradient                   ...        0 min,  0.002 sec
 * total energy  :   -30.7043306 Eh     change       -0.1114470E-04 Eh
   gradient norm :     0.0005158 Eh/α   predicted    -0.5485256E-05 ( -50.78%)
   displ. norm   :     0.0631304 α      lambda       -0.1029978E-04
   maximum displ.:     0.0391621 α      in ANC's #2, #3, #7, ...

........................................................................
.............................. CYCLE   45 ..............................
........................................................................
   1    -31.1482238 -0.311482E+02  0.260E-02    4.40       0.0  T
   2    -31.1482239 -0.106338E-06  0.154E-02    4.40       1.4  T
   3    -31.1482237  0.285639E-06  0.393E-03    4.40       5.4  T
   4    -31.1482240 -0.372399E-06  0.126E-03    4.40      16.9  T
   5    -31.1482240 -0.574815E-08  0.853E-04    4.40      25.0  T
   6    -31.1482240 -0.561135E-08  0.418E-04    4.40      51.0  T
     SCC iter.                  ...        0 min,  0.009 sec
     gradient                   ...        0 min,  0.002 sec
 * total energy  :   -30.7043418 Eh     change       -0.1120241E-04 Eh
   gradient norm :     0.0012200 Eh/α   predicted    -0.5175256E-05 ( -53.80%)
   displ. norm   :     0.1173600 α      lambda       -0.1533904E-04
   maximum displ.:     0.0893262 α      in ANC's #3, #2, #7, ...

........................................................................
.............................. CYCLE   46 ..............................
........................................................................
   1    -31.1481323 -0.311481E+02  0.459E-02    4.40       0.0  T
   2    -31.1481325 -0.215157E-06  0.270E-02    4.40       1.0  T
   3    -31.1481320  0.540511E-06  0.549E-03    4.40       3.9  T
   4    -31.1481327 -0.718037E-06  0.184E-03    4.40      11.6  T
   5    -31.1481327 -0.120695E-07  0.119E-03    4.40      17.9  T
   6    -31.1481327 -0.113540E-07  0.617E-04    4.40      34.6  T
   7    -31.1481327 -0.186143E-08  0.245E-04    4.40      86.9  T
     SCC iter.                  ...        0 min,  0.010 sec
     gradient                   ...        0 min,  0.002 sec
 * total energy  :   -30.7043566 Eh     change       -0.1488844E-04 Eh
   gradient norm :     0.0019311 Eh/α   predicted    -0.7717276E-05 ( -48.17%)
   displ. norm   :     0.1496220 α      lambda       -0.1716456E-04
   maximum displ.:     0.1072910 α      in ANC's #3, #2, #1, ...

........................................................................
.............................. CYCLE   47 ..............................
........................................................................
   1    -31.1480636 -0.311481E+02  0.592E-02    4.40       0.0  T
   2    -31.1480640 -0.408528E-06  0.348E-02    4.40       1.0  T
   3    -31.1480626  0.141300E-05  0.813E-03    4.40       2.6  T
   4    -31.1480643 -0.173539E-05  0.184E-03    4.40      11.6  T
   5    -31.1480643 -0.108909E-07  0.124E-03    4.40      17.2  T
   6    -31.1480643 -0.115708E-07  0.654E-04    4.40      32.6  T
   7    -31.1480643 -0.207587E-08  0.337E-04    4.40      63.2  T
     SCC iter.                  ...        0 min,  0.010 sec
     gradient                   ...        0 min,  0.002 sec
 * total energy  :   -30.7043764 Eh     change       -0.1975884E-04 Eh
   gradient norm :     0.0016226 Eh/α   predicted    -0.8668899E-05 ( -56.13%)
   displ. norm   :     0.2238682 α      lambda       -0.2025305E-04
   maximum displ.:     0.1704266 α      in ANC's #3, #2, #1, ...

........................................................................
.............................. CYCLE   48 ..............................
........................................................................
   1    -31.1481556 -0.311482E+02  0.874E-02    4.40       0.0  T
   2    -31.1481564 -0.832796E-06  0.513E-02    4.40       1.0  T
   3    -31.1481535  0.295878E-05  0.115E-02    4.40       1.9  T
   4    -31.1481570 -0.357141E-05  0.193E-03    4.40      11.0  T
   5    -31.1481571 -0.886101E-08  0.128E-03    4.40      16.6  T
   6    -31.1481571 -0.104356E-07  0.789E-04    4.40      27.0  T
   7    -31.1481571 -0.338144E-08  0.468E-04    4.40      45.5  T
     SCC iter.                  ...        0 min,  0.010 sec
     gradient                   ...        0 min,  0.002 sec
 * total energy  :   -30.7043959 Eh     change       -0.1950317E-04 Eh
   gradient norm :     0.0006678 Eh/α   predicted    -0.1035278E-04 ( -46.92%)
   displ. norm   :     0.0904761 α      lambda       -0.6800886E-05
   maximum displ.:     0.0725243 α      in ANC's #3, #2, #1, ...

........................................................................
.............................. CYCLE   49 ..............................
........................................................................
   1    -31.1486423 -0.311486E+02  0.351E-02    4.40       0.0  T
   2    -31.1486425 -0.147321E-06  0.206E-02    4.40       1.0  T
   3    -31.1486420  0.495661E-06  0.471E-03    4.39       4.5  T
   4    -31.1486426 -0.600177E-06  0.754E-04    4.39      28.3  T
   5    -31.1486426 -0.125951E-08  0.483E-04    4.39      44.2  T
     SCC iter.                  ...        0 min,  0.007 sec
     gradient                   ...        0 min,  0.002 sec
 * total energy  :   -30.7044033 Eh     change       -0.7425837E-05 Eh
   gradient norm :     0.0005340 Eh/α   predicted    -0.3418217E-05 ( -53.97%)
   displ. norm   :     0.0904761 α      lambda        0.0000000E+00
   maximum displ.:     0.0725243 α      in ANC's #3, #2, #1, ...

........................................................................
.............................. CYCLE   50 ..............................
........................................................................
   1    -31.1490277 -0.311490E+02  0.350E-02    4.39       0.0  T
   2    -31.1490279 -0.145482E-06  0.205E-02    4.39       1.0  T
   3    -31.1490274  0.476929E-06  0.466E-03    4.39       4.6  T
   4    -31.1490280 -0.581260E-06  0.835E-04    4.39      25.5  T
   5    -31.1490280 -0.175295E-08  0.543E-04    4.39      39.3  T
     SCC iter.                  ...        0 min,  0.007 sec
     gradient                   ...        0 min,  0.002 sec
 * total energy  :   -30.7044056 Eh     change       -0.2230460E-05 Eh
   gradient norm :     0.0012347 Eh/α   predicted    -0.4485387E-08 ( -99.80%)
   displ. norm   :     0.0232444 α      lambda       -0.3716702E-05
   maximum displ.:     0.0147257 α      in ANC's #7, #3, #1, ...

........................................................................
.............................. CYCLE   51 ..............................
........................................................................
   1    -31.1488600 -0.311489E+02  0.774E-03    4.39       0.0  T
   2    -31.1488600 -0.956715E-08  0.458E-03    4.39       4.7  T
   3    -31.1488600  0.149789E-07  0.874E-04    4.39      24.4  T
   4    -31.1488600 -0.191465E-07  0.263E-04    4.39      81.1  T
     SCC iter.                  ...        0 min,  0.006 sec
     gradient                   ...        0 min,  0.002 sec
 * total energy  :   -30.7044106 Eh     change       -0.4985480E-05 Eh
   gradient norm :     0.0009108 Eh/α   predicted    -0.1859132E-05 ( -62.71%)
   displ. norm   :     0.1143256 α      lambda       -0.1594212E-04
   maximum displ.:     0.0787654 α      in ANC's #7, #3, #1, ...

   *** GEOMETRY OPTIMIZATION CONVERGED AFTER 51 ITERATIONS ***

------------------------------------------------------------------------
 total energy gain   :        -0.0833836 Eh      -52.3240 kcal/mol
 total RMSD          :         2.2243210 a0        1.1771 Å
 total power (kW/mol):        -4.2926185 (step) -262.8001 (real)
------------------------------------------------------------------------

 ANCopt (total)                0 d,  0 h,  0 min,  0.833 sec
 optimizer setup                ...        0 min,  0.000 sec (  0.017%)
 model hessian                  ...        0 min,  0.022 sec (  2.639%)
 ANC generation                 ...        0 min,  0.003 sec (  0.419%)
 coordinate transformation      ...        0 min,  0.001 sec (  0.129%)
 single point calculation       ...        0 min,  0.789 sec ( 94.673%)
 optimization log               ...        0 min,  0.005 sec (  0.544%)
 hessian update                 ...        0 min,  0.001 sec (  0.165%)
 rational function              ...        0 min,  0.007 sec (  0.832%)

================
 final structure:
================
22
 xtb: 6.5.1 (fef0646)
N            2.76728550528591       -0.61598312649168       -0.91176854573374
C            1.90599267436045        0.21501480416287       -0.06172374902913
C            0.52985701726756        0.46841878855739       -0.68750652779910
C            2.62101342938152        1.51071617599042        0.24410394113842
C            2.99590888645285        1.81137608552632        1.54589473835065
C            3.65498781664936        2.99293574999459        1.83430263878810
C            3.94980492796567        3.88879804696447        0.82167890016299
C            3.58265561785801        3.59635708815636       -0.48024044584145
C            2.92319648251659        2.41499022213835       -0.76634359003573
Cl           5.28373732435912       -1.09410423984209        0.50739402059243
H            4.10709773645180       -0.87676700314179       -0.15830203196760
H            2.98796480609621       -0.13670645301081       -1.77864026565479
H            2.31917534096265       -1.49983687572016       -1.12796199685888
H            1.76991286384478       -0.33955962108725        0.87333380884222
H            0.62704312831330        0.95408343417871       -1.65584221691290
H           -0.05876517499295        1.11243363856822       -0.04009822532009
H           -0.00489034383985       -0.46970723243817       -0.82129384458464
H            2.77615946485397        1.11161241272283        2.33839016777424
H            3.94415819032307        3.21225575950433        2.85134250852812
H            4.46642535140560        4.81041300885378        1.04472414861116
H            3.81180904923778        4.28951602795648       -1.27643554903688
H            2.64401990525547        2.20272330843013       -1.78904788402032

 Bond Distances (Angstroems)
 ---------------------------
N1-C2=1.4680         N1-H12=1.0148        N1-H13=1.0143        C2-N1=1.4680         C2-C3=1.5328         C2-C4=1.5112         
C2-H14=1.0956        C3-C2=1.5328         C3-H15=1.0877        C3-H16=1.0864        C3-H17=1.0881        C4-C2=1.5112         
C4-C5=1.3877         C4-C9=1.3893         C5-C4=1.3877         C5-C6=1.3833         C5-H18=1.0798        C6-C5=1.3833         
C6-C7=1.3838         C6-H19=1.0799        C7-C6=1.3838         C7-C8=1.3839         C7-H20=1.0798        C8-C7=1.3839         
C8-C9=1.3829         C8-H21=1.0802        C9-C4=1.3893         C9-C8=1.3829         C9-H22=1.0812        Cl10-H11=1.3693      
H11-Cl10=1.3693      H12-N1=1.0148        H13-N1=1.0143        H14-C2=1.0956        H15-C3=1.0877        H16-C3=1.0864        
H17-C3=1.0881        H18-C5=1.0798        H19-C6=1.0799        H20-C7=1.0798        H21-C8=1.0802        H22-C9=1.0812        
 C  H  Rav=1.0843 sigma=0.0052  Rmin=1.0798  Rmax=1.0956     9
 C  C  Rav=1.4194 sigma=0.0595  Rmin=1.3829  Rmax=1.5328     8
 N  H  Rav=1.0145 sigma=0.0003  Rmin=1.0143  Rmax=1.0148     2
 N  C  Rav=1.4680 sigma=0.0000  Rmin=1.4680  Rmax=1.4680     1
 Cl H  Rav=1.3693 sigma=0.0000  Rmin=1.3693  Rmax=1.3693     1

 selected bond angles (degree)
 --------------------
H12-N1-C2=110.79               H13-N1-C2=110.95               H13-N1-H12=109.00              C3-C2-N1=112.58                
C4-C2-N1=108.96                C4-C2-C3=111.45                H14-C2-N1=106.29               H14-C2-C3=108.70               
H14-C2-C4=108.67               H15-C3-C2=110.92               H16-C3-C2=109.95               H16-C3-H15=108.32              
H17-C3-C2=110.42               H17-C3-H15=108.63              H17-C3-H16=108.55              C5-C4-C2=120.23                
C9-C4-C2=120.92                C9-C4-C5=118.85                C6-C5-C4=120.62                H18-C5-C4=119.55               
H18-C5-C6=119.83               C7-C6-C5=120.13                H19-C6-C5=119.83               H19-C6-C7=120.04               
C8-C7-C6=119.67                H20-C7-C6=120.22               H20-C7-C8=120.11               C9-C8-C7=120.11                
H21-C8-C7=120.10               H21-C8-C9=119.79               C8-C9-C4=120.62                H22-C9-C4=120.27               
H22-C9-C8=119.11               

 selected dihedral angles (degree)
 ---------------------------------
C3-C2-N1-H12= 64.78           C3-C2-N1-H13=303.57           C4-C2-N1-H12=300.61           C4-C2-N1-H13=179.41           
H14-C2-N1-H12=183.68          H14-C2-N1-H13= 62.47          H15-C3-C2-N1=301.63           H15-C3-C2-C4= 64.41           
H15-C3-C2-H14=184.14          H16-C3-C2-N1=181.85           H16-C3-C2-C4=304.63           H16-C3-C2-H14= 64.37          
H17-C3-C2-N1= 62.10           H17-C3-C2-C4=184.89           H17-C3-C2-H14=304.62          C5-C4-C2-N1=245.12            
C5-C4-C2-C3=120.29            C5-C4-C2-H14=  0.54           C9-C4-C2-N1= 64.66            C9-C4-C2-C3=299.83            
C9-C4-C2-H14=180.07           C6-C5-C4-C2=179.77            C6-C5-C4-C9=  0.22            H18-C5-C4-C2=  0.20           
H18-C5-C4-C9=180.66           C7-C6-C5-C4=359.88            C7-C6-C5-H18=179.45           H19-C6-C5-C4=180.23           
H19-C6-C5-H18=359.80          C8-C7-C6-C5=359.97            C8-C7-C6-H19=179.62           H20-C7-C6-C5=180.15           
H20-C7-C6-H19=359.80          C9-C8-C7-C6=  0.07            C9-C8-C7-H20=179.88           H21-C8-C7-C6=180.17           
H21-C8-C7-H20=  0.00          C8-C9-C4-C2=180.27            C8-C9-C4-C5=359.81            H22-C9-C4-C2=  0.30           
H22-C9-C4-C5=179.85           C4-C9-C8-C7=  0.04            C4-C9-C8-H21=179.94           H22-C9-C8-C7=180.01           
H22-C9-C8-H21=359.91          

 CMA Distance (Angstroems)
 ---------------------------
R(CMA):  3.8058
           -------------------------------------------------
          |                Final Singlepoint                |
           -------------------------------------------------

          ...................................................
          :                      SETUP                      :
          :.................................................:
          :  # basis functions                  58          :
          :  # atomic orbitals                  57          :
          :  # shells                           33          :
          :  # electrons                        56          :
          :  max. iterations                   250          :
          :  Hamiltonian                  GFN2-xTB          :
          :  restarted?                      false          :
          :  GBSA solvation                  false          :
          :  PC potential                    false          :
          :  electronic temp.          300.0000000     K    :
          :  accuracy                    1.0000000          :
          :  -> integral cutoff          0.2500000E+02      :
          :  -> integral neglect         0.1000000E-07      :
          :  -> SCF convergence          0.1000000E-05 Eh   :
          :  -> wf. convergence          0.1000000E-03 e    :
          :  Broyden damping             0.4000000          :
          ...................................................

 iter      E             dE          RMSdq      gap      omega  full diag
   1    -31.1488600 -0.311489E+02  0.192E-04    4.39       0.0  T
   2    -31.1488600 -0.110965E-09  0.161E-04    4.39     132.7  T
   3    -31.1488600 -0.115200E-09  0.111E-04    4.39     192.5  T

   *** convergence criteria satisfied after 3 iterations ***

         #    Occupation            Energy/Eh            Energy/eV
      -------------------------------------------------------------
         1        2.0000           -1.0138142             -27.5873
       ...           ...                  ...                  ...
        22        2.0000           -0.4289303             -11.6718
        23        2.0000           -0.4256268             -11.5819
        24        2.0000           -0.4080553             -11.1038
        25        2.0000           -0.4068536             -11.0710
        26        2.0000           -0.3960782             -10.7778
        27        2.0000           -0.3909535             -10.6384
        28        2.0000           -0.3907114             -10.6318 (HOMO)
        29                         -0.2293198              -6.2401 (LUMO)
        30                         -0.2262492              -6.1566
        31                         -0.0999588              -2.7200
        32                         -0.0512434              -1.3944
        33                          0.0276541               0.7525
       ...                                ...                  ...
        57                          0.6616350              18.0040
      -------------------------------------------------------------
                  HL-Gap            0.1613915 Eh            4.3917 eV
             Fermi-level           -0.3100156 Eh           -8.4360 eV

 SCC (total)                   0 d,  0 h,  0 min,  0.008 sec
 SCC setup                      ...        0 min,  0.000 sec (  1.349%)
 Dispersion                     ...        0 min,  0.000 sec (  2.273%)
 classical contributions        ...        0 min,  0.000 sec (  0.387%)
 integral evaluation            ...        0 min,  0.001 sec ( 10.404%)
 iterations                     ...        0 min,  0.004 sec ( 59.376%)
 molecular gradient             ...        0 min,  0.002 sec ( 23.147%)
 printout                       ...        0 min,  0.000 sec (  1.293%)

         :::::::::::::::::::::::::::::::::::::::::::::::::::::
         ::                     SUMMARY                     ::
         :::::::::::::::::::::::::::::::::::::::::::::::::::::
         :: total energy             -30.704410551869 Eh    ::
         :: gradient norm              0.000911566786 Eh/a0 ::
         :: HOMO-LUMO gap              4.391687078801 eV    ::
         ::.................................................::
         :: SCC energy               -31.148860046343 Eh    ::
         :: -> isotropic ES            0.028310877294 Eh    ::
         :: -> anisotropic ES         -0.001866361085 Eh    ::
         :: -> anisotropic XC          0.015609427063 Eh    ::
         :: -> dispersion             -0.018776129626 Eh    ::
         :: repulsion energy           0.444267280480 Eh    ::
         :: add. restraining           0.000000000000 Eh    ::
         :: total charge               0.000000000000 e     ::
         :::::::::::::::::::::::::::::::::::::::::::::::::::::

           -------------------------------------------------
          |                Property Printout                |
           -------------------------------------------------

    * Orbital Energies and Occupations

         #    Occupation            Energy/Eh            Energy/eV
      -------------------------------------------------------------
         1        2.0000           -1.0138142             -27.5873
       ...           ...                  ...                  ...
        16        2.0000           -0.4942514             -13.4493
        17        2.0000           -0.4834752             -13.1560
        18        2.0000           -0.4809889             -13.0884
        19        2.0000           -0.4779423             -13.0055
        20        2.0000           -0.4715038             -12.8303
        21        2.0000           -0.4572298             -12.4419
        22        2.0000           -0.4289303             -11.6718
        23        2.0000           -0.4256268             -11.5819
        24        2.0000           -0.4080553             -11.1038
        25        2.0000           -0.4068536             -11.0710
        26        2.0000           -0.3960782             -10.7778
        27        2.0000           -0.3909535             -10.6384
        28        2.0000           -0.3907114             -10.6318 (HOMO)
        29                         -0.2293198              -6.2401 (LUMO)
        30                         -0.2262492              -6.1566
        31                         -0.0999588              -2.7200
        32                         -0.0512434              -1.3944
        33                          0.0276541               0.7525
        34                          0.0703764               1.9150
        35                          0.0705502               1.9198
        36                          0.0725010               1.9729
        37                          0.0764064               2.0791
        38                          0.0764203               2.0795
        39                          0.0818579               2.2275
       ...                                ...                  ...
        57                          0.6616350              18.0040
      -------------------------------------------------------------
                  HL-Gap            0.1613915 Eh            4.3917 eV
             Fermi-level           -0.3100156 Eh           -8.4360 eV

     #   Z          covCN         q      C6AA      α(0)
     1   7 N        2.698    -0.311    27.995     7.858
     2   6 C        3.787     0.042    19.886     6.352
     3   6 C        3.753    -0.114    22.736     6.799
     4   6 C        2.974     0.004    27.919     8.667
     5   6 C        2.925    -0.031    28.764     8.795
     6   6 C        2.920    -0.025    28.623     8.773
     7   6 C        2.921    -0.028    28.704     8.786
     8   6 C        2.919    -0.029    28.716     8.788
     9   6 C        2.925    -0.033    28.811     8.802
    10  17 Cl       0.838    -0.483   115.072    16.410
    11   1 H        0.902     0.328     0.632     1.243
    12   1 H        0.860     0.169     1.280     1.773
    13   1 H        0.860     0.166     1.295     1.783
    14   1 H        0.924     0.049     2.327     2.386
    15   1 H        0.925     0.041     2.437     2.441
    16   1 H        0.925     0.045     2.377     2.411
    17   1 H        0.925     0.038     2.473     2.459
    18   1 H        0.926     0.039     2.467     2.456
    19   1 H        0.926     0.037     2.489     2.467
    20   1 H        0.926     0.034     2.524     2.485
    21   1 H        0.926     0.033     2.546     2.495
    22   1 H        0.926     0.026     2.644     2.543

 Mol. C6AA /au·bohr⁶  :       5546.483580
 Mol. C8AA /au·bohr⁸  :     141234.653186
 Mol. α(0) /au        :        116.972877


Wiberg/Mayer (AO) data.
largest (>0.10) Wiberg bond orders for each atom

 ---------------------------------------------------------------------------
     #   Z sym  total        # sym  WBO       # sym  WBO       # sym  WBO
 ---------------------------------------------------------------------------
     1   7 N    3.243 --     2 C    0.988    13 H    0.957    12 H    0.954
                            11 H    0.206
     2   6 C    3.972 --     3 C    0.994     4 C    0.991     1 N    0.988
                            14 H    0.964
     3   6 C    3.995 --     2 C    0.994    17 H    0.985    16 H    0.985
                            15 H    0.984
     4   6 C    3.988 --     5 C    1.417     9 C    1.415     2 C    0.991
                             7 C    0.110
     5   6 C    3.992 --     6 C    1.443     4 C    1.417    18 H    0.968
                             8 C    0.111
     6   6 C    3.992 --     5 C    1.443     7 C    1.441    19 H    0.971
                             9 C    0.112
     7   6 C    3.992 --     6 C    1.441     8 C    1.438    20 H    0.971
                             4 C    0.110
     8   6 C    3.993 --     9 C    1.445     7 C    1.438    21 H    0.971
                             5 C    0.111
     9   6 C    3.993 --     8 C    1.445     4 C    1.415    22 H    0.967
                             6 C    0.112
    10  17 Cl   0.768 --    11 H    0.682
    11   1 H    0.892 --    10 Cl   0.682     1 N    0.206
    12   1 H    0.972 --     1 N    0.954
    13   1 H    0.972 --     1 N    0.957
    14   1 H    0.997 --     2 C    0.964
    15   1 H    0.998 --     3 C    0.984
    16   1 H    0.998 --     3 C    0.985
    17   1 H    0.998 --     3 C    0.985
    18   1 H    0.999 --     5 C    0.968
    19   1 H    0.998 --     6 C    0.971
    20   1 H    0.998 --     7 C    0.971
    21   1 H    0.999 --     8 C    0.971
    22   1 H    0.999 --     9 C    0.967
 ---------------------------------------------------------------------------

Topologies differ in total number of bonds
Writing topology from bond orders to xtbtopo.mol

molecular dipole:
                 x           y           z       tot (Debye)
 q only:       -1.746       0.533      -0.787
   full:       -1.649       0.476      -0.847       4.864
molecular quadrupole (traceless):
                xx          xy          yy          xz          yz          zz
 q only:      -28.246      10.924      13.315      -9.195       3.002      14.931
  q+dip:      -27.857      12.565      11.450      -6.740       1.634      16.408
   full:      -25.778      10.855      10.859      -7.114       2.166      14.919

           -------------------------------------------------
          |                Geometry Summary                 |
           -------------------------------------------------

      molecular mass/u    :      157.6408170
   center of mass at/Å    :        3.3107354       1.0786051       0.2099328
  moments of inertia/u·Å² :        0.4261578E+03   0.6219304E+03   0.8718226E+03
rotational constants/cm⁻¹ :        0.3955726E-01   0.2710533E-01   0.1933608E-01

 * 19 selected distances

     #   Z          #   Z                                           value/Å
     1   7 N        2   6 C                                       1.4679780
     2   6 C        3   6 C                                       1.5328299 (max)
     4   6 C        5   6 C                                       1.3876608
     5   6 C        6   6 C                                       1.3833466
     6   6 C        7   6 C                                       1.3837968
     7   6 C        8   6 C                                       1.3839489
     4   6 C        9   6 C                                       1.3892555
     8   6 C        9   6 C                                       1.3828844
     1   7 N       12   1 H                                       1.0148262
     1   7 N       13   1 H                                       1.0142682 (min)
     2   6 C       14   1 H                                       1.0956292
     3   6 C       15   1 H                                       1.0876532
     3   6 C       16   1 H                                       1.0864479
     3   6 C       17   1 H                                       1.0880875
     5   6 C       18   1 H                                       1.0798186
     6   6 C       19   1 H                                       1.0798570
     7   6 C       20   1 H                                       1.0798242
     8   6 C       21   1 H                                       1.0802349
     9   6 C       22   1 H                                       1.0811665

 * 4 distinct bonds (by element types)

   Z      Z             #   av. dist./Å        max./Å        min./Å
   1 H    6 C           9     1.0843021     1.0956292     1.0798186
   6 C    6 C           7     1.4062461     1.5328299     1.3828844
   1 H    7 N           2     1.0145472     1.0148262     1.0142682
   6 C    7 N           1     1.4679780     1.4679780     1.4679780


optimized geometry written to: xtbopt.xyz


           -------------------------------------------------
          | TOTAL ENERGY              -30.704410551869 Eh   |
          | GRADIENT NORM               0.000911566786 Eh/α |
          | HOMO-LUMO GAP               4.391687078801 eV   |
           -------------------------------------------------

------------------------------------------------------------------------
 * finished run on 2023/01/23 at 14:30:46.213     
------------------------------------------------------------------------
 total:
 * wall-time:     0 d,  0 h,  0 min,  0.893 sec
 *  cpu-time:     0 d,  0 h,  1 min, 12.717 sec
 * ratio c/w:    81.453 speedup
 SCF:
 * wall-time:     0 d,  0 h,  0 min,  0.033 sec
 *  cpu-time:     0 d,  0 h,  0 min,  4.641 sec
 * ratio c/w:   139.857 speedup
 ANC optimizer:
 * wall-time:     0 d,  0 h,  0 min,  0.842 sec
 *  cpu-time:     0 d,  0 h,  1 min,  5.829 sec
 * ratio c/w:    78.225 speedup

