      -----------------------------------------------------------      
     |                   =====================                   |     
     |                           x T B                           |     
     |                   =====================                   |     
     |                         S. Grimme                         |     
     |          Mulliken Center for Theoretical Chemistry        |     
     |                    University of Bonn                     |     
      -----------------------------------------------------------      

   * xtb version 6.5.1 (fef0646) compiled by 'conda@b96dff2e9fd6' on 2023-01-04

   xtb is free software: you can redistribute it and/or modify it under
   the terms of the GNU Lesser General Public License as published by
   the Free Software Foundation, either version 3 of the License, or
   (at your option) any later version.
   
   xtb is distributed in the hope that it will be useful,
   but WITHOUT ANY WARRANTY; without even the implied warranty of
   MERCHANTABILITY or FITNESS FOR A PARTICULAR PURPOSE.  See the
   GNU Lesser General Public License for more details.
   
   Cite this work as:
   * C. Bannwarth, E. Caldeweyher, S. Ehlert, A. Hansen, P. Pracht,
     J. Seibert, S. Spicher, S. Grimme, WIREs Comput. Mol. Sci., 2020, 11,
     e01493. DOI: 10.1002/wcms.1493
   
   for GFN2-xTB:
   * C. Bannwarth, S. Ehlert and S. Grimme., J. Chem. Theory Comput., 2019,
     15, 1652-1671. DOI: 10.1021/acs.jctc.8b01176
   for GFN1-xTB:
   * S. Grimme, C. Bannwarth, P. Shushkov, J. Chem. Theory Comput., 2017,
     13, 1989-2009. DOI: 10.1021/acs.jctc.7b00118
   for GFN0-xTB:
   * P. Pracht, E. Caldeweyher, S. Ehlert, S. Grimme, ChemRxiv, 2019, preprint.
     DOI: 10.26434/chemrxiv.8326202.v1
   for GFN-FF:
   * S. Spicher and S. Grimme, Angew. Chem. Int. Ed., 2020, 59, 15665-15673.
     DOI: 10.1002/anie.202004239
   
   for ALPB and GBSA implicit solvation:
   * S. Ehlert, M. Stahn, S. Spicher, S. Grimme, J. Chem. Theory Comput.,
     2021, 17, 4250-4261. DOI: 10.1021/acs.jctc.1c00471
   
   for DFT-D4:
   * E. Caldeweyher, C. Bannwarth and S. Grimme, J. Chem. Phys., 2017,
     147, 034112. DOI: 10.1063/1.4993215
   * E. Caldeweyher, S. Ehlert, A. Hansen, H. Neugebauer, S. Spicher,
     C. Bannwarth and S. Grimme, J. Chem. Phys., 2019, 150, 154122.
     DOI: 10.1063/1.5090222
   * E. Caldeweyher, J.-M. Mewes, S. Ehlert and S. Grimme, Phys. Chem. Chem. Phys.
     2020, 22, 8499-8512. DOI: 10.1039/D0CP00502A
   
   for sTDA-xTB:
   * S. Grimme and C. Bannwarth, J. Chem. Phys., 2016, 145, 054103.
     DOI: 10.1063/1.4959605
   
   in the mass-spec context:
   * V. Asgeirsson, C. Bauer and S. Grimme, Chem. Sci., 2017, 8, 4879.
     DOI: 10.1039/c7sc00601b
   * J. Koopman and S. Grimme, ACS Omega 2019, 4, 12, 15120-15133.
     DOI: 10.1021/acsomega.9b02011
   
   for metadynamics refer to:
   * S. Grimme, J. Chem. Theory Comput., 2019, 155, 2847-2862
     DOI: 10.1021/acs.jctc.9b00143
   
   for SPH calculations refer to:
   * S. Spicher and S. Grimme, J. Chem. Theory Comput., 2021, 17, 1701-1714
     DOI: 10.1021/acs.jctc.0c01306
   
   with help from (in alphabetical order)
   P. Atkinson, C. Bannwarth, F. Bohle, G. Brandenburg, E. Caldeweyher
   M. Checinski, S. Dohm, S. Ehlert, S. Ehrlich, I. Gerasimov, C. Hölzer
   A. Katbashev, J. Koopman, C. Lavigne, S. Lehtola, F. März, M. Müller,
   F. Musil, H. Neugebauer, J. Pisarek, C. Plett, P. Pracht, F. Pultar,
   J. Seibert, P. Shushkov, S. Spicher, M. Stahn, M. Steiner, T. Strunk,
   J. Stückrath, T. Rose, and J. Unsleber
   
 * started run on 2023/01/23 at 21:09:01.547     

           -------------------------------------------------
          |                Calculation Setup                |
           -------------------------------------------------

          program call               : xtb init.xyz --opt -c 1 -u 0 -P 16 --input xtb.inp
          hostname                   : gpg-woodward
          coordinate file            : init.xyz
          omp threads                :                    16

   ID    Z sym.   atoms
    1    7 N      1
    2    6 C      2-9
    3    1 H      10-21

           -------------------------------------------------
          |                 G F N 2 - x T B                 |
           -------------------------------------------------

        Reference                      10.1021/acs.jctc.8b01176
      * Hamiltonian:
        H0-scaling (s, p, d)           1.850000    2.230000    2.230000
        zeta-weighting                 0.500000
      * Dispersion:
        s8                             2.700000
        a1                             0.520000
        a2                             5.000000
        s9                             5.000000
      * Repulsion:
        kExp                           1.500000    1.000000
        rExp                           1.000000
      * Coulomb:
        alpha                          2.000000
        third order                    shell-resolved
        anisotropic                    true
        a3                             3.000000
        a5                             4.000000
        cn-shift                       1.200000
        cn-exp                         4.000000
        max-rad                        5.000000


          ...................................................
          :                      SETUP                      :
          :.................................................:
          :  # basis functions                  48          :
          :  # atomic orbitals                  48          :
          :  # shells                           30          :
          :  # electrons                        48          :
          :  max. iterations                   250          :
          :  Hamiltonian                  GFN2-xTB          :
          :  restarted?                      false          :
          :  GBSA solvation                  false          :
          :  PC potential                    false          :
          :  electronic temp.          300.0000000     K    :
          :  accuracy                    1.0000000          :
          :  -> integral cutoff          0.2500000E+02      :
          :  -> integral neglect         0.1000000E-07      :
          :  -> SCF convergence          0.1000000E-05 Eh   :
          :  -> wf. convergence          0.1000000E-03 e    :
          :  Broyden damping             0.4000000          :
          ...................................................

 iter      E             dE          RMSdq      gap      omega  full diag
   1    -26.0368464 -0.260368E+02  0.414E+00    4.68       0.0  T
   2    -26.1494922 -0.112646E+00  0.238E+00    4.58       1.0  T
   3    -26.1517272 -0.223497E-02  0.125E+00    4.59       1.0  T
   4    -26.1484700  0.325721E-02  0.504E-01    4.47       1.0  T
   5    -26.1534441 -0.497412E-02  0.102E-01    4.52       1.0  T
   6    -26.1534540 -0.983408E-05  0.376E-02    4.53       1.0  T
   7    -26.1534618 -0.783047E-05  0.122E-02    4.53       1.8  T
   8    -26.1534631 -0.135181E-05  0.420E-03    4.53       5.2  T
   9    -26.1534632 -0.804794E-07  0.178E-03    4.53      12.2  T
  10    -26.1534632 -0.672431E-08  0.685E-04    4.53      31.9  T
  11    -26.1534632 -0.616673E-08  0.287E-04    4.53      76.0  T

   *** convergence criteria satisfied after 11 iterations ***

         #    Occupation            Energy/Eh            Energy/eV
      -------------------------------------------------------------
         1        2.0000           -0.8876358             -24.1538
       ...           ...                  ...                  ...
        18        2.0000           -0.6057319             -16.4828
        19        2.0000           -0.6048340             -16.4584
        20        2.0000           -0.6018626             -16.3775
        21        2.0000           -0.5547448             -15.0954
        22        2.0000           -0.5501165             -14.9694
        23        2.0000           -0.5356411             -14.5755
        24        2.0000           -0.5338576             -14.5270 (HOMO)
        25                         -0.3673403              -9.9958 (LUMO)
        26                         -0.3564352              -9.6991
        27                         -0.2507648              -6.8237
        28                         -0.2235127              -6.0821
        29                         -0.1310904              -3.5672
       ...                                ...                  ...
        48                          0.4976679              13.5422
      -------------------------------------------------------------
                  HL-Gap            0.1665173 Eh            4.5312 eV
             Fermi-level           -0.4505989 Eh          -12.2614 eV

 SCC (total)                   0 d,  0 h,  0 min,  0.036 sec
 SCC setup                      ...        0 min,  0.000 sec (  1.199%)
 Dispersion                     ...        0 min,  0.001 sec (  1.575%)
 classical contributions        ...        0 min,  0.000 sec (  0.493%)
 integral evaluation            ...        0 min,  0.002 sec (  5.675%)
 iterations                     ...        0 min,  0.028 sec ( 79.003%)
 molecular gradient             ...        0 min,  0.004 sec ( 11.166%)
 printout                       ...        0 min,  0.000 sec (  0.511%)

         :::::::::::::::::::::::::::::::::::::::::::::::::::::
         ::                     SUMMARY                     ::
         :::::::::::::::::::::::::::::::::::::::::::::::::::::
         :: total energy             -25.724776907564 Eh    ::
         :: gradient norm              0.035917790976 Eh/a0 ::
         :: HOMO-LUMO gap              4.531166435982 eV    ::
         ::.................................................::
         :: SCC energy               -26.153463232342 Eh    ::
         :: -> isotropic ES            0.103007617584 Eh    ::
         :: -> anisotropic ES         -0.010433585095 Eh    ::
         :: -> anisotropic XC          0.020084061903 Eh    ::
         :: -> dispersion             -0.014962411541 Eh    ::
         :: repulsion energy           0.428598639704 Eh    ::
         :: add. restraining           0.000000000000 Eh    ::
         :: total charge               1.000000000000 e     ::
         :::::::::::::::::::::::::::::::::::::::::::::::::::::

      ----------------------------------------------------------- 
     |                   =====================                   |
     |                        A N C O P T                        |
     |                   =====================                   |
     |               Approximate Normal Coordinate               |
     |                Rational Function Optimizer                |
      ----------------------------------------------------------- 

          ...................................................
          :                      SETUP                      :
          :.................................................:
          :   optimization level            normal          :
          :   max. optcycles                   200          :
          :   ANC micro-cycles                  20          :
          :   degrees of freedom                57          :
          :.................................................:
          :   RF solver                   davidson          :
          :   write xtbopt.log                true          :
          :   linear?                        false          :
          :   energy convergence         0.5000000E-05 Eh   :
          :   grad. convergence          0.1000000E-02 Eh/α :
          :   maximium RF displ.         1.0000000          :
          :   Hlow (freq-cutoff)         0.1000000E-01      :
          :   Hmax (freq-cutoff)         5.0000000          :
          :   S6 in model hess.         20.0000000          :
          ...................................................

generating ANC from model Hessian ...
Using Lindh-Hessian (1995)
 Shifting diagonal of input Hessian by    8.0041009687130682E-003
 Lowest  eigenvalues of input Hessian
    0.000000    0.000000    0.000000    0.000000    0.000000    0.000000
    0.010000    0.010356    0.014362    0.017974    0.018540    0.019536
    0.021269    0.021960    0.029840    0.034528    0.038316    0.054377
 Highest eigenvalues
    1.433532    1.522379    1.566367    1.824841    1.926224    1.940113


........................................................................
.............................. CYCLE    1 ..............................
........................................................................
   1    -26.1534632 -0.261535E+02  0.123E-04    4.53       0.0  T
   2    -26.1534632 -0.258247E-10  0.757E-05    4.53     288.3  T
   3    -26.1534632  0.891021E-11  0.451E-05    4.53     483.7  T
     SCC iter.                  ...        0 min,  0.008 sec
     gradient                   ...        0 min,  0.004 sec
 * total energy  :   -25.7247769 Eh     change       -0.3640395E-09 Eh
   gradient norm :     0.0359179 Eh/α   predicted     0.0000000E+00 (-100.00%)
   displ. norm   :     0.1828119 α      lambda       -0.3503978E-02
   maximum displ.:     0.0778066 α      in ANC's #11, #3, #4, ...

........................................................................
.............................. CYCLE    2 ..............................
........................................................................
   1    -26.1736463 -0.261736E+02  0.135E-01    4.62       0.0  T
   2    -26.1736574 -0.110806E-04  0.820E-02    4.62       1.0  T
   3    -26.1736475  0.986968E-05  0.229E-02    4.63       1.0  T
   4    -26.1736597 -0.122372E-04  0.596E-03    4.62       3.7  T
   5    -26.1736602 -0.500051E-06  0.218E-03    4.62      10.0  T
   6    -26.1736602 -0.335895E-08  0.917E-04    4.62      23.8  T
   7    -26.1736602 -0.903347E-08  0.209E-04    4.62     104.4  T
     SCC iter.                  ...        0 min,  0.016 sec
     gradient                   ...        0 min,  0.004 sec
 * total energy  :   -25.7270244 Eh     change       -0.2247485E-02 Eh
   gradient norm :     0.0138292 Eh/α   predicted    -0.1810586E-02 ( -19.44%)
   displ. norm   :     0.1333323 α      lambda       -0.6242846E-03
   maximum displ.:     0.0873910 α      in ANC's #3, #11, #2, ...

........................................................................
.............................. CYCLE    3 ..............................
........................................................................
   1    -26.1801388 -0.261801E+02  0.644E-02    4.65       0.0  T
   2    -26.1801438 -0.502105E-05  0.379E-02    4.65       1.0  T
   3    -26.1801419  0.191206E-05  0.141E-02    4.65       1.5  T
   4    -26.1801446 -0.271315E-05  0.406E-03    4.65       5.4  T
   5    -26.1801449 -0.234821E-06  0.130E-03    4.65      16.8  T
   6    -26.1801449 -0.215172E-08  0.582E-04    4.65      37.5  T
   7    -26.1801449 -0.303616E-08  0.124E-04    4.65     175.8  T
     SCC iter.                  ...        0 min,  0.015 sec
     gradient                   ...        0 min,  0.003 sec
 * total energy  :   -25.7274001 Eh     change       -0.3757331E-03 Eh
   gradient norm :     0.0057722 Eh/α   predicted    -0.3177528E-03 ( -15.43%)
   displ. norm   :     0.0903185 α      lambda       -0.1265658E-03
   maximum displ.:     0.0675161 α      in ANC's #3, #2, #4, ...

........................................................................
.............................. CYCLE    4 ..............................
........................................................................
   1    -26.1801541 -0.261802E+02  0.356E-02    4.65       0.0  T
   2    -26.1801559 -0.184515E-05  0.195E-02    4.65       1.1  T
   3    -26.1801552  0.663044E-06  0.975E-03    4.65       2.2  T
   4    -26.1801564 -0.115226E-05  0.191E-03    4.65      11.4  T
   5    -26.1801564 -0.391457E-07  0.690E-04    4.65      31.6  T
   6    -26.1801564 -0.176088E-08  0.324E-04    4.65      67.4  T
     SCC iter.                  ...        0 min,  0.011 sec
     gradient                   ...        0 min,  0.003 sec
 * total energy  :   -25.7274904 Eh     change       -0.9026183E-04 Eh
   gradient norm :     0.0031220 Eh/α   predicted    -0.6379990E-04 ( -29.32%)
   displ. norm   :     0.1043998 α      lambda       -0.8188200E-04
   maximum displ.:     0.0741220 α      in ANC's #3, #2, #7, ...

........................................................................
.............................. CYCLE    5 ..............................
........................................................................
   1    -26.1791362 -0.261791E+02  0.381E-02    4.64       0.0  T
   2    -26.1791378 -0.158926E-05  0.211E-02    4.64       1.0  T
   3    -26.1791368  0.989407E-06  0.105E-02    4.64       2.1  T
   4    -26.1791384 -0.158035E-05  0.150E-03    4.64      14.6  T
   5    -26.1791384 -0.232376E-07  0.602E-04    4.64      36.3  T
   6    -26.1791384 -0.178602E-08  0.281E-04    4.64      77.8  T
     SCC iter.                  ...        0 min,  0.011 sec
     gradient                   ...        0 min,  0.003 sec
 * total energy  :   -25.7275443 Eh     change       -0.5386835E-04 Eh
   gradient norm :     0.0023570 Eh/α   predicted    -0.4138772E-04 ( -23.17%)
   displ. norm   :     0.0765856 α      lambda       -0.3554067E-04
   maximum displ.:     0.0456085 α      in ANC's #3, #2, #7, ...

........................................................................
.............................. CYCLE    6 ..............................
........................................................................
   1    -26.1786309 -0.261786E+02  0.255E-02    4.64       0.0  T
   2    -26.1786313 -0.380107E-06  0.146E-02    4.64       1.5  T
   3    -26.1786307  0.585283E-06  0.664E-03    4.64       3.3  T
   4    -26.1786315 -0.799536E-06  0.615E-04    4.64      35.5  T
   5    -26.1786315 -0.298031E-08  0.308E-04    4.64      70.8  T
     SCC iter.                  ...        0 min,  0.009 sec
     gradient                   ...        0 min,  0.003 sec
 * total energy  :   -25.7275715 Eh     change       -0.2723222E-04 Eh
   gradient norm :     0.0025016 Eh/α   predicted    -0.1787668E-04 ( -34.35%)
   displ. norm   :     0.1152702 α      lambda       -0.4496649E-04
   maximum displ.:     0.0718983 α      in ANC's #7, #2, #3, ...

........................................................................
.............................. CYCLE    7 ..............................
........................................................................
   1    -26.1783180 -0.261783E+02  0.352E-02    4.64       0.0  T
   2    -26.1783184 -0.419354E-06  0.205E-02    4.64       1.1  T
   3    -26.1783173  0.108421E-05  0.823E-03    4.64       2.7  T
   4    -26.1783187 -0.137068E-05  0.661E-04    4.64      33.0  T
   5    -26.1783187 -0.205389E-08  0.370E-04    4.64      59.0  T
   6    -26.1783187 -0.640718E-09  0.603E-05    4.64     361.7  T
     SCC iter.                  ...        0 min,  0.011 sec
     gradient                   ...        0 min,  0.003 sec
 * total energy  :   -25.7276040 Eh     change       -0.3253610E-04 Eh
   gradient norm :     0.0023854 Eh/α   predicted    -0.2279168E-04 ( -29.95%)
   displ. norm   :     0.1127765 α      lambda       -0.3531944E-04
   maximum displ.:     0.0810684 α      in ANC's #7, #2, #3, ...

........................................................................
.............................. CYCLE    8 ..............................
........................................................................
   1    -26.1784246 -0.261784E+02  0.322E-02    4.65       0.0  T
   2    -26.1784249 -0.313680E-06  0.188E-02    4.65       1.2  T
   3    -26.1784243  0.690336E-06  0.664E-03    4.65       3.3  T
   4    -26.1784251 -0.852340E-06  0.646E-04    4.65      33.8  T
   5    -26.1784251 -0.332807E-08  0.321E-04    4.65      68.1  T
     SCC iter.                  ...        0 min,  0.005 sec
     gradient                   ...        0 min,  0.002 sec
 * total energy  :   -25.7276284 Eh     change       -0.2440701E-04 Eh
   gradient norm :     0.0018405 Eh/α   predicted    -0.1788545E-04 ( -26.72%)
   displ. norm   :     0.1090875 α      lambda       -0.2164242E-04
   maximum displ.:     0.0858975 α      in ANC's #7, #1, #2, ...

........................................................................
.............................. CYCLE    9 ..............................
........................................................................
   1    -26.1792130 -0.261792E+02  0.315E-02    4.66       0.0  T
   2    -26.1792134 -0.392561E-06  0.183E-02    4.66       1.2  T
   3    -26.1792131  0.315629E-06  0.523E-03    4.66       4.2  T
   4    -26.1792135 -0.397200E-06  0.986E-04    4.66      22.1  T
   5    -26.1792135 -0.138636E-07  0.366E-04    4.66      59.6  T
     SCC iter.                  ...        0 min,  0.005 sec
     gradient                   ...        0 min,  0.002 sec
 * total energy  :   -25.7276462 Eh     change       -0.1774883E-04 Eh
   gradient norm :     0.0016389 Eh/α   predicted    -0.1088080E-04 ( -38.70%)
   displ. norm   :     0.0337155 α      lambda       -0.7395739E-05
   maximum displ.:     0.0218051 α      in ANC's #1, #2, #7, ...

........................................................................
.............................. CYCLE   10 ..............................
........................................................................
   1    -26.1794846 -0.261795E+02  0.148E-02    4.66       0.0  T
   2    -26.1794846 -0.320609E-07  0.863E-03    4.66       2.5  T
   3    -26.1794846  0.147686E-08  0.776E-04    4.66      28.1  T
   4    -26.1794846 -0.738538E-08  0.308E-04    4.66      70.9  T
     SCC iter.                  ...        0 min,  0.004 sec
     gradient                   ...        0 min,  0.002 sec
 * total energy  :   -25.7276545 Eh     change       -0.8275622E-05 Eh
   gradient norm :     0.0009352 Eh/α   predicted    -0.3700575E-05 ( -55.28%)
   displ. norm   :     0.0704817 α      lambda       -0.7442487E-05
   maximum displ.:     0.0436046 α      in ANC's #7, #1, #2, ...

........................................................................
.............................. CYCLE   11 ..............................
........................................................................
   1    -26.1789807 -0.261790E+02  0.258E-02    4.66       0.0  T
   2    -26.1789808 -0.978129E-07  0.151E-02    4.66       1.4  T
   3    -26.1789806  0.191048E-06  0.324E-03    4.66       6.7  T
   4    -26.1789808 -0.234182E-06  0.490E-04    4.66      44.5  T
   5    -26.1789808 -0.776190E-09  0.218E-04    4.66     100.3  T
     SCC iter.                  ...        0 min,  0.005 sec
     gradient                   ...        0 min,  0.002 sec
 * total energy  :   -25.7276608 Eh     change       -0.6315542E-05 Eh
   gradient norm :     0.0012987 Eh/α   predicted    -0.3730187E-05 ( -40.94%)
   displ. norm   :     0.0422506 α      lambda       -0.5081892E-05
   maximum displ.:     0.0290532 α      in ANC's #1, #2, #7, ...

........................................................................
.............................. CYCLE   12 ..............................
........................................................................
   1    -26.1791844 -0.261792E+02  0.198E-02    4.66       0.0  T
   2    -26.1791845 -0.342466E-07  0.116E-02    4.66       1.9  T
   3    -26.1791845 -0.564072E-08  0.572E-04    4.66      38.2  T
   4    -26.1791845 -0.167677E-08  0.294E-04    4.66      74.1  T
     SCC iter.                  ...        0 min,  0.004 sec
     gradient                   ...        0 min,  0.002 sec
 * total energy  :   -25.7276650 Eh     change       -0.4219758E-05 Eh
   gradient norm :     0.0007022 Eh/α   predicted    -0.2545380E-05 ( -39.68%)
   displ. norm   :     0.0304581 α      lambda       -0.2144398E-05
   maximum displ.:     0.0210653 α      in ANC's #1, #7, #2, ...

   *** GEOMETRY OPTIMIZATION CONVERGED AFTER 12 ITERATIONS ***

------------------------------------------------------------------------
 total energy gain   :        -0.0028881 Eh       -1.8123 kcal/mol
 total RMSD          :         0.1728848 a0        0.0915 Å
 total power (kW/mol):        -0.6318886 (step)  -41.7020 (real)
------------------------------------------------------------------------

 ANCopt (total)                0 d,  0 h,  0 min,  0.182 sec
 optimizer setup                ...        0 min,  0.000 sec (  0.082%)
 model hessian                  ...        0 min,  0.019 sec ( 10.605%)
 ANC generation                 ...        0 min,  0.002 sec (  0.991%)
 coordinate transformation      ...        0 min,  0.000 sec (  0.102%)
 single point calculation       ...        0 min,  0.155 sec ( 85.500%)
 optimization log               ...        0 min,  0.001 sec (  0.750%)
 hessian update                 ...        0 min,  0.001 sec (  0.817%)
 rational function              ...        0 min,  0.001 sec (  0.587%)

================
 final structure:
================
21
 xtb: 6.5.1 (fef0646)
N            1.17222205250358        0.26654108391498       -0.74086306227103
C            2.50087486245762       -0.02094163923759       -0.06307021844542
C            2.30538685043217        0.09362747378959        1.43879404403880
C            2.97098425714192       -1.38479412700822       -0.50342649101629
C            4.19217147295261       -1.52416820915822       -1.15073768845759
C            4.63052592890411       -2.77497870369912       -1.55073522474670
C            3.84804455974006       -3.89248911491877       -1.31423656567637
C            2.62806039740108       -3.75993242988305       -0.67100918210624
C            2.18994537071012       -2.51221461014508       -0.26526116314862
H            0.77829493922325        1.15698514717717       -0.41353699767031
H            0.52142972134427       -0.49541876383501       -0.50486566313540
H            1.28170591304050        0.29437524541032       -1.76137649470871
H            3.20622194384753        0.74124083821589       -0.40514241814075
H            1.59289530098553       -0.64041890719913        1.80540331104704
H            1.97238867635815        1.09008539663365        1.72027331283147
H            3.25307335433485       -0.09280724059082        1.93630647110322
H            4.80600710299200       -0.65457734702289       -1.33224239389630
H            5.58250505887379       -2.87347527387940       -2.04754983088103
H            4.18862945253181       -4.86679410062187       -1.62647084313390
H            2.01825476299528       -4.62893030553578       -0.48045895422994
H            1.24310802122977       -2.43340441240658        0.25300605264408

 Bond Distances (Angstroems)
 ---------------------------
N1-C2=1.5190         N1-H10=1.0272        N1-H11=1.0295        N1-H12=1.0267        C2-N1=1.5190         C2-C3=1.5189         
C2-C4=1.5083         C2-H13=1.0934        C3-C2=1.5189         C3-H14=1.0867        C3-H15=1.0877        C3-H16=1.0865        
C4-C2=1.5083         C4-C5=1.3891         C4-C9=1.3921         C5-C4=1.3891         C5-C6=1.3844         C5-H17=1.0798        
C6-C5=1.3844         C6-C7=1.3846         C6-H18=1.0783        C7-C6=1.3846         C7-C8=1.3855         C7-H19=1.0783        
C8-C7=1.3855         C8-C9=1.3832         C8-H20=1.0786        C9-C4=1.3921         C9-C8=1.3832         C9-H21=1.0823        
H10-N1=1.0272        H11-N1=1.0295        H12-N1=1.0267        H13-C2=1.0934        H14-C3=1.0867        H15-C3=1.0877        
H16-C3=1.0865        H17-C5=1.0798        H18-C6=1.0783        H19-C7=1.0783        H20-C8=1.0786        H21-C9=1.0823        
 C  H  Rav=1.0835 sigma=0.0050  Rmin=1.0783  Rmax=1.0934     9
 C  C  Rav=1.4183 sigma=0.0552  Rmin=1.3832  Rmax=1.5189     8
 N  H  Rav=1.0278 sigma=0.0012  Rmin=1.0267  Rmax=1.0295     3
 N  C  Rav=1.5190 sigma=0.0000  Rmin=1.5190  Rmax=1.5190     1

 selected bond angles (degree)
 --------------------
H10-N1-C2=110.93               H11-N1-C2=108.09               H11-N1-H10=109.03              H12-N1-C2=110.82               
H12-N1-H10=109.52              H12-N1-H11=108.38              C3-C2-N1=108.32                C4-C2-N1=108.27                
C4-C2-C3=113.39                H13-C2-N1=107.02               H13-C2-C3=109.87               H13-C2-C4=109.75               
H14-C3-C2=111.53               H15-C3-C2=111.37               H15-C3-H14=109.32              H16-C3-C2=109.12               
H16-C3-H14=107.55              H16-C3-H15=107.80              C5-C4-C2=120.05                C9-C4-C2=120.50                
C9-C4-C5=119.45                C6-C5-C4=120.24                H17-C5-C4=119.82               H17-C5-C6=119.94               
C7-C6-C5=120.06                H18-C6-C5=119.68               H18-C6-C7=120.26               C8-C7-C6=119.98                
H19-C7-C6=120.09               H19-C7-C8=119.93               C9-C8-C7=120.09                H20-C8-C7=120.18               
H20-C8-C9=119.73               C8-C9-C4=120.18                H21-C9-C4=120.92               H21-C9-C8=118.90               

 selected dihedral angles (degree)
 ---------------------------------
C3-C2-N1-H10= 52.30           C3-C2-N1-H11=292.81           C3-C2-N1-H12=174.18           C4-C2-N1-H10=175.65           
C4-C2-N1-H11= 56.16           C4-C2-N1-H12=297.53           H13-C2-N1-H10=293.90          H13-C2-N1-H11=174.40          
H13-C2-N1-H12= 55.78          H14-C3-C2-N1= 62.30           H14-C3-C2-C4=302.10           H14-C3-C2-H13=178.88          
H15-C3-C2-N1=299.87           H15-C3-C2-C4=179.67           H15-C3-C2-H13= 56.45          H16-C3-C2-N1=180.98           
H16-C3-C2-C4= 60.77           H16-C3-C2-H13=297.56          C5-C4-C2-N1=120.97            C5-C4-C2-C3=241.20            
C5-C4-C2-H13=  4.48           C9-C4-C2-N1=300.90            C9-C4-C2-C3= 61.13            C9-C4-C2-H13=184.41           
C6-C5-C4-C2=179.68            C6-C5-C4-C9=359.75            H17-C5-C4-C2=  0.37           H17-C5-C4-C9=180.43           
C7-C6-C5-C4=  0.41            C7-C6-C5-H17=179.73           H18-C6-C5-C4=180.34           H18-C6-C5-H17=359.66          
C8-C7-C6-C5=359.69            C8-C7-C6-H18=179.76           H19-C7-C6-C5=179.94           H19-C7-C6-H18=  0.00          
C9-C8-C7-C6=  0.04            C9-C8-C7-H19=179.79           H20-C8-C7-C6=180.32           H20-C8-C7-H19=  0.08          
C8-C9-C4-C2=180.05            C8-C9-C4-C5=  0.00            H21-C9-C4-C2=358.95           H21-C9-C4-C5=178.88           
C4-C9-C8-C7=  0.12            C4-C9-C8-H20=179.84           H21-C9-C8-C7=181.20           H21-C9-C8-H20=  0.92          
           -------------------------------------------------
          |                Final Singlepoint                |
           -------------------------------------------------

          ...................................................
          :                      SETUP                      :
          :.................................................:
          :  # basis functions                  48          :
          :  # atomic orbitals                  48          :
          :  # shells                           30          :
          :  # electrons                        48          :
          :  max. iterations                   250          :
          :  Hamiltonian                  GFN2-xTB          :
          :  restarted?                      false          :
          :  GBSA solvation                  false          :
          :  PC potential                    false          :
          :  electronic temp.          300.0000000     K    :
          :  accuracy                    1.0000000          :
          :  -> integral cutoff          0.2500000E+02      :
          :  -> integral neglect         0.1000000E-07      :
          :  -> SCF convergence          0.1000000E-05 Eh   :
          :  -> wf. convergence          0.1000000E-03 e    :
          :  Broyden damping             0.4000000          :
          ...................................................

 iter      E             dE          RMSdq      gap      omega  full diag
   1    -26.1791845 -0.261792E+02  0.154E-04    4.66       0.0  T
   2    -26.1791845 -0.483524E-10  0.908E-05    4.66     240.4  T
   3    -26.1791845 -0.245990E-10  0.573E-05    4.66     381.2  T

   *** convergence criteria satisfied after 3 iterations ***

         #    Occupation            Energy/Eh            Energy/eV
      -------------------------------------------------------------
         1        2.0000           -0.8827662             -24.0213
       ...           ...                  ...                  ...
        18        2.0000           -0.6101158             -16.6021
        19        2.0000           -0.6094304             -16.5834
        20        2.0000           -0.6044349             -16.4475
        21        2.0000           -0.5568868             -15.1537
        22        2.0000           -0.5527344             -15.0407
        23        2.0000           -0.5392435             -14.6736
        24        2.0000           -0.5386439             -14.6572 (HOMO)
        25                         -0.3675403             -10.0013 (LUMO)
        26                         -0.3565157              -9.7013
        27                         -0.2569577              -6.9922
        28                         -0.2229717              -6.0674
        29                         -0.1560489              -4.2463
       ...                                ...                  ...
        48                          0.5301440              14.4260
      -------------------------------------------------------------
                  HL-Gap            0.1711036 Eh            4.6560 eV
             Fermi-level           -0.4530921 Eh          -12.3293 eV

 SCC (total)                   0 d,  0 h,  0 min,  0.006 sec
 SCC setup                      ...        0 min,  0.000 sec (  1.667%)
 Dispersion                     ...        0 min,  0.000 sec (  1.808%)
 classical contributions        ...        0 min,  0.000 sec (  0.340%)
 integral evaluation            ...        0 min,  0.001 sec ( 10.530%)
 iterations                     ...        0 min,  0.003 sec ( 47.819%)
 molecular gradient             ...        0 min,  0.002 sec ( 34.995%)
 printout                       ...        0 min,  0.000 sec (  1.712%)

         :::::::::::::::::::::::::::::::::::::::::::::::::::::
         ::                     SUMMARY                     ::
         :::::::::::::::::::::::::::::::::::::::::::::::::::::
         :: total energy             -25.727664991840 Eh    ::
         :: gradient norm              0.000702865045 Eh/a0 ::
         :: HOMO-LUMO gap              4.655965228069 eV    ::
         ::.................................................::
         :: SCC energy               -26.179184491399 Eh    ::
         :: -> isotropic ES            0.101895471923 Eh    ::
         :: -> anisotropic ES         -0.011120937928 Eh    ::
         :: -> anisotropic XC          0.019381630715 Eh    ::
         :: -> dispersion             -0.015098092691 Eh    ::
         :: repulsion energy           0.451431528998 Eh    ::
         :: add. restraining           0.000000000000 Eh    ::
         :: total charge               1.000000000000 e     ::
         :::::::::::::::::::::::::::::::::::::::::::::::::::::

           -------------------------------------------------
          |                Property Printout                |
           -------------------------------------------------

    * Orbital Energies and Occupations

         #    Occupation            Energy/Eh            Energy/eV
      -------------------------------------------------------------
         1        2.0000           -0.8827662             -24.0213
       ...           ...                  ...                  ...
        12        2.0000           -0.6721490             -18.2901
        13        2.0000           -0.6590811             -17.9345
        14        2.0000           -0.6383179             -17.3695
        15        2.0000           -0.6272813             -17.0692
        16        2.0000           -0.6246355             -16.9972
        17        2.0000           -0.6189398             -16.8422
        18        2.0000           -0.6101158             -16.6021
        19        2.0000           -0.6094304             -16.5834
        20        2.0000           -0.6044349             -16.4475
        21        2.0000           -0.5568868             -15.1537
        22        2.0000           -0.5527344             -15.0407
        23        2.0000           -0.5392435             -14.6736
        24        2.0000           -0.5386439             -14.6572 (HOMO)
        25                         -0.3675403             -10.0013 (LUMO)
        26                         -0.3565157              -9.7013
        27                         -0.2569577              -6.9922
        28                         -0.2229717              -6.0674
        29                         -0.1560489              -4.2463
        30                         -0.0975607              -2.6548
        31                         -0.0865840              -2.3561
        32                         -0.0658254              -1.7912
        33                         -0.0250892              -0.6827
        34                         -0.0083901              -0.2283
        35                          0.0117881               0.3208
       ...                                ...                  ...
        48                          0.5301440              14.4260
      -------------------------------------------------------------
                  HL-Gap            0.1711036 Eh            4.6560 eV
             Fermi-level           -0.4530921 Eh          -12.3293 eV

     #   Z          covCN         q      C6AA      α(0)
     1   7 N        3.484    -0.143    24.077     7.288
     2   6 C        3.784     0.023    20.197     6.402
     3   6 C        3.755    -0.138    23.218     6.871
     4   6 C        2.973    -0.016    28.407     8.743
     5   6 C        2.923    -0.034    28.851     8.808
     6   6 C        2.919    -0.018    28.450     8.747
     7   6 C        2.920    -0.016    28.408     8.740
     8   6 C        2.919    -0.021    28.519     8.757
     9   6 C        2.922    -0.042    29.035     8.836
    10   1 H        0.859     0.266     0.826     1.423
    11   1 H        0.859     0.270     0.809     1.409
    12   1 H        0.859     0.263     0.833     1.430
    13   1 H        0.924     0.092     1.862     2.134
    14   1 H        0.925     0.073     2.049     2.239
    15   1 H        0.925     0.068     2.109     2.271
    16   1 H        0.925     0.097     1.809     2.103
    17   1 H        0.926     0.049     2.337     2.390
    18   1 H        0.926     0.066     2.132     2.284
    19   1 H        0.926     0.067     2.119     2.276
    20   1 H        0.926     0.061     2.184     2.311
    21   1 H        0.925     0.031     2.572     2.508

 Mol. C6AA /au·bohr⁶  :       3854.116462
 Mol. C8AA /au·bohr⁸  :      90273.998990
 Mol. α(0) /au        :         97.970105


Wiberg/Mayer (AO) data.
largest (>0.10) Wiberg bond orders for each atom

 ---------------------------------------------------------------------------
     #   Z sym  total        # sym  WBO       # sym  WBO       # sym  WBO
 ---------------------------------------------------------------------------
     1   7 N    3.666 --    12 H    0.916    10 H    0.912    11 H    0.903
                             2 C    0.881
     2   6 C    3.890 --     3 C    1.010     4 C    0.992    13 H    0.959
                             1 N    0.881
     3   6 C    3.979 --     2 C    1.010    15 H    0.979    14 H    0.978
                            16 H    0.970
     4   6 C    3.975 --     5 C    1.413     9 C    1.403     2 C    0.992
                             7 C    0.108
     5   6 C    3.991 --     6 C    1.440     4 C    1.413    17 H    0.967
                             8 C    0.108
     6   6 C    3.989 --     7 C    1.442     5 C    1.440    18 H    0.968
                             9 C    0.111
     7   6 C    3.987 --     6 C    1.442     8 C    1.433    19 H    0.968
                             4 C    0.108
     8   6 C    3.990 --     9 C    1.449     7 C    1.433    20 H    0.968
                             5 C    0.108
     9   6 C    3.992 --     8 C    1.449     4 C    1.403    21 H    0.962
                             6 C    0.111
    10   1 H    0.929 --     1 N    0.912
    11   1 H    0.927 --     1 N    0.903
    12   1 H    0.931 --     1 N    0.916
    13   1 H    0.991 --     2 C    0.959
    14   1 H    0.995 --     3 C    0.978
    15   1 H    0.995 --     3 C    0.979
    16   1 H    0.991 --     3 C    0.970
    17   1 H    0.998 --     5 C    0.967
    18   1 H    0.995 --     6 C    0.968
    19   1 H    0.995 --     7 C    0.968
    20   1 H    0.996 --     8 C    0.968
    21   1 H    0.999 --     9 C    0.962
 ---------------------------------------------------------------------------

Topologies differ in total number of bonds
Writing topology from bond orders to xtbtopo.mol

molecular dipole:
                 x           y           z       tot (Debye)
 q only:        3.183      -0.479      -1.160
   full:        2.975      -0.355      -1.255       8.257
molecular quadrupole (traceless):
                xx          xy          yy          xz          yz          zz
 q only:        9.818      -8.603      -1.182      -6.788       3.107      -8.636
  q+dip:        9.200      -6.855       1.555      -9.570       2.949     -10.755
   full:        8.758      -7.403       0.016      -7.705       2.619      -8.774

           -------------------------------------------------
          |                Geometry Summary                 |
           -------------------------------------------------

      molecular mass/u    :      122.1878794
   center of mass at/Å    :        2.8690934      -1.6307370      -0.5095136
  moments of inertia/u·Å² :        0.1505355E+03   0.4669539E+03   0.5088880E+03
rotational constants/cm⁻¹ :        0.1119844E+00   0.3610127E-01   0.3312641E-01

 * 20 selected distances

     #   Z          #   Z                                           value/Å
     1   7 N        2   6 C                                       1.5190024 (max)
     2   6 C        3   6 C                                       1.5188609
     4   6 C        5   6 C                                       1.3891492
     5   6 C        6   6 C                                       1.3844421
     6   6 C        7   6 C                                       1.3845716
     7   6 C        8   6 C                                       1.3855232
     4   6 C        9   6 C                                       1.3920567
     8   6 C        9   6 C                                       1.3832485
     1   7 N       10   1 H                                       1.0272350
     1   7 N       11   1 H                                       1.0294700
     1   7 N       12   1 H                                       1.0267470 (min)
     2   6 C       13   1 H                                       1.0933665
     3   6 C       14   1 H                                       1.0866788
     3   6 C       15   1 H                                       1.0876796
     3   6 C       16   1 H                                       1.0864559
     5   6 C       17   1 H                                       1.0797808
     6   6 C       18   1 H                                       1.0783278
     7   6 C       19   1 H                                       1.0783129
     8   6 C       20   1 H                                       1.0785777
     9   6 C       21   1 H                                       1.0822722

 * 4 distinct bonds (by element types)

   Z      Z             #   av. dist./Å        max./Å        min./Å
   1 H    6 C           9     1.0834947     1.0933665     1.0783129
   6 C    6 C           7     1.4054074     1.5188609     1.3832485
   1 H    7 N           3     1.0278173     1.0294700     1.0267470
   6 C    7 N           1     1.5190024     1.5190024     1.5190024


optimized geometry written to: xtbopt.xyz


           -------------------------------------------------
          | TOTAL ENERGY              -25.727664991840 Eh   |
          | GRADIENT NORM               0.000702865045 Eh/α |
          | HOMO-LUMO GAP               4.655965228069 eV   |
           -------------------------------------------------

------------------------------------------------------------------------
 * finished run on 2023/01/23 at 21:09:01.794     
------------------------------------------------------------------------
 total:
 * wall-time:     0 d,  0 h,  0 min,  0.247 sec
 *  cpu-time:     0 d,  0 h,  0 min, 23.305 sec
 * ratio c/w:    94.336 speedup
 SCF:
 * wall-time:     0 d,  0 h,  0 min,  0.036 sec
 *  cpu-time:     0 d,  0 h,  0 min,  4.536 sec
 * ratio c/w:   126.917 speedup
 ANC optimizer:
 * wall-time:     0 d,  0 h,  0 min,  0.190 sec
 *  cpu-time:     0 d,  0 h,  0 min, 16.170 sec
 * ratio c/w:    85.274 speedup

