12
 energy: -13.062676032628 gnorm: 0.000306426817 xtb: 6.5.1 (fef0646)
N            1.04226363346657       -0.04167947028231       -0.17307713817938
C            2.50889015749547       -0.05791713400012       -0.07309986129627
C            3.28948369291927        0.75655015906830       -1.05611747034859
C            3.27936527607020       -0.74159233302816       -1.15843344449922
H            0.65208993541651        0.75944504906592        0.34058240212007
H            0.64263832209600       -0.90813480118777        0.21146419458927
H            0.76019519632147        0.03651315666192       -1.15860531861462
H            2.86278660368288       -0.12972484154191        0.94491725214993
H            4.18664529449855        1.24819026272355       -0.71732937935848
H            2.75190929181340        1.32025977064884       -1.80177225848886
H            4.16962083675064       -1.28665697836361       -0.89065255572002
H            2.73511175946905       -1.19162283976465       -1.97319642235381
