      -----------------------------------------------------------      
     |                   =====================                   |     
     |                           x T B                           |     
     |                   =====================                   |     
     |                         S. Grimme                         |     
     |          Mulliken Center for Theoretical Chemistry        |     
     |                    University of Bonn                     |     
      -----------------------------------------------------------      

   * xtb version 6.5.1 (fef0646) compiled by 'conda@b96dff2e9fd6' on 2023-01-04

   xtb is free software: you can redistribute it and/or modify it under
   the terms of the GNU Lesser General Public License as published by
   the Free Software Foundation, either version 3 of the License, or
   (at your option) any later version.
   
   xtb is distributed in the hope that it will be useful,
   but WITHOUT ANY WARRANTY; without even the implied warranty of
   MERCHANTABILITY or FITNESS FOR A PARTICULAR PURPOSE.  See the
   GNU Lesser General Public License for more details.
   
   Cite this work as:
   * C. Bannwarth, E. Caldeweyher, S. Ehlert, A. Hansen, P. Pracht,
     J. Seibert, S. Spicher, S. Grimme, WIREs Comput. Mol. Sci., 2020, 11,
     e01493. DOI: 10.1002/wcms.1493
   
   for GFN2-xTB:
   * C. Bannwarth, S. Ehlert and S. Grimme., J. Chem. Theory Comput., 2019,
     15, 1652-1671. DOI: 10.1021/acs.jctc.8b01176
   for GFN1-xTB:
   * S. Grimme, C. Bannwarth, P. Shushkov, J. Chem. Theory Comput., 2017,
     13, 1989-2009. DOI: 10.1021/acs.jctc.7b00118
   for GFN0-xTB:
   * P. Pracht, E. Caldeweyher, S. Ehlert, S. Grimme, ChemRxiv, 2019, preprint.
     DOI: 10.26434/chemrxiv.8326202.v1
   for GFN-FF:
   * S. Spicher and S. Grimme, Angew. Chem. Int. Ed., 2020, 59, 15665-15673.
     DOI: 10.1002/anie.202004239
   
   for ALPB and GBSA implicit solvation:
   * S. Ehlert, M. Stahn, S. Spicher, S. Grimme, J. Chem. Theory Comput.,
     2021, 17, 4250-4261. DOI: 10.1021/acs.jctc.1c00471
   
   for DFT-D4:
   * E. Caldeweyher, C. Bannwarth and S. Grimme, J. Chem. Phys., 2017,
     147, 034112. DOI: 10.1063/1.4993215
   * E. Caldeweyher, S. Ehlert, A. Hansen, H. Neugebauer, S. Spicher,
     C. Bannwarth and S. Grimme, J. Chem. Phys., 2019, 150, 154122.
     DOI: 10.1063/1.5090222
   * E. Caldeweyher, J.-M. Mewes, S. Ehlert and S. Grimme, Phys. Chem. Chem. Phys.
     2020, 22, 8499-8512. DOI: 10.1039/D0CP00502A
   
   for sTDA-xTB:
   * S. Grimme and C. Bannwarth, J. Chem. Phys., 2016, 145, 054103.
     DOI: 10.1063/1.4959605
   
   in the mass-spec context:
   * V. Asgeirsson, C. Bauer and S. Grimme, Chem. Sci., 2017, 8, 4879.
     DOI: 10.1039/c7sc00601b
   * J. Koopman and S. Grimme, ACS Omega 2019, 4, 12, 15120-15133.
     DOI: 10.1021/acsomega.9b02011
   
   for metadynamics refer to:
   * S. Grimme, J. Chem. Theory Comput., 2019, 155, 2847-2862
     DOI: 10.1021/acs.jctc.9b00143
   
   for SPH calculations refer to:
   * S. Spicher and S. Grimme, J. Chem. Theory Comput., 2021, 17, 1701-1714
     DOI: 10.1021/acs.jctc.0c01306
   
   with help from (in alphabetical order)
   P. Atkinson, C. Bannwarth, F. Bohle, G. Brandenburg, E. Caldeweyher
   M. Checinski, S. Dohm, S. Ehlert, S. Ehrlich, I. Gerasimov, C. Hölzer
   A. Katbashev, J. Koopman, C. Lavigne, S. Lehtola, F. März, M. Müller,
   F. Musil, H. Neugebauer, J. Pisarek, C. Plett, P. Pracht, F. Pultar,
   J. Seibert, P. Shushkov, S. Spicher, M. Stahn, M. Steiner, T. Strunk,
   J. Stückrath, T. Rose, and J. Unsleber
   
 * started run on 2023/01/23 at 21:07:37.419     

           -------------------------------------------------
          |                Calculation Setup                |
           -------------------------------------------------

          program call               : xtb init.xyz --opt -c 1 -u 0 -P 16 --input xtb.inp
          hostname                   : gpg-woodward
          coordinate file            : init.xyz
          omp threads                :                    16

   ID    Z sym.   atoms
    1    7 N      1
    2    6 C      2-13
    3    1 H      14-27

           -------------------------------------------------
          |                 G F N 2 - x T B                 |
           -------------------------------------------------

        Reference                      10.1021/acs.jctc.8b01176
      * Hamiltonian:
        H0-scaling (s, p, d)           1.850000    2.230000    2.230000
        zeta-weighting                 0.500000
      * Dispersion:
        s8                             2.700000
        a1                             0.520000
        a2                             5.000000
        s9                             5.000000
      * Repulsion:
        kExp                           1.500000    1.000000
        rExp                           1.000000
      * Coulomb:
        alpha                          2.000000
        third order                    shell-resolved
        anisotropic                    true
        a3                             3.000000
        a5                             4.000000
        cn-shift                       1.200000
        cn-exp                         4.000000
        max-rad                        5.000000


          ...................................................
          :                      SETUP                      :
          :.................................................:
          :  # basis functions                  66          :
          :  # atomic orbitals                  66          :
          :  # shells                           40          :
          :  # electrons                        66          :
          :  max. iterations                   250          :
          :  Hamiltonian                  GFN2-xTB          :
          :  restarted?                      false          :
          :  GBSA solvation                  false          :
          :  PC potential                    false          :
          :  electronic temp.          300.0000000     K    :
          :  accuracy                    1.0000000          :
          :  -> integral cutoff          0.2500000E+02      :
          :  -> integral neglect         0.1000000E-07      :
          :  -> SCF convergence          0.1000000E-05 Eh   :
          :  -> wf. convergence          0.1000000E-03 e    :
          :  Broyden damping             0.4000000          :
          ...................................................

 iter      E             dE          RMSdq      gap      omega  full diag
   1    -35.8058916 -0.358059E+02  0.422E+00    2.94       0.0  T
   2    -35.9271470 -0.121255E+00  0.247E+00    2.85       1.0  T
   3    -35.9281005 -0.953456E-03  0.124E+00    2.85       1.0  T
   4    -35.9229772  0.512325E-02  0.610E-01    2.80       1.0  T
   5    -35.9328142 -0.983692E-02  0.993E-02    2.80       1.0  T
   6    -35.9328129  0.127290E-05  0.488E-02    2.82       1.0  T
   7    -35.9328408 -0.278620E-04  0.200E-02    2.81       1.0  T
   8    -35.9328478 -0.707843E-05  0.957E-03    2.81       2.0  T
   9    -35.9328493 -0.142539E-05  0.296E-03    2.81       6.5  T
  10    -35.9328493 -0.470588E-07  0.125E-03    2.81      15.4  T
  11    -35.9328493 -0.761557E-08  0.530E-04    2.81      36.3  T
  12    -35.9328493 -0.407162E-08  0.221E-04    2.81      87.1  T

   *** convergence criteria satisfied after 12 iterations ***

         #    Occupation            Energy/Eh            Energy/eV
      -------------------------------------------------------------
         1        2.0000           -0.8818195             -23.9955
       ...           ...                  ...                  ...
        27        2.0000           -0.5650425             -15.3756
        28        2.0000           -0.5560254             -15.1302
        29        2.0000           -0.5389611             -14.6659
        30        2.0000           -0.5265457             -14.3280
        31        2.0000           -0.5230965             -14.2342
        32        2.0000           -0.5154797             -14.0269
        33        2.0000           -0.4864093             -13.2359 (HOMO)
        34                         -0.3830816             -10.4242 (LUMO)
        35                         -0.3482833              -9.4773
        36                         -0.3053226              -8.3083
        37                         -0.2728672              -7.4251
        38                         -0.2256562              -6.1404
       ...                                ...                  ...
        66                          0.5773775              15.7112
      -------------------------------------------------------------
                  HL-Gap            0.1033277 Eh            2.8117 eV
             Fermi-level           -0.4347455 Eh          -11.8300 eV

 SCC (total)                   0 d,  0 h,  0 min,  0.066 sec
 SCC setup                      ...        0 min,  0.001 sec (  1.182%)
 Dispersion                     ...        0 min,  0.001 sec (  0.974%)
 classical contributions        ...        0 min,  0.000 sec (  0.301%)
 integral evaluation            ...        0 min,  0.004 sec (  5.604%)
 iterations                     ...        0 min,  0.054 sec ( 81.841%)
 molecular gradient             ...        0 min,  0.006 sec (  8.983%)
 printout                       ...        0 min,  0.001 sec (  0.869%)

         :::::::::::::::::::::::::::::::::::::::::::::::::::::
         ::                     SUMMARY                     ::
         :::::::::::::::::::::::::::::::::::::::::::::::::::::
         :: total energy             -35.318941542080 Eh    ::
         :: gradient norm              0.078577310154 Eh/a0 ::
         :: HOMO-LUMO gap              2.811690271133 eV    ::
         ::.................................................::
         :: SCC energy               -35.932849317453 Eh    ::
         :: -> isotropic ES            0.099344674323 Eh    ::
         :: -> anisotropic ES         -0.009727799268 Eh    ::
         :: -> anisotropic XC          0.025144117269 Eh    ::
         :: -> dispersion             -0.023796379877 Eh    ::
         :: repulsion energy           0.613850115119 Eh    ::
         :: add. restraining           0.000000000000 Eh    ::
         :: total charge               1.000000000000 e     ::
         :::::::::::::::::::::::::::::::::::::::::::::::::::::

      ----------------------------------------------------------- 
     |                   =====================                   |
     |                        A N C O P T                        |
     |                   =====================                   |
     |               Approximate Normal Coordinate               |
     |                Rational Function Optimizer                |
      ----------------------------------------------------------- 

          ...................................................
          :                      SETUP                      :
          :.................................................:
          :   optimization level            normal          :
          :   max. optcycles                   200          :
          :   ANC micro-cycles                  20          :
          :   degrees of freedom                75          :
          :.................................................:
          :   RF solver                   davidson          :
          :   write xtbopt.log                true          :
          :   linear?                        false          :
          :   energy convergence         0.5000000E-05 Eh   :
          :   grad. convergence          0.1000000E-02 Eh/α :
          :   maximium RF displ.         1.0000000          :
          :   Hlow (freq-cutoff)         0.1000000E-01      :
          :   Hmax (freq-cutoff)         5.0000000          :
          :   S6 in model hess.         20.0000000          :
          ...................................................

generating ANC from model Hessian ...
Using Lindh-Hessian (1995)
 Shifting diagonal of input Hessian by    8.7962570420063411E-003
 Lowest  eigenvalues of input Hessian
    0.000000    0.000000    0.000000    0.000000    0.000000    0.000000
    0.010000    0.010216    0.012870    0.014751    0.015677    0.018535
    0.019715    0.021541    0.022010    0.024404    0.028387    0.029612
 Highest eigenvalues
    1.755042    1.782088    1.794561    1.898321    2.003629    2.082459


........................................................................
.............................. CYCLE    1 ..............................
........................................................................
   1    -35.9328493 -0.359328E+02  0.973E-05    2.81       0.0  T
   2    -35.9328493 -0.397051E-10  0.625E-05    2.81     308.0  T
   3    -35.9328493 -0.153619E-10  0.441E-05    2.81     435.9  T
     SCC iter.                  ...        0 min,  0.014 sec
     gradient                   ...        0 min,  0.007 sec
 * total energy  :   -35.3189415 Eh     change       -0.2525482E-09 Eh
   gradient norm :     0.0785770 Eh/α   predicted     0.0000000E+00 (-100.00%)
   displ. norm   :     0.1714172 α      lambda       -0.6210883E-02
   maximum displ.:     0.0823034 α      in ANC's #14, #7, #6, ...

........................................................................
.............................. CYCLE    2 ..............................
........................................................................
   1    -35.9567721 -0.359568E+02  0.114E-01    2.99       0.0  T
   2    -35.9567946 -0.225279E-04  0.741E-02    2.99       1.0  T
   3    -35.9567793  0.152817E-04  0.300E-02    2.99       1.0  T
   4    -35.9568023 -0.229461E-04  0.809E-03    2.99       2.4  T
   5    -35.9568034 -0.111055E-05  0.356E-03    2.99       5.4  T
   6    -35.9568035 -0.168207E-06  0.142E-03    2.99      13.5  T
   7    -35.9568035 -0.442764E-08  0.740E-04    2.99      26.0  T
   8    -35.9568036 -0.107937E-07  0.138E-04    2.99     139.9  T
     SCC iter.                  ...        0 min,  0.032 sec
     gradient                   ...        0 min,  0.006 sec
 * total energy  :   -35.3231545 Eh     change       -0.4212975E-02 Eh
   gradient norm :     0.0321089 Eh/α   predicted    -0.3196942E-02 ( -24.12%)
   displ. norm   :     0.1213674 α      lambda       -0.1508178E-02
   maximum displ.:     0.0553494 α      in ANC's #7, #14, #6, ...

........................................................................
.............................. CYCLE    3 ..............................
........................................................................
   1    -35.9673258 -0.359673E+02  0.698E-02    3.10       0.0  T
   2    -35.9673377 -0.118407E-04  0.437E-02    3.09       1.0  T
   3    -35.9673346  0.307586E-05  0.183E-02    3.09       1.1  T
   4    -35.9673401 -0.552071E-05  0.616E-03    3.09       3.1  T
   5    -35.9673408 -0.633172E-06  0.249E-03    3.09       7.7  T
   6    -35.9673409 -0.100574E-06  0.923E-04    3.09      20.8  T
   7    -35.9673409 -0.613092E-09  0.436E-04    3.09      44.1  T
     SCC iter.                  ...        0 min,  0.025 sec
     gradient                   ...        0 min,  0.005 sec
 * total energy  :   -35.3239723 Eh     change       -0.8178249E-03 Eh
   gradient norm :     0.0077317 Eh/α   predicted    -0.7652982E-03 (  -6.42%)
   displ. norm   :     0.0444279 α      lambda       -0.1177716E-03
   maximum displ.:     0.0224819 α      in ANC's #6, #7, #28, ...

........................................................................
.............................. CYCLE    4 ..............................
........................................................................
   1    -35.9664774 -0.359665E+02  0.247E-02    3.09       0.0  T
   2    -35.9664784 -0.100240E-05  0.138E-02    3.09       1.4  T
   3    -35.9664782  0.151701E-06  0.488E-03    3.09       3.9  T
   4    -35.9664784 -0.216697E-06  0.158E-03    3.09      12.2  T
   5    -35.9664785 -0.583951E-07  0.450E-04    3.09      42.8  T
   6    -35.9664785 -0.150742E-08  0.233E-04    3.09      82.6  T
     SCC iter.                  ...        0 min,  0.013 sec
     gradient                   ...        0 min,  0.005 sec
 * total energy  :   -35.3240575 Eh     change       -0.8511904E-04 Eh
   gradient norm :     0.0042955 Eh/α   predicted    -0.5900778E-04 ( -30.68%)
   displ. norm   :     0.0471231 α      lambda       -0.5821630E-04
   maximum displ.:     0.0273535 α      in ANC's #6, #2, #28, ...

........................................................................
.............................. CYCLE    5 ..............................
........................................................................
   1    -35.9654511 -0.359655E+02  0.237E-02    3.09       0.0  T
   2    -35.9654520 -0.878005E-06  0.135E-02    3.09       1.4  T
   3    -35.9654518  0.215546E-06  0.455E-03    3.09       4.2  T
   4    -35.9654521 -0.264335E-06  0.170E-03    3.09      11.3  T
   5    -35.9654521 -0.724871E-07  0.501E-04    3.09      38.4  T
   6    -35.9654521 -0.274188E-08  0.243E-04    3.09      79.1  T
     SCC iter.                  ...        0 min,  0.013 sec
     gradient                   ...        0 min,  0.005 sec
 * total energy  :   -35.3240899 Eh     change       -0.3239679E-04 Eh
   gradient norm :     0.0010380 Eh/α   predicted    -0.2918163E-04 (  -9.92%)
   displ. norm   :     0.0297790 α      lambda       -0.5433015E-05
   maximum displ.:     0.0207165 α      in ANC's #2, #6, #8, ...

........................................................................
.............................. CYCLE    6 ..............................
........................................................................
   1    -35.9654779 -0.359655E+02  0.102E-02    3.09       0.0  T
   2    -35.9654780 -0.979266E-07  0.594E-03    3.09       3.2  T
   3    -35.9654779  0.115923E-06  0.243E-03    3.09       7.9  T
   4    -35.9654780 -0.135183E-06  0.700E-04    3.09      27.5  T
   5    -35.9654781 -0.109883E-07  0.190E-04    3.09     101.5  T
     SCC iter.                  ...        0 min,  0.010 sec
     gradient                   ...        0 min,  0.005 sec
 * total energy  :   -35.3240958 Eh     change       -0.5913334E-05 Eh
   gradient norm :     0.0007104 Eh/α   predicted    -0.2718411E-05 ( -54.03%)
   displ. norm   :     0.0432645 α      lambda       -0.5682014E-05
   maximum displ.:     0.0320127 α      in ANC's #2, #6, #8, ...

........................................................................
.............................. CYCLE    7 ..............................
........................................................................
   1    -35.9657076 -0.359657E+02  0.128E-02    3.08       0.0  T
   2    -35.9657077 -0.550619E-07  0.755E-03    3.08       2.5  T
   3    -35.9657074  0.300542E-06  0.359E-03    3.08       5.4  T
   4    -35.9657077 -0.354486E-06  0.469E-04    3.08      41.0  T
   5    -35.9657077 -0.382526E-08  0.175E-04    3.08     110.2  T
     SCC iter.                  ...        0 min,  0.015 sec
     gradient                   ...        0 min,  0.005 sec
 * total energy  :   -35.3241019 Eh     change       -0.6132474E-05 Eh
   gradient norm :     0.0008405 Eh/α   predicted    -0.2844431E-05 ( -53.62%)
   displ. norm   :     0.0434467 α      lambda       -0.3637846E-05
   maximum displ.:     0.0342915 α      in ANC's #2, #6, #8, ...

........................................................................
.............................. CYCLE    8 ..............................
........................................................................
   1    -35.9657080 -0.359657E+02  0.120E-02    3.08       0.0  T
   2    -35.9657081 -0.403532E-07  0.704E-03    3.08       2.7  T
   3    -35.9657078  0.267519E-06  0.337E-03    3.08       5.7  T
   4    -35.9657081 -0.313734E-06  0.406E-04    3.08      47.4  T
   5    -35.9657081 -0.285954E-08  0.154E-04    3.08     124.6  T
     SCC iter.                  ...        0 min,  0.010 sec
     gradient                   ...        0 min,  0.005 sec
 * total energy  :   -35.3241063 Eh     change       -0.4373152E-05 Eh
   gradient norm :     0.0007290 Eh/α   predicted    -0.1821204E-05 ( -58.35%)
   displ. norm   :     0.0386643 α      lambda       -0.3011098E-05
   maximum displ.:     0.0320549 α      in ANC's #2, #6, #4, ...

   *** GEOMETRY OPTIMIZATION CONVERGED AFTER 8 ITERATIONS ***

------------------------------------------------------------------------
 total energy gain   :        -0.0051647 Eh       -3.2409 kcal/mol
 total RMSD          :         0.0759556 a0        0.0402 Å
 total power (kW/mol):        -1.6950013 (step)  -59.3132 (real)
------------------------------------------------------------------------

 ANCopt (total)                0 d,  0 h,  0 min,  0.229 sec
 optimizer setup                ...        0 min,  0.000 sec (  0.053%)
 model hessian                  ...        0 min,  0.024 sec ( 10.381%)
 ANC generation                 ...        0 min,  0.004 sec (  1.681%)
 coordinate transformation      ...        0 min,  0.000 sec (  0.070%)
 single point calculation       ...        0 min,  0.197 sec ( 86.205%)
 optimization log               ...        0 min,  0.001 sec (  0.535%)
 hessian update                 ...        0 min,  0.001 sec (  0.347%)
 rational function              ...        0 min,  0.001 sec (  0.324%)

================
 final structure:
================
27
 xtb: 6.5.1 (fef0646)
N            1.12744407793070        0.45979555496520        0.16243190228943
C            2.57176872471740       -0.00229661512271       -0.03385113516838
C            3.38140571611365        1.18291462283584       -0.52226222703581
C            3.02084026911476       -0.62180087850756        1.26405503445420
C            2.82401182331436       -2.00793333760793        1.44152743843442
C            3.18320695041280       -2.61787922101798        2.60912283870776
C            3.56749735612904        0.12067987976691        2.28180684462401
C            3.95397238755918       -0.48238435996886        3.49459956389022
C            3.75649322652486       -1.87956165805583        3.66504064064290
C            4.14579100966380       -2.48263333568977        4.87824841999078
C            4.70813731200727       -1.73455555553706        5.87537315397789
C            4.90446498130464       -0.35407588076840        5.70657681592477
C            4.53452897896677        0.26148824457657        4.54354630699258
H            0.74887186400155        0.87311475663647       -0.69876056645111
H            1.10860692087118        1.16664350341900        0.90910169572702
H            0.54185505534364       -0.33330996151677        0.45151288188750
H            2.54291663294237       -0.77275961089999       -0.81002900985551
H            3.31648187364252        2.02688548643459        0.15917220759863
H            3.04898493294563        1.50153784268902       -1.50758887260710
H            4.42608358199619        0.89577516620745       -0.60032553469636
H            2.40230362186233       -2.59074824764585        0.63493250317009
H            3.03631633298365       -3.67939620305016        2.73564225496544
H            3.73423745306645        1.18211817645454        2.17397746868129
H            3.99503611577846       -3.54417629006366        5.00360688114278
H            5.00815855782258       -2.20077317998939        6.80103250455432
H            5.35222087652080        0.21742313356610        6.50480595776669
H            4.68701336646345        1.32249796789024        4.41071403039150

 Bond Distances (Angstroems)
 ---------------------------
N1-C2=1.5291         N1-H14=1.0275        N1-H15=1.0284        N1-H16=1.0274        C2-N1=1.5291         C2-C3=1.5162         
C2-C4=1.5067         C2-H17=1.0940        C3-C2=1.5162         C3-H18=1.0867        C3-H19=1.0876        C3-H20=1.0862        
C4-C2=1.5067         C4-C5=1.4112         C4-C7=1.3733         C5-C4=1.4112         C5-C6=1.3654         C5-H21=1.0808        
C6-C5=1.3654         C6-C9=1.4102         C6-H22=1.0791        C7-C4=1.3733         C7-C8=1.4085         C7-H23=1.0799        
C8-C7=1.4085         C8-C9=1.4213         C8-C13=1.4109        C9-C6=1.4102         C9-C8=1.4213         C9-C10=1.4097        
C10-C9=1.4097        C10-C11=1.3675       C10-H24=1.0795       C11-C10=1.3675       C11-C12=1.4046       C11-H25=1.0790       
C12-C11=1.4046       C12-C13=1.3669       C12-H26=1.0790       C13-C8=1.4109        C13-C12=1.3669       C13-H27=1.0801       
H14-N1=1.0275        H15-N1=1.0284        H16-N1=1.0274        H17-C2=1.0940        H18-C3=1.0867        H19-C3=1.0876        
H20-C3=1.0862        H21-C5=1.0808        H22-C6=1.0791        H23-C7=1.0799        H24-C10=1.0795       H25-C11=1.0790       
H26-C12=1.0790       H27-C13=1.0801       
 C  H  Rav=1.0829 sigma=0.0048  Rmin=1.0790  Rmax=1.0940    11
 C  C  Rav=1.4133 sigma=0.0461  Rmin=1.3654  Rmax=1.5162    13
 N  H  Rav=1.0277 sigma=0.0004  Rmin=1.0274  Rmax=1.0284     3
 N  C  Rav=1.5291 sigma=0.0000  Rmin=1.5291  Rmax=1.5291     1

 selected bond angles (degree)
 --------------------
H14-N1-C2=111.22               H15-N1-C2=108.56               H15-N1-H14=108.98              H16-N1-C2=109.95               
H16-N1-H14=109.65              H16-N1-H15=108.41              C3-C2-N1=108.03                C4-C2-N1=107.17                
C4-C2-C3=116.09                H17-C2-N1=106.20               H17-C2-C3=109.64               H17-C2-C4=109.24               
H18-C3-C2=111.91               H19-C3-C2=110.95               H19-C3-H18=108.80              H20-C3-C2=109.27               
H20-C3-H18=107.93              H20-C3-H19=107.84              C5-C4-C2=118.07                C7-C4-C2=122.33                
C7-C4-C5=119.56                C6-C5-C4=120.64                H21-C5-C4=119.36               H21-C5-C6=120.00               
C9-C6-C5=120.89                H22-C6-C5=120.26               H22-C6-C9=118.85               C8-C7-C4=121.05                
H23-C7-C4=121.26               H23-C7-C8=117.68               C9-C8-C7=119.08                C13-C8-C7=121.82               
C13-C8-C9=119.10               C8-C9-C6=118.77                C10-C9-C6=122.19               C10-C9-C8=119.04               
C11-C10-C9=120.47              H24-C10-C9=118.82              H24-C10-C11=120.71             

 selected dihedral angles (degree)
 ---------------------------------
C3-C2-N1-H14= 55.68           C3-C2-N1-H15=295.79           C3-C2-N1-H16=177.34           C4-C2-N1-H14=181.46           
C4-C2-N1-H15= 61.56           C4-C2-N1-H16=303.12           H17-C2-N1-H14=298.13          H17-C2-N1-H15=178.23          
H17-C2-N1-H16= 59.79          H18-C3-C2-N1= 56.48           H18-C3-C2-C4=296.15           H18-C3-C2-H17=171.80          
H19-C3-C2-N1=294.74           H19-C3-C2-C4=174.40           H19-C3-C2-H17= 50.06          H20-C3-C2-N1=175.97           
H20-C3-C2-C4= 55.63           H20-C3-C2-H17=291.28          C5-C4-C2-N1= 90.68            C5-C4-C2-C3=211.48            
C5-C4-C2-H17=336.03           C7-C4-C2-N1=272.87            C7-C4-C2-C3= 33.66            C7-C4-C2-H17=158.22           
C6-C5-C4-C2=181.51            C6-C5-C4-C7=359.38            H21-C5-C4-C2=  2.71           H21-C5-C4-C7=180.58           
C9-C6-C5-C4=  0.10            C9-C6-C5-H21=178.89           H22-C6-C5-C4=180.43           H22-C6-C5-H21=359.22          
C8-C7-C4-C2=178.73            C8-C7-C4-C5=  0.95            H23-C7-C4-C2=357.50           H23-C7-C4-C5=179.72           
C9-C8-C7-C4=359.24            C9-C8-C7-H23=180.42           C13-C8-C7-C4=179.09           C13-C8-C7-H23=  0.27          
C8-C9-C6-C5=  0.09            C8-C9-C6-H22=179.76           C10-C9-C6-C5=180.44           C10-C9-C6-H22=  0.12          
C6-C9-C8-C7=  0.24            C6-C9-C8-C13=180.38           C10-C9-C8-C7=179.89           C10-C9-C8-C13=  0.04          
C11-C10-C9-C6=179.49          C11-C10-C9-C8=359.85          H24-C10-C9-C6=359.70          H24-C10-C9-C8=180.06          
           -------------------------------------------------
          |                Final Singlepoint                |
           -------------------------------------------------

          ...................................................
          :                      SETUP                      :
          :.................................................:
          :  # basis functions                  66          :
          :  # atomic orbitals                  66          :
          :  # shells                           40          :
          :  # electrons                        66          :
          :  max. iterations                   250          :
          :  Hamiltonian                  GFN2-xTB          :
          :  restarted?                      false          :
          :  GBSA solvation                  false          :
          :  PC potential                    false          :
          :  electronic temp.          300.0000000     K    :
          :  accuracy                    1.0000000          :
          :  -> integral cutoff          0.2500000E+02      :
          :  -> integral neglect         0.1000000E-07      :
          :  -> SCF convergence          0.1000000E-05 Eh   :
          :  -> wf. convergence          0.1000000E-03 e    :
          :  Broyden damping             0.4000000          :
          ...................................................

 iter      E             dE          RMSdq      gap      omega  full diag
   1    -35.9657081 -0.359657E+02  0.583E-05    3.08       0.0  T
   2    -35.9657081 -0.320455E-10  0.388E-05    3.08     495.8  T
   3    -35.9657081 -0.295017E-10  0.181E-05    3.08    1065.7  T

   *** convergence criteria satisfied after 3 iterations ***

         #    Occupation            Energy/Eh            Energy/eV
      -------------------------------------------------------------
         1        2.0000           -0.8762920             -23.8451
       ...           ...                  ...                  ...
        27        2.0000           -0.5683117             -15.4645
        28        2.0000           -0.5563113             -15.1380
        29        2.0000           -0.5427241             -14.7683
        30        2.0000           -0.5279331             -14.3658
        31        2.0000           -0.5230181             -14.2320
        32        2.0000           -0.5148215             -14.0090
        33        2.0000           -0.4924651             -13.4007 (HOMO)
        34                         -0.3791273             -10.3166 (LUMO)
        35                         -0.3509483              -9.5498
        36                         -0.3034580              -8.2575
        37                         -0.2737725              -7.4497
        38                         -0.2323940              -6.3238
       ...                                ...                  ...
        66                          0.5860637              15.9476
      -------------------------------------------------------------
                  HL-Gap            0.1133378 Eh            3.0841 eV
             Fermi-level           -0.4357962 Eh          -11.8586 eV

 SCC (total)                   0 d,  0 h,  0 min,  0.014 sec
 SCC setup                      ...        0 min,  0.000 sec (  1.254%)
 Dispersion                     ...        0 min,  0.000 sec (  2.161%)
 classical contributions        ...        0 min,  0.000 sec (  0.520%)
 integral evaluation            ...        0 min,  0.002 sec ( 11.082%)
 iterations                     ...        0 min,  0.006 sec ( 45.611%)
 molecular gradient             ...        0 min,  0.005 sec ( 36.958%)
 printout                       ...        0 min,  0.000 sec (  1.649%)

         :::::::::::::::::::::::::::::::::::::::::::::::::::::
         ::                     SUMMARY                     ::
         :::::::::::::::::::::::::::::::::::::::::::::::::::::
         :: total energy             -35.324106277457 Eh    ::
         :: gradient norm              0.000729128858 Eh/a0 ::
         :: HOMO-LUMO gap              3.084079724715 eV    ::
         ::.................................................::
         :: SCC energy               -35.965708122400 Eh    ::
         :: -> isotropic ES            0.098041580516 Eh    ::
         :: -> anisotropic ES         -0.010284234362 Eh    ::
         :: -> anisotropic XC          0.024470706452 Eh    ::
         :: -> dispersion             -0.023934470046 Eh    ::
         :: repulsion energy           0.641538059122 Eh    ::
         :: add. restraining           0.000000000000 Eh    ::
         :: total charge               1.000000000000 e     ::
         :::::::::::::::::::::::::::::::::::::::::::::::::::::

           -------------------------------------------------
          |                Property Printout                |
           -------------------------------------------------

    * Orbital Energies and Occupations

         #    Occupation            Energy/Eh            Energy/eV
      -------------------------------------------------------------
         1        2.0000           -0.8762920             -23.8451
       ...           ...                  ...                  ...
        21        2.0000           -0.6090826             -16.5740
        22        2.0000           -0.6060678             -16.4919
        23        2.0000           -0.6015092             -16.3679
        24        2.0000           -0.5878457             -15.9961
        25        2.0000           -0.5811805             -15.8147
        26        2.0000           -0.5769401             -15.6993
        27        2.0000           -0.5683117             -15.4645
        28        2.0000           -0.5563113             -15.1380
        29        2.0000           -0.5427241             -14.7683
        30        2.0000           -0.5279331             -14.3658
        31        2.0000           -0.5230181             -14.2320
        32        2.0000           -0.5148215             -14.0090
        33        2.0000           -0.4924651             -13.4007 (HOMO)
        34                         -0.3791273             -10.3166 (LUMO)
        35                         -0.3509483              -9.5498
        36                         -0.3034580              -8.2575
        37                         -0.2737725              -7.4497
        38                         -0.2323940              -6.3238
        39                         -0.1726181              -4.6972
        40                         -0.1506832              -4.1003
        41                         -0.0943717              -2.5680
        42                         -0.0774140              -2.1065
        43                         -0.0609735              -1.6592
        44                         -0.0145369              -0.3956
       ...                                ...                  ...
        66                          0.5860637              15.9476
      -------------------------------------------------------------
                  HL-Gap            0.1133378 Eh            3.0841 eV
             Fermi-level           -0.4357962 Eh          -11.8586 eV

     #   Z          covCN         q      C6AA      α(0)
     1   7 N        3.483    -0.145    24.119     7.294
     2   6 C        3.783     0.025    20.177     6.399
     3   6 C        3.754    -0.138    23.209     6.870
     4   6 C        2.968    -0.024    28.611     8.774
     5   6 C        2.919    -0.050    29.239     8.867
     6   6 C        2.917    -0.027    28.684     8.782
     7   6 C        2.921    -0.044    29.102     8.847
     8   6 C        2.986     0.017    27.634     8.623
     9   6 C        2.987     0.020    27.552     8.610
    10   6 C        2.917    -0.029    28.723     8.789
    11   6 C        2.916    -0.017    28.432     8.744
    12   6 C        2.916    -0.018    28.463     8.749
    13   6 C        2.918    -0.032    28.805     8.801
    14   1 H        0.859     0.263     0.834     1.431
    15   1 H        0.859     0.266     0.823     1.421
    16   1 H        0.859     0.264     0.832     1.428
    17   1 H        0.924     0.091     1.868     2.138
    18   1 H        0.925     0.069     2.096     2.264
    19   1 H        0.925     0.067     2.121     2.277
    20   1 H        0.925     0.098     1.803     2.100
    21   1 H        0.926     0.034     2.531     2.488
    22   1 H        0.926     0.057     2.230     2.335
    23   1 H        0.926     0.043     2.414     2.430
    24   1 H        0.926     0.053     2.284     2.363
    25   1 H        0.926     0.057     2.229     2.335
    26   1 H        0.926     0.056     2.248     2.345
    27   1 H        0.926     0.045     2.383     2.414

 Mol. C6AA /au·bohr⁶  :       7495.751362
 Mol. C8AA /au·bohr⁸  :     181588.031982
 Mol. α(0) /au        :        137.916521


Wiberg/Mayer (AO) data.
largest (>0.10) Wiberg bond orders for each atom

 ---------------------------------------------------------------------------
     #   Z sym  total        # sym  WBO       # sym  WBO       # sym  WBO
 ---------------------------------------------------------------------------
     1   7 N    3.661 --    16 H    0.915    14 H    0.914    15 H    0.912
                             2 C    0.867
     2   6 C    3.884 --     3 C    1.017     4 C    0.994    17 H    0.959
                             1 N    0.867
     3   6 C    3.980 --     2 C    1.017    19 H    0.980    18 H    0.977
                            20 H    0.969
     4   6 C    3.971 --     7 C    1.511     5 C    1.290     2 C    0.994
     5   6 C    3.990 --     6 C    1.559     4 C    1.290    21 H    0.968
     6   6 C    3.989 --     5 C    1.559     9 C    1.281    22 H    0.966
                             7 C    0.110
     7   6 C    3.991 --     4 C    1.511     8 C    1.291    23 H    0.963
                             6 C    0.110
     8   6 C    3.991 --     7 C    1.291    13 C    1.276     9 C    1.242
     9   6 C    3.990 --    10 C    1.283     6 C    1.281     8 C    1.242
    10   6 C    3.990 --    11 C    1.555     9 C    1.283    24 H    0.967
                            13 C    0.117
    11   6 C    3.986 --    10 C    1.555    12 C    1.319    25 H    0.969
    12   6 C    3.990 --    13 C    1.558    11 C    1.319    26 H    0.969
    13   6 C    3.990 --    12 C    1.558     8 C    1.276    27 H    0.967
                            10 C    0.117
    14   1 H    0.930 --     1 N    0.914
    15   1 H    0.929 --     1 N    0.912
    16   1 H    0.930 --     1 N    0.915
    17   1 H    0.991 --     2 C    0.959
    18   1 H    0.995 --     3 C    0.977
    19   1 H    0.995 --     3 C    0.980
    20   1 H    0.990 --     3 C    0.969
    21   1 H    0.998 --     5 C    0.968
    22   1 H    0.996 --     6 C    0.966
    23   1 H    0.998 --     7 C    0.963
    24   1 H    0.997 --    10 C    0.967
    25   1 H    0.996 --    11 C    0.969
    26   1 H    0.996 --    12 C    0.969
    27   1 H    0.997 --    13 C    0.967
 ---------------------------------------------------------------------------

Topologies differ in total number of bonds
Writing topology from bond orders to xtbtopo.mol

molecular dipole:
                 x           y           z       tot (Debye)
 q only:        3.472       0.425       1.617
   full:        3.229       0.477       1.545       9.179
molecular quadrupole (traceless):
                xx          xy          yy          xz          yz          zz
 q only:        7.082      -0.461     -12.614      20.606      -6.723       5.532
  q+dip:        0.635       1.003      -8.360      23.346      -6.399       7.725
   full:        4.237      -0.123     -10.463      20.956      -6.280       6.226

           -------------------------------------------------
          |                Geometry Summary                 |
           -------------------------------------------------

      molecular mass/u    :      172.2467045
   center of mass at/Å    :        3.4554718      -0.7260322       2.6210900
  moments of inertia/u·Å² :        0.2627712E+03   0.1058774E+04   0.1229440E+04
rotational constants/cm⁻¹ :        0.6415326E-01   0.1592184E-01   0.1371164E-01

 * 27 selected distances

     #   Z          #   Z                                           value/Å
     1   7 N        2   6 C                                       1.5290946 (max)
     2   6 C        3   6 C                                       1.5161740
     4   6 C        5   6 C                                       1.4112411
     5   6 C        6   6 C                                       1.3654063
     4   6 C        7   6 C                                       1.3732919
     7   6 C        8   6 C                                       1.4085155
     6   6 C        9   6 C                                       1.4102244
     8   6 C        9   6 C                                       1.4213208
     9   6 C       10   6 C                                       1.4096530
    10   6 C       11   6 C                                       1.3675203
    11   6 C       12   6 C                                       1.4045502
     8   6 C       13   6 C                                       1.4109153
    12   6 C       13   6 C                                       1.3668987
     1   7 N       14   1 H                                       1.0275224
     1   7 N       15   1 H                                       1.0283505
     1   7 N       16   1 H                                       1.0273747 (min)
     2   6 C       17   1 H                                       1.0940283
     3   6 C       18   1 H                                       1.0866715
     3   6 C       19   1 H                                       1.0876089
     3   6 C       20   1 H                                       1.0862297
     5   6 C       21   1 H                                       1.0807898
     6   6 C       22   1 H                                       1.0790749
     7   6 C       23   1 H                                       1.0798523
    10   6 C       24   1 H                                       1.0794978
    11   6 C       25   1 H                                       1.0789889
    12   6 C       26   1 H                                       1.0790118
    13   6 C       27   1 H                                       1.0801101

 * 4 distinct bonds (by element types)

   Z      Z             #   av. dist./Å        max./Å        min./Å
   1 H    6 C          11     1.0828967     1.0940283     1.0789889
   6 C    6 C          12     1.4054760     1.5161740     1.3654063
   1 H    7 N           3     1.0277492     1.0283505     1.0273747
   6 C    7 N           1     1.5290946     1.5290946     1.5290946


optimized geometry written to: xtbopt.xyz


           -------------------------------------------------
          | TOTAL ENERGY              -35.324106277457 Eh   |
          | GRADIENT NORM               0.000729128858 Eh/α |
          | HOMO-LUMO GAP               3.084079724715 eV   |
           -------------------------------------------------

------------------------------------------------------------------------
 * finished run on 2023/01/23 at 21:07:37.755     
------------------------------------------------------------------------
 total:
 * wall-time:     0 d,  0 h,  0 min,  0.336 sec
 *  cpu-time:     0 d,  0 h,  0 min, 33.194 sec
 * ratio c/w:    98.908 speedup
 SCF:
 * wall-time:     0 d,  0 h,  0 min,  0.066 sec
 *  cpu-time:     0 d,  0 h,  0 min,  8.443 sec
 * ratio c/w:   127.076 speedup
 ANC optimizer:
 * wall-time:     0 d,  0 h,  0 min,  0.244 sec
 *  cpu-time:     0 d,  0 h,  0 min, 21.768 sec
 * ratio c/w:    89.100 speedup

