27
 energy: -35.324106277457 gnorm: 0.000729128858 xtb: 6.5.1 (fef0646)
N            1.12744407793070        0.45979555496520        0.16243190228943
C            2.57176872471740       -0.00229661512271       -0.03385113516838
C            3.38140571611365        1.18291462283584       -0.52226222703581
C            3.02084026911476       -0.62180087850756        1.26405503445420
C            2.82401182331436       -2.00793333760793        1.44152743843442
C            3.18320695041280       -2.61787922101798        2.60912283870776
C            3.56749735612904        0.12067987976691        2.28180684462401
C            3.95397238755918       -0.48238435996886        3.49459956389022
C            3.75649322652486       -1.87956165805583        3.66504064064290
C            4.14579100966380       -2.48263333568977        4.87824841999078
C            4.70813731200727       -1.73455555553706        5.87537315397789
C            4.90446498130464       -0.35407588076840        5.70657681592477
C            4.53452897896677        0.26148824457657        4.54354630699258
H            0.74887186400155        0.87311475663647       -0.69876056645111
H            1.10860692087118        1.16664350341900        0.90910169572702
H            0.54185505534364       -0.33330996151677        0.45151288188750
H            2.54291663294237       -0.77275961089999       -0.81002900985551
H            3.31648187364252        2.02688548643459        0.15917220759863
H            3.04898493294563        1.50153784268902       -1.50758887260710
H            4.42608358199619        0.89577516620745       -0.60032553469636
H            2.40230362186233       -2.59074824764585        0.63493250317009
H            3.03631633298365       -3.67939620305016        2.73564225496544
H            3.73423745306645        1.18211817645454        2.17397746868129
H            3.99503611577846       -3.54417629006366        5.00360688114278
H            5.00815855782258       -2.20077317998939        6.80103250455432
H            5.35222087652080        0.21742313356610        6.50480595776669
H            4.68701336646345        1.32249796789024        4.41071403039150
