 Entering Gaussian System
 *********************************************
 Gaussian 98:
 frequency output generated by the xtb code
 *********************************************
                         Standard orientation:
 --------------------------------------------------------------------
  Center     Atomic     Atomic              Coordinates (Angstroms)
  Number     Number      Type              X           Y           Z
 --------------------------------------------------------------------
    1          7             0       -3.869283   -0.480050   -0.039926
    2          6             0       -2.456255   -0.539258   -0.516921
    3          6             0       -1.505508    0.251089    0.375215
    4          6             0       -0.046339    0.298200   -0.127190
    5          6             0        0.640814   -1.090934   -0.107160
    6          6             0        2.090753   -1.018762   -0.619966
    7          6             0        2.918621    0.002795    0.178620
    8          6             0        2.249608    1.387709    0.170580
    9          6             0        0.801479    1.310467    0.684825
   10          1             0       -3.956322   -0.860058    0.913835
   11          1             0       -4.502858   -1.020138   -0.648463
   12          1             0       -4.214198    0.490742   -0.017986
   13          1             0       -2.405476   -0.157650   -1.543491
   14          1             0       -2.140411   -1.587030   -0.574500
   15          1             0       -1.523156   -0.162260    1.388806
   16          1             0       -1.885092    1.273761    0.476714
   17          1             0       -0.060661    0.644308   -1.172361
   18          1             0        0.062218   -1.814322   -0.693337
   19          1             0        0.633096   -1.473492    0.919140
   20          1             0        2.088580   -0.735914   -1.679366
   21          1             0        2.562628   -2.009995   -0.584805
   22          1             0        3.941870    0.064969   -0.215884
   23          1             0        3.026373   -0.344164    1.213230
   24          1             0        2.252977    1.787877   -0.850291
   25          1             0        2.833504    2.103017    0.765457
   26          1             0        0.328424    2.300040    0.668275
   27          1             0        0.801831    1.005719    1.736936
 --------------------------------------------------------------------
     1 basis functions        1 primitive gaussians
     1 alpha electrons        1 beta electrons

 Harmonic frequencies (cm**-1), IR intensities (km*mol⁻¹),
 Raman scattering activities (A**4/amu), Raman depolarization ratios,
 reduced masses (AMU), force constants (mDyne/A) and normal coordinates:
                      1                      2                      3
                        a                      a                      a 
 Frequencies --    87.3039                98.7270               139.1711
 Red. masses --     6.0387                 9.3137                 9.2533
 Frc consts  --     0.0000                 0.0000                 0.0000
 IR Inten    --     2.2221                12.2284                 9.9999
 Raman Activ --     0.0000                 0.0000                 0.0000
 Depolar     --     0.0000                 0.0000                 0.0000
 Atom AN      X      Y      Z        X      Y      Z        X      Y      Z
   1   7    -0.02   0.19  -0.10     0.10  -0.37   0.32     0.10  -0.31  -0.29
   2   6     0.09  -0.44   0.31    -0.01   0.05  -0.05     0.19   0.03   0.01
   3   6    -0.00   0.09  -0.05    -0.02   0.31  -0.27    -0.07   0.26   0.08
   4   6    -0.00   0.07  -0.05     0.01   0.18  -0.20    -0.01   0.14   0.23
   5   6    -0.04   0.05  -0.20    -0.13   0.11  -0.21    -0.15   0.08   0.26
   6   6    -0.01   0.08  -0.12    -0.05  -0.02   0.02    -0.26  -0.06  -0.07
   7   6    -0.02  -0.03   0.02    -0.05  -0.17   0.22    -0.02  -0.08  -0.29
   8   6     0.02  -0.01   0.13     0.12  -0.09   0.16     0.05  -0.04  -0.07
   9   6     0.00  -0.03   0.07     0.03   0.06  -0.07     0.14   0.03   0.21
  10   1    -0.09   0.28   0.06     0.13  -0.10   0.09     0.00  -0.06  -0.07
  11   1     0.01  -0.07   0.06     0.03  -0.15   0.13     0.10  -0.15  -0.09
  12   1     0.04   0.07  -0.28    -0.05  -0.13   0.11    -0.05  -0.11  -0.13
  13   1     0.12  -0.34   0.01    -0.10   0.01  -0.02     0.08  -0.01  -0.00
  14   1    -0.03  -0.15   0.33     0.08   0.04  -0.03     0.12   0.03   0.04
  15   1     0.01   0.16   0.04    -0.01   0.16  -0.05    -0.06   0.13   0.04
  16   1    -0.04   0.03  -0.15    -0.01   0.10  -0.15    -0.03   0.08  -0.05
  17   1     0.00   0.05  -0.01     0.03   0.07  -0.05     0.02   0.04   0.07
  18   1    -0.01   0.05  -0.10    -0.03   0.06  -0.10    -0.08   0.01   0.13
  19   1    -0.03  -0.03  -0.07    -0.10   0.01  -0.07     0.01   0.05   0.09
  20   1     0.01   0.06  -0.03     0.04   0.02   0.01    -0.14  -0.03  -0.02
  21   1    -0.01   0.02  -0.06    -0.05  -0.02   0.01    -0.09  -0.02  -0.04
  22   1     0.00  -0.00   0.02     0.01  -0.08   0.11    -0.03  -0.03  -0.16
  23   1    -0.02  -0.04  -0.00    -0.08  -0.07   0.06     0.07  -0.03  -0.09
  24   1     0.02   0.02   0.05     0.09  -0.02   0.05    -0.04   0.01  -0.01
  25   1     0.00  -0.02   0.06     0.03  -0.05   0.08     0.06  -0.03  -0.04
  26   1     0.01  -0.00   0.05     0.04   0.03  -0.03     0.06   0.02   0.10
  27   1    -0.01  -0.04   0.01    -0.05   0.01  -0.02     0.09  -0.02   0.05
                      4                      5                      6
                        a                      a                      a 
 Frequencies --   194.5102               211.7912               250.0663
 Red. masses --     6.7457                 3.1563                 6.3741
 Frc consts  --     0.0000                 0.0000                 0.0000
 IR Inten    --     2.3812                 0.5953                 0.2548
 Raman Activ --     0.0000                 0.0000                 0.0000
 Depolar     --     0.0000                 0.0000                 0.0000
 Atom AN      X      Y      Z        X      Y      Z        X      Y      Z
   1   7     0.03  -0.09  -0.19    -0.00  -0.07  -0.07     0.05  -0.00  -0.00
   2   6     0.15  -0.07   0.21     0.02   0.19  -0.03     0.05   0.05   0.02
   3   6     0.05  -0.10   0.34     0.04  -0.15   0.25     0.00   0.09   0.02
   4   6    -0.07   0.15   0.01    -0.04   0.04   0.03     0.00   0.07   0.03
   5   6    -0.12   0.12  -0.19    -0.03   0.03  -0.11    -0.12  -0.01  -0.30
   6   6    -0.06   0.00  -0.02     0.01  -0.00  -0.00     0.12  -0.16   0.27
   7   6    -0.10  -0.14   0.19    -0.04  -0.06   0.11    -0.01   0.15   0.03
   8   6     0.09  -0.05  -0.11     0.03  -0.03  -0.08    -0.17   0.06  -0.30
   9   6     0.04   0.22  -0.19     0.02   0.09  -0.09     0.07  -0.20   0.25
  10   1    -0.13  -0.27  -0.16     0.10   0.37   0.15     0.01  -0.03  -0.01
  11   1     0.02   0.19  -0.26     0.10  -0.41   0.22     0.02   0.01  -0.02
  12   1     0.09   0.00   0.17    -0.21  -0.08  -0.43     0.01  -0.00   0.02
  13   1     0.11  -0.01   0.07     0.01   0.14   0.02     0.02   0.01   0.00
  14   1     0.04  -0.02   0.06     0.02   0.06  -0.10     0.03   0.02   0.01
  15   1     0.08  -0.09   0.07     0.05  -0.18   0.02    -0.00   0.04   0.01
  16   1    -0.03  -0.05   0.17     0.01  -0.06   0.22     0.00   0.03  -0.01
  17   1    -0.10   0.05   0.01    -0.06   0.02   0.01     0.01   0.10   0.03
  18   1    -0.04   0.08  -0.11    -0.01   0.04  -0.07     0.01   0.09  -0.24
  19   1    -0.07  -0.02  -0.07    -0.03  -0.03  -0.05    -0.17  -0.12  -0.13
  20   1     0.03   0.03   0.00     0.03   0.01   0.00     0.14  -0.17   0.04
  21   1    -0.05  -0.02  -0.01    -0.01  -0.01   0.00     0.02  -0.05   0.24
  22   1     0.01  -0.09   0.14     0.01  -0.04   0.08    -0.01   0.03  -0.00
  23   1    -0.13  -0.03   0.07    -0.07  -0.01   0.04     0.01   0.13   0.04
  24   1     0.07  -0.07  -0.05     0.02  -0.05  -0.04    -0.18  -0.09  -0.12
  25   1     0.04  -0.00  -0.05     0.01   0.01  -0.05    -0.02   0.10  -0.21
  26   1     0.04   0.08  -0.13     0.01   0.03  -0.06    -0.02  -0.07   0.24
  27   1    -0.01   0.14  -0.03     0.00   0.06  -0.01     0.14  -0.19   0.03
                      7                      8                      9
                        a                      a                      a 
 Frequencies --   281.7887               323.6652               348.1856
 Red. masses --    10.3222                 7.8659                 7.0560
 Frc consts  --     0.0000                 0.0000                 0.0000
 IR Inten    --    13.4694                 0.9404                 0.8138
 Raman Activ --     0.0000                 0.0000                 0.0000
 Depolar     --     0.0000                 0.0000                 0.0000
 Atom AN      X      Y      Z        X      Y      Z        X      Y      Z
   1   7    -0.54  -0.19  -0.13    -0.03   0.04   0.06     0.05  -0.03  -0.06
   2   6    -0.32   0.09   0.19    -0.11  -0.24  -0.17     0.13   0.17   0.19
   3   6    -0.13   0.12   0.06    -0.05  -0.31  -0.08     0.12   0.13   0.16
   4   6    -0.03   0.00  -0.02    -0.05   0.32  -0.06    -0.02  -0.11  -0.18
   5   6     0.14   0.06  -0.04    -0.11   0.32   0.01    -0.09  -0.15  -0.13
   6   6     0.22   0.05   0.05    -0.04  -0.16   0.18     0.01  -0.22   0.13
   7   6     0.32   0.01   0.00     0.17  -0.04  -0.19     0.02   0.12  -0.24
   8   6     0.21  -0.05  -0.01     0.14  -0.03   0.11    -0.06   0.11   0.30
   9   6     0.16  -0.07  -0.05     0.07   0.15   0.08    -0.20  -0.01  -0.18
  10   1    -0.22  -0.08  -0.05     0.03   0.04   0.03    -0.03  -0.02  -0.03
  11   1    -0.04  -0.08  -0.11    -0.08   0.04   0.07     0.08  -0.03  -0.06
  12   1    -0.21  -0.07  -0.04     0.05   0.03   0.02    -0.04  -0.02  -0.03
  13   1    -0.09   0.01   0.05    -0.04  -0.06  -0.04     0.06   0.06   0.06
  14   1    -0.07   0.03   0.06    -0.08  -0.08  -0.07     0.06   0.06   0.05
  15   1    -0.03   0.07   0.03     0.05  -0.21  -0.07     0.07   0.04   0.05
  16   1    -0.00   0.05  -0.01    -0.11  -0.14   0.11     0.07   0.05   0.06
  17   1    -0.03   0.00  -0.00    -0.02   0.13  -0.00    -0.03  -0.05  -0.06
  18   1     0.07   0.01  -0.02    -0.05   0.10   0.01     0.00  -0.03  -0.09
  19   1     0.03   0.01  -0.01    -0.09   0.13   0.02    -0.10  -0.06  -0.04
  20   1     0.08   0.01   0.01     0.04  -0.18   0.01     0.04  -0.21  -0.00
  21   1     0.04   0.00   0.02    -0.08  -0.07   0.19     0.02  -0.05   0.19
  22   1     0.08   0.01  -0.03    -0.00   0.01  -0.18    -0.05   0.10  -0.21
  23   1     0.12   0.01  -0.00     0.19  -0.00  -0.07     0.18   0.02  -0.09
  24   1     0.07  -0.01  -0.00     0.05   0.05   0.06     0.08   0.20   0.15
  25   1     0.03   0.00   0.01     0.06  -0.06   0.07    -0.06  -0.08   0.25
  26   1     0.07  -0.01   0.01     0.08   0.07   0.05    -0.07  -0.01  -0.13
  27   1     0.05  -0.04  -0.02    -0.01   0.01   0.01    -0.15   0.04  -0.04
                     10                     11                     12
                        a                      a                      a 
 Frequencies --   429.5622               436.6194               462.6751
 Red. masses --     9.2461                 8.0397                 7.9228
 Frc consts  --     0.0000                 0.0000                 0.0000
 IR Inten    --     0.0442                 0.5645                 1.9168
 Raman Activ --     0.0000                 0.0000                 0.0000
 Depolar     --     0.0000                 0.0000                 0.0000
 Atom AN      X      Y      Z        X      Y      Z        X      Y      Z
   1   7     0.01   0.00   0.01    -0.13  -0.02   0.02     0.22   0.06   0.02
   2   6    -0.02  -0.07  -0.07    -0.12  -0.05  -0.09     0.07  -0.03  -0.13
   3   6    -0.03  -0.09  -0.01    -0.02  -0.03  -0.10    -0.33   0.08   0.11
   4   6    -0.02  -0.15   0.01     0.23  -0.07   0.40    -0.28  -0.09   0.24
   5   6    -0.32  -0.23   0.02     0.05  -0.24  -0.12    -0.03  -0.01  -0.08
   6   6    -0.30   0.24   0.20     0.06  -0.19  -0.09     0.10   0.15   0.08
   7   6     0.03   0.16   0.04    -0.15   0.01  -0.10     0.37  -0.03   0.01
   8   6     0.35   0.28  -0.02     0.07   0.15   0.03    -0.03  -0.24  -0.01
   9   6     0.30  -0.14  -0.16     0.08   0.40   0.15    -0.13   0.01  -0.09
  10   1     0.02   0.01   0.01    -0.02  -0.01   0.01     0.12   0.03   0.02
  11   1    -0.02   0.01   0.02    -0.05  -0.00   0.02    -0.02   0.04   0.07
  12   1     0.02   0.01   0.00    -0.03  -0.01   0.01     0.11   0.03   0.03
  13   1    -0.01  -0.01  -0.02    -0.05  -0.02  -0.03     0.04  -0.00  -0.03
  14   1    -0.02  -0.02  -0.03    -0.05  -0.02  -0.02     0.05   0.00  -0.03
  15   1    -0.02  -0.04  -0.01    -0.11   0.05  -0.00    -0.20   0.08   0.05
  16   1    -0.01  -0.03   0.01     0.02   0.01  -0.12    -0.09   0.04  -0.07
  17   1    -0.01  -0.07  -0.01     0.11  -0.01   0.11    -0.12  -0.03   0.06
  18   1    -0.03  -0.01  -0.11    -0.03   0.08  -0.18     0.06   0.05  -0.15
  19   1    -0.18  -0.15  -0.03    -0.03  -0.25  -0.11    -0.06  -0.13  -0.07
  20   1    -0.14   0.14   0.07     0.03  -0.11  -0.04     0.02   0.11   0.04
  21   1    -0.03   0.09  -0.04     0.06  -0.03   0.04    -0.01   0.02  -0.06
  22   1    -0.00  -0.07  -0.04    -0.03  -0.00   0.00     0.05   0.06  -0.13
  23   1     0.02   0.08   0.02    -0.07   0.00  -0.02     0.25  -0.02  -0.02
  24   1     0.17   0.14   0.02     0.02   0.07   0.02    -0.02  -0.13  -0.03
  25   1     0.05   0.04   0.08     0.09  -0.01   0.01    -0.05   0.01  -0.05
  26   1     0.03  -0.06   0.02    -0.00   0.10  -0.16     0.02   0.03  -0.18
  27   1     0.15  -0.08  -0.06     0.01   0.31   0.10    -0.09   0.16   0.02
                     13                     14                     15
                        a                      a                      a 
 Frequencies --   568.6530               782.2179               813.1991
 Red. masses --     6.4259                 3.2726                 5.3925
 Frc consts  --     0.0000                 0.0000                 0.0000
 IR Inten    --     3.7105                20.7188                 5.0111
 Raman Activ --     0.0000                 0.0000                 0.0000
 Depolar     --     0.0000                 0.0000                 0.0000
 Atom AN      X      Y      Z        X      Y      Z        X      Y      Z
   1   7    -0.12  -0.02   0.00    -0.02  -0.01   0.03    -0.02   0.04  -0.01
   2   6    -0.00   0.04   0.09     0.04  -0.14   0.10    -0.01   0.08  -0.04
   3   6     0.35  -0.06  -0.16     0.16  -0.21   0.05     0.10  -0.04  -0.05
   4   6     0.26   0.03  -0.10     0.06  -0.07   0.07     0.04  -0.20   0.13
   5   6    -0.13  -0.07   0.04     0.01   0.24  -0.02    -0.09   0.22  -0.11
   6   6    -0.18   0.16   0.16    -0.09   0.09   0.04    -0.16   0.27  -0.04
   7   6     0.15  -0.03   0.05    -0.03  -0.01  -0.02    -0.03   0.13  -0.06
   8   6    -0.16  -0.19   0.03    -0.02  -0.05  -0.02     0.06  -0.11   0.07
   9   6    -0.10   0.10   0.12    -0.01  -0.08  -0.05     0.11  -0.30   0.03
  10   1    -0.09  -0.03  -0.01    -0.19   0.08   0.02     0.11  -0.07  -0.02
  11   1     0.04  -0.03  -0.05     0.02   0.03  -0.04     0.04  -0.05   0.00
  12   1    -0.08  -0.02  -0.02     0.10   0.04  -0.12    -0.14  -0.04   0.08
  13   1    -0.03  -0.00   0.02    -0.05   0.39   0.18     0.05  -0.16  -0.07
  14   1    -0.03   0.00   0.02    -0.05  -0.03  -0.43    -0.04  -0.00   0.18
  15   1     0.19  -0.06  -0.06    -0.06   0.33   0.17    -0.04  -0.05  -0.03
  16   1     0.10  -0.03   0.03     0.06  -0.01  -0.42     0.11   0.02   0.01
  17   1     0.16   0.01  -0.03    -0.04  -0.00   0.02     0.03   0.02   0.06
  18   1    -0.02   0.06  -0.10    -0.01   0.08  -0.02    -0.03  -0.02   0.07
  19   1    -0.15  -0.09  -0.02    -0.01   0.05  -0.01     0.11   0.12  -0.00
  20   1    -0.14   0.22   0.09     0.03  -0.04  -0.01     0.13  -0.23  -0.09
  21   1    -0.04   0.05  -0.16    -0.08   0.00   0.09    -0.11   0.06   0.34
  22   1    -0.04   0.06  -0.19    -0.01  -0.02  -0.00     0.02  -0.03   0.06
  23   1     0.26  -0.01  -0.01    -0.02  -0.00  -0.01    -0.12  -0.02  -0.02
  24   1    -0.16  -0.21  -0.06     0.02   0.01   0.01    -0.09  -0.08  -0.00
  25   1    -0.01   0.06  -0.17    -0.02  -0.03   0.03    -0.01   0.05  -0.06
  26   1    -0.00   0.04  -0.10    -0.01  -0.03  -0.04     0.06  -0.07  -0.33
  27   1    -0.12   0.12   0.06     0.00   0.00  -0.01    -0.11   0.21   0.09
                     16                     17                     18
                        a                      a                      a 
 Frequencies --   817.3275               860.0978               879.6039
 Red. masses --     5.8077                 3.2528                 7.3804
 Frc consts  --     0.0000                 0.0000                 0.0000
 IR Inten    --     4.2436                12.4581                10.7690
 Raman Activ --     0.0000                 0.0000                 0.0000
 Depolar     --     0.0000                 0.0000                 0.0000
 Atom AN      X      Y      Z        X      Y      Z        X      Y      Z
   1   7     0.03  -0.03  -0.01     0.04  -0.14   0.08    -0.11  -0.08  -0.04
   2   6    -0.01  -0.06   0.04    -0.00  -0.06   0.05     0.00  -0.06  -0.09
   3   6    -0.10   0.02   0.06    -0.09   0.20  -0.10    -0.03   0.12   0.13
   4   6    -0.09  -0.04  -0.21    -0.01   0.05  -0.01     0.09   0.03  -0.01
   5   6    -0.16  -0.27  -0.21    -0.02  -0.06   0.11     0.22  -0.02  -0.10
   6   6    -0.05  -0.08  -0.14     0.05   0.11  -0.00    -0.02   0.15   0.15
   7   6     0.06   0.07   0.15     0.04   0.09  -0.15    -0.50   0.04   0.06
   8   6     0.18   0.19   0.19    -0.00  -0.13  -0.02    -0.08  -0.24   0.05
   9   6     0.10   0.11   0.19     0.04  -0.14   0.06     0.25  -0.01  -0.12
  10   1    -0.06   0.05   0.02    -0.37   0.14   0.06     0.05   0.06   0.03
  11   1    -0.03   0.03   0.00    -0.04   0.12  -0.07    -0.21   0.06   0.11
  12   1     0.12   0.03  -0.06     0.36   0.09  -0.21     0.15   0.04  -0.00
  13   1    -0.03   0.11   0.06    -0.23   0.07   0.03    -0.00  -0.01  -0.02
  14   1     0.03   0.00  -0.13     0.22   0.06  -0.11     0.07   0.01  -0.02
  15   1     0.01   0.05   0.03     0.11  -0.17  -0.12    -0.01  -0.00   0.02
  16   1    -0.06  -0.00  -0.02    -0.09   0.00   0.24    -0.00   0.03   0.07
  17   1    -0.05   0.06  -0.03     0.12   0.00  -0.01    -0.02   0.01  -0.00
  18   1    -0.08  -0.28   0.24     0.06   0.01  -0.07     0.09  -0.05   0.01
  19   1     0.15   0.21   0.05    -0.07  -0.09   0.00     0.11   0.03  -0.01
  20   1     0.08  -0.06  -0.05    -0.04  -0.08  -0.03     0.07   0.06   0.04
  21   1     0.03  -0.00   0.04     0.05   0.05   0.08     0.08   0.08   0.08
  22   1    -0.03   0.03  -0.08     0.09  -0.03   0.15    -0.26   0.13  -0.29
  23   1     0.14  -0.04   0.00    -0.21   0.02  -0.02     0.21  -0.00  -0.03
  24   1    -0.15  -0.23  -0.06    -0.07   0.04   0.03     0.05  -0.09   0.00
  25   1     0.12   0.24  -0.25    -0.00  -0.06   0.02     0.03  -0.12   0.02
  26   1     0.02   0.03  -0.05     0.08  -0.01  -0.16     0.12   0.02  -0.01
  27   1    -0.09   0.08   0.06    -0.10   0.11   0.06     0.10  -0.02  -0.04
                     19                     20                     21
                        a                      a                      a 
 Frequencies --   903.5748               914.6613               926.5773
 Red. masses --     5.1345                 6.2984                 4.3759
 Frc consts  --     0.0000                 0.0000                 0.0000
 IR Inten    --    36.1497                 5.5974                 3.8562
 Raman Activ --     0.0000                 0.0000                 0.0000
 Depolar     --     0.0000                 0.0000                 0.0000
 Atom AN      X      Y      Z        X      Y      Z        X      Y      Z
   1   7    -0.29  -0.09  -0.16     0.11   0.12  -0.03     0.01   0.03   0.03
   2   6     0.08  -0.12  -0.14    -0.05  -0.00   0.10     0.02  -0.02  -0.00
   3   6     0.12   0.13   0.26    -0.12  -0.11   0.01     0.01  -0.01  -0.03
   4   6     0.12   0.08  -0.10    -0.14   0.10  -0.26     0.02   0.11   0.08
   5   6    -0.09  -0.02   0.09     0.07  -0.19   0.08    -0.19  -0.07  -0.17
   6   6     0.03  -0.07  -0.04     0.11   0.16   0.16     0.13  -0.20   0.06
   7   6     0.16   0.06  -0.07    -0.15   0.09  -0.24     0.02   0.12   0.07
   8   6    -0.04   0.02   0.03     0.08  -0.23   0.01    -0.17  -0.08  -0.18
   9   6    -0.01  -0.10   0.02     0.09   0.09   0.18     0.16  -0.19   0.05
  10   1     0.33   0.04   0.02     0.14  -0.08  -0.04    -0.03  -0.02  -0.01
  11   1    -0.46   0.05   0.29     0.15  -0.08  -0.04     0.07  -0.02  -0.03
  12   1     0.11   0.04   0.11    -0.21  -0.05   0.08    -0.06  -0.01   0.00
  13   1     0.17   0.04   0.00     0.11   0.08   0.07     0.01   0.02   0.01
  14   1    -0.00  -0.04  -0.07    -0.14  -0.04  -0.05    -0.05  -0.02  -0.03
  15   1     0.11   0.12   0.11     0.04   0.10   0.05    -0.00   0.01  -0.00
  16   1     0.01   0.03  -0.00    -0.12  -0.05  -0.11    -0.05  -0.02  -0.03
  17   1     0.03   0.02  -0.02    -0.04   0.03  -0.06     0.03   0.25   0.09
  18   1    -0.03   0.04  -0.03     0.16  -0.09  -0.07    -0.12  -0.15   0.19
  19   1    -0.12  -0.01   0.02    -0.14  -0.03   0.03     0.02   0.24   0.05
  20   1    -0.10  -0.02  -0.01    -0.12   0.00   0.03     0.04   0.23   0.09
  21   1     0.03  -0.01  -0.06     0.19   0.12   0.03     0.06  -0.05  -0.24
  22   1     0.11  -0.01   0.16     0.02  -0.03   0.09    -0.00   0.06   0.01
  23   1    -0.15   0.02   0.00    -0.21   0.04  -0.04     0.04   0.25   0.09
  24   1    -0.11   0.02   0.02    -0.11   0.01   0.03     0.03   0.25   0.06
  25   1    -0.03   0.04  -0.02     0.17  -0.14  -0.04    -0.11  -0.16   0.19
  26   1     0.03  -0.01  -0.09     0.19   0.10  -0.02     0.08  -0.04  -0.24
  27   1    -0.12   0.03   0.02    -0.14   0.04   0.05     0.05   0.23   0.09
                     22                     23                     24
                        a                      a                      a 
 Frequencies --   947.4024               963.9541               988.5758
 Red. masses --     6.8852                 7.4518                 9.9092
 Frc consts  --     0.0000                 0.0000                 0.0000
 IR Inten    --     3.4233                12.2046                14.2317
 Raman Activ --     0.0000                 0.0000                 0.0000
 Depolar     --     0.0000                 0.0000                 0.0000
 Atom AN      X      Y      Z        X      Y      Z        X      Y      Z
   1   7    -0.03  -0.07  -0.04     0.17   0.00  -0.04     0.40  -0.10  -0.29
   2   6    -0.01   0.06   0.00    -0.18   0.02   0.06    -0.63   0.02   0.25
   3   6     0.02  -0.00   0.02    -0.18  -0.02   0.06     0.03   0.02   0.01
   4   6    -0.06  -0.21  -0.10     0.12  -0.00  -0.07     0.08  -0.04  -0.00
   5   6     0.21   0.09  -0.19     0.21   0.27   0.09    -0.07  -0.01  -0.01
   6   6    -0.10   0.08   0.28     0.02  -0.29   0.03    -0.02   0.06  -0.03
   7   6    -0.01  -0.25  -0.12    -0.19  -0.01  -0.00     0.07   0.01   0.04
   8   6     0.15   0.15  -0.19     0.08   0.25   0.17    -0.07  -0.07  -0.06
   9   6    -0.22   0.06   0.27     0.13  -0.30  -0.06    -0.00   0.07   0.02
  10   1     0.02   0.04   0.02     0.02  -0.01  -0.01     0.26   0.02  -0.04
  11   1    -0.12   0.04   0.06     0.08  -0.01  -0.04    -0.06   0.01   0.05
  12   1     0.13   0.03  -0.02     0.02  -0.00  -0.02     0.21   0.02  -0.02
  13   1    -0.01  -0.04  -0.02    -0.04  -0.00   0.01    -0.08   0.03   0.08
  14   1     0.11   0.05   0.07    -0.03   0.01   0.02    -0.13   0.02   0.02
  15   1    -0.04  -0.01   0.00    -0.08  -0.00   0.02     0.12   0.05   0.02
  16   1     0.14   0.05   0.01    -0.03   0.00   0.01     0.07   0.03   0.04
  17   1    -0.04   0.06   0.01    -0.01   0.01  -0.02     0.10  -0.03  -0.01
  18   1     0.19  -0.13   0.00     0.04   0.20  -0.13    -0.08   0.01   0.03
  19   1     0.05   0.14  -0.01    -0.15  -0.01  -0.01     0.05  -0.01  -0.01
  20   1     0.02   0.15   0.11    -0.16   0.11   0.06     0.07  -0.02  -0.02
  21   1    -0.12  -0.03  -0.04     0.01  -0.08  -0.24    -0.04   0.00   0.06
  22   1    -0.00  -0.32  -0.07    -0.08  -0.01  -0.07     0.02   0.03   0.02
  23   1    -0.03   0.12   0.03     0.02   0.02  -0.00     0.02   0.01   0.01
  24   1    -0.03   0.20   0.01    -0.19  -0.07  -0.01     0.06   0.04   0.01
  25   1     0.17  -0.11   0.00     0.06   0.19  -0.14    -0.05  -0.06   0.06
  26   1    -0.15  -0.03  -0.02     0.02  -0.09  -0.24    -0.01   0.01   0.04
  27   1    -0.08   0.10   0.09    -0.17   0.06   0.02     0.08   0.01   0.00
                     25                     26                     27
                        a                      a                      a 
 Frequencies --  1012.1199              1064.2563              1068.6519
 Red. masses --     4.5963                 7.7848                 2.2215
 Frc consts  --     0.0000                 0.0000                 0.0000
 IR Inten    --     9.8271                 2.4482                 0.5431
 Raman Activ --     0.0000                 0.0000                 0.0000
 Depolar     --     0.0000                 0.0000                 0.0000
 Atom AN      X      Y      Z        X      Y      Z        X      Y      Z
   1   7    -0.03   0.12  -0.02     0.03   0.02   0.04    -0.03   0.01   0.01
   2   6     0.09  -0.15   0.10    -0.03  -0.01  -0.06     0.08  -0.01   0.02
   3   6    -0.23   0.17  -0.05    -0.10  -0.01   0.12    -0.05   0.02  -0.03
   4   6     0.15   0.13   0.04     0.16   0.07  -0.10    -0.05  -0.13  -0.05
   5   6     0.15  -0.08  -0.01     0.29  -0.13  -0.14    -0.04   0.09   0.04
   6   6    -0.10   0.10   0.01    -0.37  -0.02   0.09    -0.06  -0.08  -0.09
   7   6    -0.00  -0.15   0.05     0.24  -0.03   0.00     0.01   0.14   0.07
   8   6     0.03   0.12  -0.10    -0.35   0.03   0.09     0.03  -0.09  -0.01
   9   6    -0.14  -0.16  -0.01     0.27   0.12  -0.07     0.08   0.07   0.05
  10   1     0.11  -0.05  -0.03    -0.04  -0.01  -0.00     0.01  -0.00   0.00
  11   1     0.05  -0.05   0.01     0.06  -0.01  -0.04    -0.01  -0.00   0.01
  12   1    -0.17  -0.03   0.07    -0.02  -0.01  -0.01    -0.02  -0.00   0.01
  13   1     0.12   0.17   0.11    -0.03  -0.04  -0.03     0.03   0.03   0.02
  14   1    -0.10  -0.07  -0.17     0.01  -0.00   0.01    -0.01  -0.01  -0.02
  15   1     0.26  -0.01  -0.03    -0.13   0.01   0.03     0.06  -0.02  -0.02
  16   1    -0.40  -0.09   0.11    -0.02   0.00  -0.01    -0.03  -0.01   0.03
  17   1     0.29   0.03   0.01    -0.04   0.02  -0.03     0.02  -0.37  -0.13
  18   1     0.02   0.00  -0.01     0.17  -0.11  -0.03    -0.19   0.16   0.01
  19   1     0.18  -0.11  -0.04     0.10  -0.01  -0.03     0.25  -0.19  -0.07
  20   1     0.11  -0.03  -0.01    -0.14  -0.08   0.00     0.26   0.12   0.02
  21   1    -0.08   0.00   0.10    -0.25  -0.08   0.03    -0.23  -0.12  -0.05
  22   1    -0.04  -0.16  -0.11     0.10  -0.08   0.10    -0.01  -0.01  -0.02
  23   1     0.08  -0.02   0.01    -0.08   0.01   0.02     0.04   0.35   0.12
  24   1     0.07   0.04  -0.02    -0.15   0.08   0.05    -0.22   0.15   0.06
  25   1    -0.07   0.05   0.03    -0.26   0.10   0.08     0.18  -0.14  -0.03
  26   1    -0.16  -0.10  -0.09     0.21   0.10   0.03     0.23   0.12   0.05
  27   1     0.01   0.06   0.03     0.05  -0.02  -0.03    -0.23  -0.12  -0.02
                     28                     29                     30
                        a                      a                      a 
 Frequencies --  1080.4119              1086.2005              1107.1446
 Red. masses --     7.0450                 8.7038                 8.7336
 Frc consts  --     0.0000                 0.0000                 0.0000
 IR Inten    --    11.1589                15.2582                 5.8122
 Raman Activ --     0.0000                 0.0000                 0.0000
 Depolar     --     0.0000                 0.0000                 0.0000
 Atom AN      X      Y      Z        X      Y      Z        X      Y      Z
   1   7    -0.09  -0.01  -0.06    -0.00  -0.03   0.04    -0.03  -0.08  -0.06
   2   6     0.19   0.12   0.25     0.09   0.14   0.05     0.06   0.19   0.18
   3   6    -0.19  -0.14  -0.27    -0.43  -0.17   0.13    -0.03  -0.21  -0.19
   4   6    -0.21  -0.28  -0.13     0.57  -0.07  -0.18    -0.06   0.26   0.11
   5   6     0.00   0.17   0.06    -0.14   0.04  -0.05     0.25  -0.14  -0.06
   6   6    -0.01  -0.08  -0.09     0.01   0.07   0.00    -0.27  -0.15  -0.04
   7   6    -0.00   0.02   0.09     0.05   0.06  -0.02     0.01   0.30   0.10
   8   6    -0.12   0.03  -0.02     0.01  -0.13  -0.05     0.25  -0.15  -0.06
   9   6     0.23   0.09   0.14    -0.09   0.08   0.00    -0.24  -0.12  -0.02
  10   1     0.11   0.02   0.01    -0.04   0.02   0.02     0.05   0.04   0.01
  11   1    -0.13   0.01   0.08    -0.01   0.02  -0.00    -0.12   0.03   0.06
  12   1     0.03   0.01   0.05     0.05   0.01  -0.01     0.10   0.02   0.01
  13   1     0.15   0.13   0.11     0.07  -0.00   0.00     0.07   0.03   0.05
  14   1     0.14   0.06   0.04     0.07   0.05   0.10     0.08   0.07   0.10
  15   1     0.12  -0.05  -0.08    -0.31  -0.03   0.04    -0.05  -0.01  -0.03
  16   1    -0.02  -0.04  -0.01    -0.06  -0.02  -0.04     0.04  -0.03  -0.10
  17   1     0.11  -0.05  -0.03     0.20  -0.03  -0.05    -0.01   0.19   0.07
  18   1     0.18  -0.01  -0.09    -0.14   0.04   0.06    -0.03   0.03  -0.00
  19   1    -0.13   0.01   0.00    -0.08   0.12   0.03     0.14  -0.09  -0.03
  20   1    -0.07  -0.05  -0.03     0.00  -0.00  -0.00    -0.18  -0.08  -0.02
  21   1    -0.16  -0.09  -0.04     0.04   0.04   0.03     0.03   0.01  -0.01
  22   1    -0.01   0.25   0.05     0.03   0.07   0.05    -0.00  -0.00  -0.01
  23   1     0.04  -0.10  -0.02    -0.02   0.01  -0.00     0.01   0.17   0.05
  24   1     0.10   0.00  -0.01     0.05  -0.01  -0.00     0.17  -0.10  -0.04
  25   1    -0.04  -0.02   0.05     0.10  -0.12  -0.00    -0.05   0.03   0.01
  26   1     0.01  -0.00  -0.04    -0.17  -0.05   0.05     0.09   0.04   0.01
  27   1     0.26   0.18   0.08    -0.02  -0.07  -0.03    -0.14  -0.06  -0.01
                     31                     32                     33
                        a                      a                      a 
 Frequencies --  1118.3372              1159.7849              1191.3762
 Red. masses --     6.5103                 7.8671                 3.9107
 Frc consts  --     0.0000                 0.0000                 0.0000
 IR Inten    --     6.3356                 3.4647                 0.6815
 Raman Activ --     0.0000                 0.0000                 0.0000
 Depolar     --     0.0000                 0.0000                 0.0000
 Atom AN      X      Y      Z        X      Y      Z        X      Y      Z
   1   7     0.04   0.08   0.05    -0.03   0.04  -0.08     0.01  -0.08   0.01
   2   6    -0.08  -0.21  -0.19     0.05  -0.07   0.19    -0.04   0.17  -0.01
   3   6     0.07   0.24   0.20    -0.01   0.09  -0.22     0.09  -0.13  -0.02
   4   6     0.02  -0.16  -0.06     0.05  -0.10   0.32    -0.01   0.27   0.08
   5   6     0.13   0.08  -0.07    -0.04   0.07  -0.25    -0.04  -0.18   0.12
   6   6    -0.19  -0.14  -0.03     0.02  -0.07   0.27     0.04   0.10  -0.01
   7   6     0.03   0.28   0.09     0.01   0.08  -0.27    -0.01  -0.12  -0.01
   8   6     0.16  -0.17  -0.06    -0.00  -0.09   0.27    -0.04   0.09   0.04
   9   6    -0.13   0.04   0.10    -0.00   0.10  -0.27     0.05  -0.09  -0.16
  10   1    -0.04  -0.04  -0.02     0.11  -0.01  -0.02    -0.03   0.03   0.02
  11   1     0.12  -0.03  -0.06    -0.04  -0.02   0.04    -0.04   0.03   0.00
  12   1    -0.11  -0.02  -0.00    -0.04  -0.00   0.05     0.08   0.01  -0.03
  13   1    -0.09  -0.04  -0.05    -0.02   0.10   0.09     0.04  -0.05  -0.03
  14   1    -0.07  -0.07  -0.11     0.04  -0.00  -0.08    -0.03   0.03   0.10
  15   1     0.09   0.02   0.04     0.03  -0.11  -0.11    -0.01   0.06   0.03
  16   1    -0.03   0.04   0.11    -0.07  -0.02   0.08    -0.13  -0.07  -0.11
  17   1     0.01   0.02   0.00    -0.02  -0.04   0.07    -0.05   0.17   0.05
  18   1     0.14  -0.04  -0.05    -0.02  -0.09   0.09     0.19  -0.14  -0.04
  19   1    -0.04   0.05  -0.01     0.09   0.16  -0.01     0.03  -0.10   0.01
  20   1    -0.20  -0.06  -0.02    -0.06   0.14   0.11     0.18   0.04   0.00
  21   1    -0.19  -0.10  -0.06    -0.01  -0.03  -0.11    -0.36  -0.15   0.01
  22   1     0.03   0.34   0.12     0.08   0.02   0.13     0.02   0.33   0.10
  23   1    -0.00   0.07   0.02    -0.19   0.02  -0.04     0.01  -0.06  -0.01
  24   1     0.18  -0.09  -0.03    -0.14  -0.15   0.02    -0.18   0.09   0.03
  25   1     0.19  -0.16  -0.02     0.10   0.03  -0.10     0.34  -0.17  -0.10
  26   1    -0.19  -0.07   0.02    -0.11  -0.03   0.11    -0.20  -0.12  -0.07
  27   1     0.06   0.03   0.03     0.08  -0.14  -0.11    -0.05  -0.05  -0.05
                     34                     35                     36
                        a                      a                      a 
 Frequencies --  1203.4298              1234.2950              1239.9010
 Red. masses --     4.3237                 3.3679                 3.0391
 Frc consts  --     0.0000                 0.0000                 0.0000
 IR Inten    --     9.9494                 1.0773                 7.8243
 Raman Activ --     0.0000                 0.0000                 0.0000
 Depolar     --     0.0000                 0.0000                 0.0000
 Atom AN      X      Y      Z        X      Y      Z        X      Y      Z
   1   7     0.04  -0.20   0.15    -0.01   0.08  -0.01    -0.01   0.06  -0.03
   2   6    -0.05   0.26  -0.22    -0.04  -0.05  -0.04    -0.01   0.01  -0.02
   3   6    -0.02  -0.05   0.07    -0.03  -0.09   0.12     0.01  -0.09   0.05
   4   6    -0.11  -0.07  -0.04     0.03   0.06  -0.07    -0.07   0.02  -0.11
   5   6     0.04   0.05  -0.08    -0.12  -0.03   0.12     0.04   0.01   0.12
   6   6    -0.00  -0.06   0.14     0.12  -0.02   0.03    -0.06  -0.02  -0.15
   7   6    -0.01   0.07  -0.15    -0.13   0.09  -0.24     0.07   0.08   0.02
   8   6     0.00  -0.05   0.12     0.12  -0.05   0.09    -0.07  -0.15   0.22
   9   6     0.01   0.02   0.00    -0.11  -0.02   0.04     0.09   0.07  -0.09
  10   1    -0.21   0.06   0.06     0.04  -0.02  -0.02     0.04  -0.01  -0.02
  11   1     0.00   0.07  -0.05     0.04  -0.02  -0.01     0.01  -0.01   0.01
  12   1     0.18   0.01  -0.12    -0.06  -0.00   0.02    -0.05   0.00   0.02
  13   1     0.36  -0.08  -0.09    -0.15  -0.04  -0.03    -0.22  -0.06  -0.04
  14   1    -0.34  -0.04   0.15     0.24   0.06   0.02     0.25   0.08   0.04
  15   1     0.29   0.15   0.08     0.01   0.07   0.07     0.12   0.09   0.06
  16   1    -0.16  -0.06  -0.08     0.09   0.02  -0.04    -0.08  -0.04  -0.08
  17   1     0.16  -0.07  -0.03     0.20   0.07   0.00    -0.06   0.11   0.01
  18   1    -0.12   0.07   0.04     0.16  -0.11  -0.04    -0.03   0.08  -0.03
  19   1     0.14  -0.04  -0.04     0.01  -0.07   0.01    -0.01  -0.08  -0.00
  20   1    -0.01   0.08   0.06     0.35   0.19   0.06     0.03  -0.04  -0.05
  21   1     0.02  -0.00  -0.06    -0.32  -0.17  -0.09     0.13   0.06   0.04
  22   1     0.03  -0.05   0.04    -0.01  -0.03   0.00     0.01  -0.32  -0.07
  23   1    -0.10   0.01  -0.03    -0.12   0.08  -0.04     0.01   0.36   0.12
  24   1     0.06  -0.13  -0.02     0.25  -0.23  -0.07    -0.16  -0.05   0.05
  25   1    -0.07   0.07  -0.01    -0.26   0.22   0.03     0.10  -0.06  -0.04
  26   1    -0.05  -0.02   0.01     0.12   0.07   0.03    -0.35  -0.16  -0.02
  27   1     0.19   0.08   0.02     0.04   0.03   0.02     0.36   0.12   0.01
                     37                     38                     39
                        a                      a                      a 
 Frequencies --  1245.6806              1261.9028              1272.3456
 Red. masses --     3.0660                 2.9151                 3.0923
 Frc consts  --     0.0000                 0.0000                 0.0000
 IR Inten    --     5.4633                 2.8299                 3.4874
 Raman Activ --     0.0000                 0.0000                 0.0000
 Depolar     --     0.0000                 0.0000                 0.0000
 Atom AN      X      Y      Z        X      Y      Z        X      Y      Z
   1   7     0.02  -0.08   0.06    -0.01   0.02  -0.02     0.03  -0.08  -0.08
   2   6    -0.04   0.00  -0.01    -0.06   0.13  -0.08     0.12   0.14   0.14
   3   6     0.01   0.10  -0.07     0.04  -0.12   0.06     0.19   0.09  -0.06
   4   6     0.06  -0.10   0.14     0.08  -0.06   0.23     0.11   0.03  -0.05
   5   6    -0.02   0.00   0.08    -0.09   0.11  -0.13     0.02  -0.03   0.03
   6   6     0.05   0.02  -0.26     0.03  -0.03  -0.04     0.03   0.01  -0.02
   7   6    -0.04   0.05   0.08    -0.02  -0.01   0.10    -0.03   0.06  -0.06
   8   6     0.04  -0.08   0.08     0.04   0.01  -0.08     0.02  -0.07  -0.03
   9   6    -0.05   0.07  -0.12    -0.02   0.02  -0.02     0.08   0.02   0.18
  10   1    -0.06   0.02   0.02     0.02  -0.00  -0.01     0.01   0.04   0.00
  11   1     0.00   0.02  -0.02    -0.00   0.01  -0.00    -0.11   0.03   0.06
  12   1     0.06   0.00  -0.04    -0.01   0.01   0.00     0.04  -0.01   0.02
  13   1     0.31   0.07   0.04    -0.20  -0.11  -0.08    -0.20  -0.06  -0.01
  14   1    -0.25  -0.07  -0.03     0.26   0.11   0.13    -0.28  -0.06  -0.02
  15   1    -0.07  -0.07  -0.05     0.33   0.19   0.11    -0.24  -0.09  -0.06
  16   1     0.03   0.03   0.08    -0.39  -0.16  -0.14    -0.41  -0.13  -0.04
  17   1     0.09   0.12   0.08     0.09  -0.25  -0.02    -0.42  -0.23  -0.09
  18   1     0.31  -0.17  -0.08     0.20  -0.17  -0.01     0.02  -0.00  -0.02
  19   1    -0.39   0.18   0.09    -0.12   0.18   0.03    -0.09   0.03   0.02
  20   1     0.07  -0.07  -0.09    -0.15  -0.08  -0.03     0.08   0.04   0.00
  21   1    -0.10  -0.05   0.01     0.08   0.03  -0.01    -0.10  -0.05  -0.01
  22   1    -0.05  -0.24  -0.12    -0.03  -0.01  -0.03    -0.01  -0.07  -0.02
  23   1     0.06   0.31   0.11     0.05  -0.03   0.01    -0.03   0.06   0.00
  24   1    -0.09  -0.01   0.02    -0.04   0.08   0.01     0.17  -0.10  -0.04
  25   1    -0.03   0.04  -0.01    -0.04   0.01   0.02    -0.19   0.08   0.07
  26   1     0.07   0.06   0.08     0.13   0.07   0.04    -0.18  -0.09  -0.05
  27   1    -0.03  -0.10  -0.06    -0.20  -0.11  -0.04    -0.04   0.05   0.06
                     40                     41                     42
                        a                      a                      a 
 Frequencies --  1308.9679              1318.1885              1333.7280
 Red. masses --     3.5927                 3.0621                 3.9788
 Frc consts  --     0.0000                 0.0000                 0.0000
 IR Inten    --     3.4844                 9.2019                 0.5486
 Raman Activ --     0.0000                 0.0000                 0.0000
 Depolar     --     0.0000                 0.0000                 0.0000
 Atom AN      X      Y      Z        X      Y      Z        X      Y      Z
   1   7    -0.05   0.04   0.10     0.04  -0.03  -0.07    -0.02   0.01   0.02
   2   6    -0.24  -0.12  -0.07     0.12   0.05   0.08    -0.06  -0.04  -0.02
   3   6     0.05  -0.01  -0.06     0.10  -0.02   0.11     0.01  -0.03  -0.02
   4   6     0.02   0.22   0.04    -0.18   0.19  -0.02     0.01   0.29   0.08
   5   6    -0.13   0.07  -0.01    -0.17   0.14  -0.05     0.14  -0.14  -0.09
   6   6    -0.03  -0.06  -0.00    -0.01  -0.08  -0.00     0.00   0.01  -0.01
   7   6     0.00  -0.02  -0.02     0.02  -0.03   0.03     0.03   0.20   0.06
   8   6     0.00  -0.06  -0.04    -0.02   0.02   0.04    -0.05   0.04   0.03
   9   6     0.19   0.04   0.10    -0.02  -0.05  -0.03    -0.20  -0.18   0.00
  10   1     0.01  -0.04   0.00    -0.02   0.02  -0.00     0.02  -0.01   0.00
  11   1     0.09  -0.02  -0.06    -0.08   0.01   0.05     0.03  -0.01  -0.02
  12   1     0.02   0.02  -0.05    -0.01  -0.02   0.03     0.01   0.01  -0.01
  13   1     0.44   0.14   0.07    -0.21  -0.06  -0.02     0.10   0.04   0.02
  14   1     0.28   0.07   0.04    -0.25  -0.07  -0.05     0.09   0.02   0.01
  15   1    -0.08  -0.02  -0.02    -0.32  -0.07  -0.00    -0.04   0.01   0.00
  16   1     0.11   0.03   0.03     0.06   0.02  -0.03     0.09   0.02   0.02
  17   1    -0.13  -0.29  -0.11     0.50  -0.23  -0.10    -0.03  -0.46  -0.16
  18   1     0.20  -0.14  -0.04     0.29  -0.19  -0.06    -0.07   0.00   0.04
  19   1     0.15  -0.07  -0.04     0.22  -0.08  -0.06    -0.25   0.18   0.06
  20   1    -0.02  -0.00   0.00    -0.12  -0.05  -0.01     0.07   0.02   0.00
  21   1     0.12   0.05  -0.01     0.17   0.06  -0.04    -0.14  -0.07  -0.03
  22   1     0.00   0.02   0.01     0.00  -0.02   0.00    -0.01  -0.19  -0.05
  23   1    -0.00   0.08   0.02     0.03   0.07   0.03    -0.01  -0.22  -0.07
  24   1     0.08  -0.04  -0.02    -0.02  -0.00   0.01    -0.03  -0.01   0.00
  25   1    -0.14   0.04   0.05     0.07  -0.03  -0.03     0.20  -0.12  -0.04
  26   1    -0.32  -0.16  -0.07    -0.01  -0.01  -0.02     0.13   0.04  -0.04
  27   1    -0.17  -0.03   0.02     0.10   0.05   0.01     0.35   0.19   0.06
                     43                     44                     45
                        a                      a                      a 
 Frequencies --  1338.9257              1344.1945              1354.9130
 Red. masses --     4.0638                 4.1553                 4.5612
 Frc consts  --     0.0000                 0.0000                 0.0000
 IR Inten    --     0.4690                 5.1371                 0.5777
 Raman Activ --     0.0000                 0.0000                 0.0000
 Depolar     --     0.0000                 0.0000                 0.0000
 Atom AN      X      Y      Z        X      Y      Z        X      Y      Z
   1   7    -0.01   0.00   0.01     0.02  -0.03  -0.04    -0.00   0.00   0.00
   2   6    -0.04  -0.01  -0.01     0.20   0.04   0.01    -0.00   0.00  -0.00
   3   6     0.04   0.01   0.00    -0.36  -0.09  -0.04    -0.03  -0.01  -0.02
   4   6     0.00  -0.07  -0.03     0.12   0.18   0.09     0.03   0.03   0.05
   5   6    -0.12   0.03   0.00    -0.07  -0.04  -0.03     0.06  -0.03  -0.03
   6   6     0.29   0.06   0.03     0.15   0.08   0.00    -0.12   0.06  -0.04
   7   6     0.02   0.20   0.06    -0.05  -0.03   0.01     0.07  -0.33  -0.15
   8   6    -0.30   0.12   0.03     0.04  -0.03  -0.01    -0.26   0.25   0.12
   9   6     0.11  -0.00   0.01     0.05  -0.00   0.03    -0.02  -0.12   0.02
  10   1     0.01  -0.00   0.00    -0.02   0.05   0.01     0.01   0.00   0.00
  11   1     0.01   0.00  -0.01    -0.01   0.00   0.00     0.01  -0.00  -0.00
  12   1     0.00   0.00  -0.01    -0.00  -0.01   0.04     0.00   0.00  -0.00
  13   1     0.05   0.01   0.01    -0.22  -0.06  -0.04     0.00   0.00   0.00
  14   1     0.05   0.02   0.01    -0.25  -0.08  -0.05     0.01   0.00   0.01
  15   1    -0.04  -0.01  -0.01     0.41   0.07   0.02     0.06   0.01   0.00
  16   1    -0.06  -0.02  -0.01     0.43   0.16   0.02     0.01   0.00   0.00
  17   1     0.00   0.13   0.04    -0.20  -0.16  -0.04    -0.06  -0.10  -0.02
  18   1    -0.02  -0.01   0.02     0.07  -0.08   0.01    -0.02   0.02  -0.00
  19   1     0.18  -0.11  -0.04     0.04  -0.00  -0.00    -0.10   0.08   0.03
  20   1    -0.31  -0.15  -0.04    -0.18  -0.10  -0.03     0.05  -0.01  -0.02
  21   1    -0.23  -0.13  -0.08    -0.13  -0.06  -0.02     0.15   0.10   0.06
  22   1    -0.02  -0.39  -0.13    -0.02  -0.02  -0.03     0.06   0.20   0.11
  23   1    -0.01  -0.09  -0.03     0.01   0.10   0.03     0.01   0.44   0.14
  24   1     0.30  -0.19  -0.07    -0.01  -0.01  -0.00     0.39  -0.27  -0.10
  25   1     0.24  -0.20  -0.03    -0.08   0.03   0.04     0.22  -0.09  -0.07
  26   1     0.04   0.01  -0.03    -0.14  -0.07  -0.03     0.19   0.06  -0.02
  27   1    -0.16  -0.08  -0.02    -0.05  -0.01   0.01    -0.02   0.03   0.02
                     46                     47                     48
                        a                      a                      a 
 Frequencies --  1356.6270              1358.4107              1392.8059
 Red. masses --     4.5017                 4.5560                 2.9871
 Frc consts  --     0.0000                 0.0000                 0.0000
 IR Inten    --     3.3646                 0.2037               200.3888
 Raman Activ --     0.0000                 0.0000                 0.0000
 Depolar     --     0.0000                 0.0000                 0.0000
 Atom AN      X      Y      Z        X      Y      Z        X      Y      Z
   1   7     0.02  -0.01  -0.03     0.00  -0.02   0.01     0.37   0.01  -0.09
   2   6     0.08   0.02   0.01     0.01   0.02   0.00    -0.06  -0.04  -0.04
   3   6    -0.08  -0.04   0.01    -0.10   0.02  -0.04    -0.00  -0.00  -0.02
   4   6    -0.15   0.01   0.08     0.28  -0.07  -0.03     0.02   0.01   0.01
   5   6     0.15  -0.02   0.02    -0.22   0.17   0.12    -0.01  -0.00   0.00
   6   6    -0.26  -0.14  -0.04    -0.17  -0.18  -0.04     0.01   0.01   0.00
   7   6     0.11   0.21   0.01     0.06   0.13   0.04    -0.00  -0.00  -0.00
   8   6    -0.18   0.01  -0.04    -0.06   0.05  -0.00     0.00   0.00   0.00
   9   6     0.25   0.08   0.01    -0.18  -0.07  -0.01    -0.01  -0.01   0.00
  10   1    -0.02   0.02  -0.00    -0.00   0.02   0.01    -0.51   0.03  -0.04
  11   1    -0.03   0.01   0.02     0.01   0.00  -0.01    -0.41   0.14   0.32
  12   1    -0.02  -0.01   0.02     0.02   0.00   0.00    -0.46  -0.17   0.10
  13   1    -0.11  -0.04  -0.02     0.02  -0.00  -0.00     0.09   0.09   0.04
  14   1    -0.09  -0.03  -0.02    -0.07  -0.02  -0.01     0.09   0.02   0.08
  15   1     0.10   0.03   0.02     0.13   0.00  -0.02     0.02   0.00  -0.00
  16   1     0.13   0.04   0.00    -0.01   0.01   0.00     0.02   0.00  -0.00
  17   1     0.18   0.01   0.02    -0.37   0.11   0.04    -0.04  -0.01  -0.00
  18   1     0.02   0.01  -0.00     0.34  -0.15  -0.11    -0.00   0.00  -0.00
  19   1    -0.22   0.08   0.04     0.23  -0.15  -0.04     0.01   0.00   0.00
  20   1     0.38   0.18   0.05     0.20   0.12   0.04    -0.01  -0.00  -0.00
  21   1     0.15   0.07   0.01     0.23   0.09   0.00    -0.01  -0.00   0.00
  22   1     0.03  -0.15  -0.02     0.03  -0.09   0.01    -0.00   0.00  -0.00
  23   1    -0.06  -0.24  -0.09     0.00  -0.18  -0.06     0.00   0.00   0.00
  24   1     0.17  -0.07  -0.04     0.01   0.01  -0.00    -0.00  -0.00  -0.00
  25   1     0.09  -0.11  -0.00     0.13  -0.09  -0.03    -0.00   0.00   0.00
  26   1    -0.20  -0.10  -0.03     0.21   0.10  -0.00     0.00   0.00   0.00
  27   1    -0.33  -0.14  -0.04     0.17   0.05   0.01     0.01   0.01   0.00
                     49                     50                     51
                        a                      a                      a 
 Frequencies --  1437.0243              1441.6463              1479.6960
 Red. masses --     1.6240                 1.6556                 1.8616
 Frc consts  --     0.0000                 0.0000                 0.0000
 IR Inten    --    84.4304                73.2715                 8.8381
 Raman Activ --     0.0000                 0.0000                 0.0000
 Depolar     --     0.0000                 0.0000                 0.0000
 Atom AN      X      Y      Z        X      Y      Z        X      Y      Z
   1   7     0.04  -0.18   0.12     0.03   0.12   0.17    -0.01  -0.01  -0.00
   2   6     0.01  -0.03   0.02     0.04   0.04   0.04     0.07  -0.14  -0.22
   3   6     0.00   0.00   0.00    -0.03  -0.02  -0.02     0.01   0.02   0.02
   4   6    -0.00   0.00  -0.00     0.01   0.00   0.00    -0.01  -0.01   0.00
   5   6     0.00  -0.00  -0.00    -0.00  -0.00   0.00    -0.03  -0.05   0.02
   6   6     0.00   0.00   0.00     0.00   0.00  -0.00    -0.00  -0.00   0.00
   7   6    -0.00  -0.00  -0.00    -0.00   0.00   0.00    -0.00   0.01  -0.00
   8   6     0.00  -0.00  -0.00    -0.00   0.00   0.00     0.00   0.00  -0.00
   9   6     0.00  -0.00  -0.00     0.00  -0.00  -0.00     0.01  -0.01  -0.02
  10   1     0.32   0.27   0.16     0.11  -0.61  -0.22     0.06  -0.03  -0.01
  11   1    -0.12   0.60  -0.41    -0.19   0.08   0.16     0.03  -0.01  -0.02
  12   1    -0.35  -0.14  -0.24    -0.02   0.02  -0.66     0.05   0.01  -0.04
  13   1    -0.03   0.01   0.01    -0.05  -0.03  -0.01    -0.23   0.58   0.20
  14   1     0.03  -0.00  -0.01    -0.05  -0.01  -0.03    -0.12  -0.08   0.64
  15   1    -0.01  -0.01  -0.00     0.01   0.04   0.01     0.01  -0.05  -0.02
  16   1     0.01   0.00  -0.01     0.02  -0.00   0.03     0.00   0.01  -0.05
  17   1     0.01  -0.00  -0.00    -0.01   0.00   0.00     0.00   0.01   0.00
  18   1    -0.00   0.00  -0.00     0.00  -0.00  -0.00     0.03   0.08  -0.12
  19   1     0.00   0.00   0.00     0.00  -0.00   0.00     0.08   0.12   0.05
  20   1    -0.00  -0.00  -0.00    -0.00  -0.00  -0.00     0.01  -0.01  -0.00
  21   1    -0.00  -0.00  -0.00    -0.00  -0.00  -0.00     0.00  -0.00  -0.01
  22   1     0.00   0.00   0.00    -0.00  -0.00  -0.00     0.01  -0.01   0.01
  23   1     0.00   0.00   0.00     0.00  -0.00  -0.00     0.01  -0.01  -0.00
  24   1    -0.00   0.00   0.00    -0.00  -0.00  -0.00    -0.01  -0.01  -0.00
  25   1    -0.00   0.00   0.00     0.00  -0.00   0.00    -0.00  -0.01   0.01
  26   1    -0.00  -0.00   0.00     0.00   0.00  -0.00    -0.01  -0.00   0.05
  27   1     0.00   0.00   0.00     0.00   0.00  -0.00    -0.02   0.04   0.01
                     52                     53                     54
                        a                      a                      a 
 Frequencies --  1501.0133              1505.1669              1507.5167
 Red. masses --     1.9346                 1.9076                 1.9381
 Frc consts  --     0.0000                 0.0000                 0.0000
 IR Inten    --     2.5224                 1.0999                 2.0945
 Raman Activ --     0.0000                 0.0000                 0.0000
 Depolar     --     0.0000                 0.0000                 0.0000
 Atom AN      X      Y      Z        X      Y      Z        X      Y      Z
   1   7     0.00   0.01   0.01    -0.00  -0.01  -0.01    -0.00  -0.00  -0.00
   2   6    -0.04   0.03   0.05     0.02   0.01   0.01     0.02  -0.01  -0.02
   3   6    -0.03   0.09   0.16     0.03  -0.09  -0.15     0.01  -0.04  -0.07
   4   6     0.00  -0.01  -0.00    -0.01  -0.03  -0.01     0.02  -0.01  -0.01
   5   6    -0.04  -0.08   0.03    -0.06  -0.11   0.05     0.02   0.09  -0.02
   6   6    -0.03   0.03   0.05    -0.05   0.05   0.09    -0.03   0.04   0.07
   7   6     0.02   0.01   0.01    -0.05   0.02  -0.03     0.19  -0.05   0.11
   8   6     0.03   0.05  -0.03     0.06   0.09  -0.04     0.00  -0.01   0.01
   9   6     0.05  -0.08  -0.13     0.02  -0.00  -0.03     0.01  -0.05  -0.07
  10   1    -0.00  -0.02  -0.01    -0.01   0.03   0.01     0.00   0.01   0.00
  11   1    -0.00  -0.00   0.01     0.00   0.00  -0.00     0.00   0.00  -0.01
  12   1    -0.00   0.00  -0.02    -0.01  -0.00   0.03     0.00  -0.00   0.01
  13   1     0.06  -0.10  -0.03     0.00  -0.06  -0.02    -0.03   0.04   0.01
  14   1     0.04   0.02  -0.11    -0.01  -0.00  -0.06    -0.02  -0.01   0.05
  15   1     0.12  -0.39  -0.16    -0.12   0.38   0.15    -0.06   0.17   0.07
  16   1     0.01   0.05  -0.44    -0.01  -0.05   0.42    -0.01  -0.02   0.19
  17   1     0.00  -0.00  -0.00     0.00   0.01   0.00    -0.03   0.01   0.00
  18   1     0.03   0.13  -0.19     0.04   0.18  -0.26    -0.02  -0.11   0.15
  19   1     0.11   0.19   0.07     0.18   0.25   0.09    -0.08  -0.17  -0.06
  20   1     0.07  -0.12  -0.03     0.12  -0.22  -0.06     0.10  -0.18  -0.05
  21   1     0.02   0.00  -0.15     0.03   0.00  -0.26     0.04   0.01  -0.21
  22   1    -0.02   0.01  -0.04     0.05  -0.04   0.13    -0.19   0.17  -0.48
  23   1    -0.05  -0.01   0.00     0.14  -0.01  -0.02    -0.53   0.01   0.06
  24   1    -0.09  -0.12  -0.05    -0.16  -0.21  -0.08     0.02   0.02   0.01
  25   1    -0.02  -0.09   0.13    -0.05  -0.15   0.23     0.02   0.01  -0.02
  26   1    -0.03  -0.01   0.38    -0.01   0.00   0.08    -0.01   0.00   0.21
  27   1    -0.16   0.34   0.10    -0.04   0.06   0.02    -0.08   0.19   0.06
                     55                     56                     57
                        a                      a                      a 
 Frequencies --  1509.5782              1512.2692              1520.5144
 Red. masses --     1.9786                 1.9043                 1.9905
 Frc consts  --     0.0000                 0.0000                 0.0000
 IR Inten    --     1.6418                 3.5853                 0.2609
 Raman Activ --     0.0000                 0.0000                 0.0000
 Depolar     --     0.0000                 0.0000                 0.0000
 Atom AN      X      Y      Z        X      Y      Z        X      Y      Z
   1   7    -0.00   0.00   0.00     0.00   0.00   0.00     0.00   0.00   0.00
   2   6    -0.00  -0.01  -0.02    -0.01   0.01   0.01    -0.01   0.01   0.01
   3   6    -0.01   0.04   0.06    -0.01   0.03   0.04     0.00   0.01   0.02
   4   6    -0.00  -0.00  -0.00    -0.01   0.00   0.01    -0.03   0.00   0.01
   5   6     0.07   0.12  -0.04    -0.03  -0.08   0.03    -0.05  -0.11   0.03
   6   6    -0.06   0.07   0.09    -0.06   0.09   0.14     0.04  -0.07  -0.09
   7   6    -0.02  -0.01  -0.01     0.02  -0.01   0.02     0.14  -0.03   0.07
   8   6     0.09   0.15  -0.06    -0.06  -0.12   0.05     0.05   0.10  -0.03
   9   6    -0.04   0.07   0.08    -0.04   0.07   0.10    -0.04   0.07   0.10
  10   1     0.01  -0.01  -0.00    -0.00  -0.01  -0.00    -0.00  -0.00  -0.00
  11   1     0.00  -0.00   0.00    -0.00   0.00   0.00    -0.00   0.00   0.00
  12   1     0.01   0.00  -0.01    -0.00  -0.00  -0.01    -0.00  -0.00  -0.00
  13   1    -0.02   0.06   0.02     0.02  -0.03  -0.01     0.02  -0.04  -0.01
  14   1    -0.00  -0.00   0.07     0.01   0.01  -0.04     0.01   0.01  -0.04
  15   1     0.04  -0.15  -0.06     0.05  -0.11  -0.04     0.02  -0.05  -0.02
  16   1    -0.00   0.02  -0.17     0.01   0.01  -0.12     0.00   0.01  -0.06
  17   1     0.01   0.01   0.00    -0.01  -0.00   0.01     0.03  -0.00   0.00
  18   1    -0.05  -0.17   0.26     0.02   0.13  -0.18     0.04   0.16  -0.24
  19   1    -0.18  -0.25  -0.09     0.11   0.18   0.07     0.16   0.24   0.09
  20   1     0.14  -0.24  -0.06     0.19  -0.36  -0.09    -0.12   0.23   0.06
  21   1     0.04   0.02  -0.28     0.05   0.01  -0.41    -0.03  -0.01   0.26
  22   1     0.02   0.01   0.05    -0.03   0.03  -0.06    -0.13   0.11  -0.32
  23   1     0.05   0.01  -0.00    -0.07   0.00   0.01    -0.37   0.01   0.04
  24   1    -0.24  -0.32  -0.13     0.19   0.26   0.11    -0.14  -0.20  -0.08
  25   1    -0.07  -0.22   0.34     0.05   0.19  -0.28    -0.03  -0.14   0.21
  26   1     0.03   0.01  -0.25     0.02   0.00  -0.31     0.03   0.01  -0.30
  27   1     0.11  -0.22  -0.07     0.13  -0.28  -0.08     0.13  -0.27  -0.08
                     58                     59                     60
                        a                      a                      a 
 Frequencies --  2880.6516              2912.7597              2913.6300
 Red. masses --     1.7389                 1.9395                 1.9251
 Frc consts  --     0.0000                 0.0000                 0.0000
 IR Inten    --    20.0336                21.3336                18.8468
 Raman Activ --     0.0000                 0.0000                 0.0000
 Depolar     --     0.0000                 0.0000                 0.0000
 Atom AN      X      Y      Z        X      Y      Z        X      Y      Z
   1   7     0.00   0.00  -0.00     0.00   0.00   0.00     0.00   0.00  -0.00
   2   6     0.00  -0.00  -0.00     0.00  -0.00   0.00    -0.00   0.00  -0.00
   3   6    -0.00   0.01  -0.01    -0.00   0.00  -0.00     0.00  -0.00   0.00
   4   6     0.00  -0.08   0.24    -0.00   0.00   0.00    -0.00  -0.00   0.01
   5   6    -0.01  -0.01  -0.02     0.00   0.00  -0.02    -0.00  -0.00  -0.01
   6   6    -0.00   0.01  -0.01     0.09  -0.21   0.13     0.02  -0.04   0.03
   7   6    -0.00  -0.00   0.00     0.03   0.01  -0.05     0.10   0.04  -0.13
   8   6    -0.00  -0.00  -0.01    -0.04  -0.03  -0.10     0.09   0.07   0.20
   9   6    -0.01   0.02  -0.01    -0.00   0.00   0.01    -0.00   0.01  -0.01
  10   1     0.00   0.00   0.00    -0.00   0.00   0.00    -0.00   0.00  -0.00
  11   1    -0.00  -0.00  -0.00     0.00  -0.00   0.00     0.00   0.00   0.00
  12   1     0.00   0.00   0.00     0.00  -0.00  -0.00    -0.00  -0.00   0.00
  13   1    -0.00  -0.00   0.01     0.00   0.00  -0.00    -0.00  -0.00   0.01
  14   1    -0.00   0.01   0.00    -0.00   0.01   0.00     0.00  -0.00  -0.00
  15   1    -0.00  -0.02   0.05    -0.00  -0.00   0.01    -0.00   0.00  -0.00
  16   1     0.01  -0.02  -0.00     0.01  -0.01  -0.00    -0.00   0.00   0.00
  17   1    -0.01   0.30  -0.90    -0.00   0.01  -0.02    -0.00   0.01  -0.04
  18   1     0.03   0.04   0.03     0.01   0.01   0.00     0.01   0.02   0.01
  19   1    -0.00  -0.03   0.06    -0.00  -0.03   0.09    -0.00  -0.01   0.02
  20   1     0.00  -0.01   0.03     0.01   0.11  -0.46     0.00   0.03  -0.13
  21   1     0.01  -0.03   0.00    -0.31   0.65  -0.02    -0.06   0.12  -0.00
  22   1     0.01   0.00  -0.00    -0.12  -0.01   0.04    -0.39  -0.02   0.14
  23   1    -0.00   0.00  -0.01     0.02  -0.04   0.14     0.05  -0.12   0.36
  24   1     0.00  -0.01   0.03    -0.01  -0.07   0.17     0.01   0.17  -0.40
  25   1     0.02   0.02   0.02     0.16   0.20   0.17    -0.32  -0.39  -0.32
  26   1     0.02  -0.05  -0.00     0.01  -0.03   0.00     0.01  -0.01  -0.00
  27   1     0.00  -0.02   0.07    -0.00   0.01  -0.03    -0.00  -0.02   0.07
                     61                     62                     63
                        a                      a                      a 
 Frequencies --  2916.7526              2919.4378              2923.5925
 Red. masses --     1.9113                 1.9252                 1.8677
 Frc consts  --     0.0000                 0.0000                 0.0000
 IR Inten    --    15.0549                40.5654                46.8582
 Raman Activ --     0.0000                 0.0000                 0.0000
 Depolar     --     0.0000                 0.0000                 0.0000
 Atom AN      X      Y      Z        X      Y      Z        X      Y      Z
   1   7    -0.00   0.00  -0.00     0.00  -0.00   0.00    -0.00   0.00  -0.00
   2   6    -0.00   0.00  -0.00     0.00  -0.01  -0.00    -0.00   0.01   0.00
   3   6    -0.00   0.00  -0.00     0.00  -0.01  -0.00     0.01  -0.02   0.01
   4   6    -0.00   0.00  -0.01     0.00   0.01   0.01    -0.00   0.01  -0.03
   5   6    -0.02  -0.02  -0.05     0.09   0.07   0.18    -0.07  -0.07  -0.14
   6   6     0.03  -0.09   0.03     0.01  -0.02  -0.01    -0.02   0.03   0.01
   7   6    -0.16  -0.04   0.15    -0.01  -0.00   0.00     0.03   0.00  -0.01
   8   6     0.06   0.06   0.11    -0.01  -0.01   0.01    -0.03  -0.03  -0.01
   9   6    -0.01   0.04  -0.03    -0.06   0.16  -0.09    -0.07   0.17  -0.08
  10   1    -0.00  -0.00   0.00    -0.00   0.00  -0.00    -0.00  -0.00   0.00
  11   1     0.00   0.00  -0.00    -0.00   0.00   0.00     0.00   0.00  -0.00
  12   1     0.00  -0.00  -0.00     0.00  -0.00  -0.00    -0.00   0.00  -0.00
  13   1     0.00   0.00  -0.00    -0.00  -0.00   0.00     0.00   0.00  -0.00
  14   1     0.00  -0.00  -0.00    -0.01   0.02   0.00     0.01  -0.02  -0.00
  15   1    -0.00  -0.00   0.00     0.00  -0.00   0.00    -0.00   0.02  -0.04
  16   1     0.00  -0.00  -0.00    -0.01   0.02   0.00    -0.02   0.06   0.01
  17   1    -0.00  -0.00   0.01    -0.00   0.00  -0.01     0.00  -0.03   0.10
  18   1     0.07   0.10   0.07    -0.32  -0.40  -0.33     0.28   0.35   0.29
  19   1    -0.00  -0.05   0.12     0.01   0.13  -0.32    -0.01  -0.10   0.22
  20   1     0.01   0.01  -0.09     0.00  -0.03   0.08    -0.00   0.02  -0.06
  21   1    -0.14   0.29  -0.02    -0.04   0.09  -0.01     0.07  -0.15   0.01
  22   1     0.62   0.04  -0.24     0.03   0.00  -0.01    -0.13  -0.01   0.06
  23   1    -0.05   0.10  -0.28    -0.00   0.00  -0.01     0.01   0.00  -0.02
  24   1     0.01   0.06  -0.13    -0.00   0.02  -0.07    -0.00   0.02  -0.06
  25   1    -0.23  -0.28  -0.24     0.03   0.03   0.03     0.09   0.11   0.10
  26   1     0.04  -0.10  -0.00     0.23  -0.49   0.01     0.27  -0.57   0.02
  27   1     0.00  -0.03   0.11    -0.01  -0.07   0.30    -0.01  -0.06   0.26
                     64                     65                     66
                        a                      a                      a 
 Frequencies --  2940.2082              2948.1793              2948.9056
 Red. masses --     1.9176                 1.4978                 1.5371
 Frc consts  --     0.0000                 0.0000                 0.0000
 IR Inten    --    19.9042                31.7965                42.0150
 Raman Activ --     0.0000                 0.0000                 0.0000
 Depolar     --     0.0000                 0.0000                 0.0000
 Atom AN      X      Y      Z        X      Y      Z        X      Y      Z
   1   7     0.00  -0.00   0.00    -0.00   0.00  -0.00     0.00  -0.00  -0.00
   2   6    -0.01   0.06  -0.04    -0.00  -0.00   0.00     0.00  -0.01   0.00
   3   6     0.07  -0.24   0.11    -0.00   0.00  -0.00     0.00   0.00  -0.00
   4   6     0.00  -0.01   0.02    -0.00   0.00  -0.00     0.00   0.00   0.00
   5   6     0.01   0.02  -0.01    -0.01  -0.01  -0.01     0.01   0.02   0.03
   6   6     0.00  -0.00  -0.00     0.03  -0.04  -0.08    -0.04   0.04   0.14
   7   6    -0.00   0.00  -0.00     0.13  -0.04   0.09     0.00   0.00   0.00
   8   6     0.00   0.01  -0.01     0.04   0.08  -0.04     0.05   0.11  -0.09
   9   6     0.00  -0.01   0.01    -0.01   0.01   0.00    -0.01   0.03  -0.01
  10   1     0.00   0.00  -0.01    -0.00   0.00  -0.00    -0.00  -0.00   0.00
  11   1    -0.00  -0.00  -0.00     0.00   0.00   0.00    -0.00   0.00  -0.00
  12   1    -0.01   0.01   0.00    -0.00  -0.00  -0.00     0.00  -0.00  -0.00
  13   1    -0.01  -0.06   0.17     0.00   0.00  -0.00     0.00   0.00  -0.01
  14   1     0.06  -0.19  -0.01    -0.00   0.00   0.00    -0.01   0.02   0.00
  15   1     0.01   0.17  -0.48    -0.00  -0.00   0.00     0.00  -0.01   0.01
  16   1    -0.25   0.71   0.07     0.00  -0.00  -0.00    -0.00   0.00  -0.00
  17   1    -0.00   0.02  -0.05     0.00  -0.00   0.01     0.00   0.00  -0.00
  18   1    -0.04  -0.05  -0.05     0.03   0.04   0.04    -0.06  -0.07  -0.06
  19   1     0.00  -0.02   0.08    -0.00   0.00  -0.01     0.00   0.01  -0.02
  20   1     0.00  -0.01   0.02     0.01  -0.11   0.34    -0.01   0.17  -0.55
  21   1    -0.01   0.02  -0.00    -0.12   0.27  -0.03     0.16  -0.33   0.04
  22   1     0.02   0.00  -0.01    -0.43  -0.04   0.20    -0.00   0.00   0.00
  23   1     0.00  -0.01   0.02    -0.03   0.17  -0.52    -0.00   0.00  -0.00
  24   1     0.00  -0.01   0.03     0.01  -0.11   0.33     0.01  -0.19   0.54
  25   1    -0.01  -0.01  -0.01    -0.15  -0.18  -0.18    -0.19  -0.22  -0.23
  26   1    -0.01   0.03   0.00     0.03  -0.06   0.00     0.05  -0.10   0.00
  27   1    -0.00   0.01  -0.04    -0.00   0.01  -0.03    -0.00   0.00   0.01
                     67                     68                     69
                        a                      a                      a 
 Frequencies --  2952.4254              2958.2532              2961.4818
 Red. masses --     1.5781                 1.5519                 1.6266
 Frc consts  --     0.0000                 0.0000                 0.0000
 IR Inten    --    45.1905                29.7567                97.7397
 Raman Activ --     0.0000                 0.0000                 0.0000
 Depolar     --     0.0000                 0.0000                 0.0000
 Atom AN      X      Y      Z        X      Y      Z        X      Y      Z
   1   7     0.00  -0.00  -0.00    -0.00  -0.00   0.00     0.00  -0.00   0.00
   2   6     0.00  -0.00  -0.00    -0.01   0.04  -0.03    -0.01   0.04  -0.02
   3   6    -0.00  -0.00   0.01    -0.00  -0.00   0.03     0.01  -0.02  -0.04
   4   6     0.00  -0.00   0.00    -0.00  -0.01  -0.00     0.00  -0.01   0.02
   5   6     0.03   0.05  -0.02    -0.04  -0.10   0.09    -0.03  -0.09   0.11
   6   6    -0.01   0.01   0.10     0.00  -0.02   0.02    -0.00  -0.01   0.06
   7   6     0.07  -0.04   0.12     0.00   0.00  -0.00     0.01  -0.02   0.05
   8   6    -0.02  -0.07   0.08    -0.00   0.00  -0.03    -0.01  -0.03   0.06
   9   6     0.02  -0.04  -0.05     0.03  -0.03  -0.15    -0.02   0.00   0.13
  10   1     0.00   0.00   0.00     0.00   0.00  -0.00     0.00   0.00  -0.00
  11   1    -0.00  -0.00  -0.00     0.00  -0.00   0.00    -0.00  -0.00  -0.00
  12   1     0.00   0.00   0.00    -0.00   0.00   0.00    -0.00   0.00   0.00
  13   1     0.00  -0.00   0.00    -0.01  -0.04   0.11    -0.01  -0.03   0.09
  14   1    -0.00   0.01   0.00     0.03  -0.10  -0.01     0.04  -0.13  -0.01
  15   1    -0.00   0.01  -0.03    -0.00   0.05  -0.11     0.01  -0.07   0.15
  16   1    -0.00  -0.00   0.00     0.01  -0.03   0.00    -0.04   0.13   0.00
  17   1    -0.00   0.00  -0.01    -0.00  -0.00  -0.00    -0.00   0.02  -0.05
  18   1    -0.11  -0.14  -0.13     0.17   0.20   0.20     0.12   0.14   0.15
  19   1     0.01  -0.06   0.20    -0.01   0.18  -0.54    -0.01   0.18  -0.54
  20   1    -0.01   0.12  -0.39    -0.00   0.01  -0.05    -0.00   0.06  -0.22
  21   1     0.07  -0.15   0.03    -0.02   0.03  -0.00     0.01  -0.02   0.01
  22   1    -0.21  -0.02   0.11    -0.00  -0.00  -0.00    -0.03  -0.00   0.02
  23   1    -0.03   0.18  -0.54     0.00  -0.00   0.01    -0.02   0.07  -0.21
  24   1    -0.01   0.14  -0.38     0.00  -0.03   0.08    -0.00   0.08  -0.22
  25   1     0.08   0.09   0.10     0.01   0.02   0.01     0.02   0.02   0.03
  26   1    -0.09   0.20  -0.02    -0.14   0.30  -0.04     0.08  -0.18   0.03
  27   1     0.01  -0.07   0.21     0.02  -0.19   0.57    -0.01   0.16  -0.51
                     70                     71                     72
                        a                      a                      a 
 Frequencies --  2964.6233              2972.8152              2988.3908
 Red. masses --     1.9273                 1.5577                 1.5353
 Frc consts  --     0.0000                 0.0000                 0.0000
 IR Inten    --    14.7856                44.3234                17.8626
 Raman Activ --     0.0000                 0.0000                 0.0000
 Depolar     --     0.0000                 0.0000                 0.0000
 Atom AN      X      Y      Z        X      Y      Z        X      Y      Z
   1   7     0.00  -0.00   0.00     0.00  -0.00   0.00     0.00   0.00   0.00
   2   6    -0.03   0.20  -0.18    -0.03   0.09   0.01     0.06  -0.12  -0.15
   3   6    -0.03   0.09   0.01     0.03  -0.02  -0.19     0.02  -0.03  -0.07
   4   6    -0.00   0.01  -0.00     0.00   0.00  -0.02     0.00   0.00  -0.01
   5   6     0.01   0.03  -0.02     0.00   0.02  -0.02    -0.00  -0.00  -0.01
   6   6    -0.00   0.00  -0.01     0.00   0.00  -0.01    -0.00   0.00  -0.00
   7   6    -0.00   0.00  -0.00    -0.00   0.00  -0.01    -0.00   0.00  -0.00
   8   6     0.00   0.00  -0.00     0.00   0.00  -0.01    -0.00   0.00  -0.00
   9   6    -0.01   0.01   0.01     0.01  -0.01  -0.05     0.00  -0.00  -0.01
  10   1     0.00   0.01  -0.02    -0.00  -0.00   0.00     0.00   0.01  -0.02
  11   1     0.00  -0.00   0.00    -0.00  -0.00  -0.00    -0.00  -0.00  -0.01
  12   1    -0.00   0.01   0.00    -0.01   0.01  -0.00     0.01  -0.02  -0.00
  13   1    -0.04  -0.25   0.68     0.00   0.03  -0.05    -0.02  -0.24   0.54
  14   1     0.14  -0.46  -0.04     0.11  -0.37  -0.01    -0.20   0.66   0.00
  15   1    -0.00   0.02  -0.03     0.01  -0.31   0.68     0.00  -0.11   0.23
  16   1     0.11  -0.33  -0.02    -0.13   0.39   0.00    -0.07   0.21   0.01
  17   1    -0.00  -0.01   0.02     0.00  -0.01   0.04    -0.00  -0.01   0.02
  18   1    -0.05  -0.06  -0.06    -0.02  -0.02  -0.03     0.02   0.02   0.02
  19   1     0.00  -0.05   0.14     0.00  -0.04   0.10     0.00  -0.00   0.01
  20   1     0.00  -0.00   0.02     0.00  -0.01   0.04    -0.00  -0.00   0.01
  21   1     0.00  -0.01  -0.00    -0.00   0.01  -0.00     0.00   0.00  -0.00
  22   1     0.00   0.00  -0.00    -0.00   0.00  -0.00    -0.00   0.00  -0.00
  23   1     0.00  -0.00   0.01     0.00  -0.01   0.04     0.00  -0.00   0.01
  24   1     0.00  -0.01   0.02     0.00  -0.02   0.05    -0.00  -0.00   0.01
  25   1    -0.00  -0.01  -0.01    -0.00   0.00  -0.00     0.00   0.00   0.00
  26   1     0.02  -0.05   0.00    -0.04   0.08  -0.01    -0.01   0.03  -0.00
  27   1    -0.00   0.01  -0.04     0.01  -0.06   0.18     0.00  -0.01   0.04
                     73                     74                     75
                        a                      a                      a 
 Frequencies --  3203.9359              3210.5584              3229.5706
 Red. masses --     2.0164                 2.0382                 1.2969
 Frc consts  --     0.0000                 0.0000                 0.0000
 IR Inten    --    76.6648                76.3977                25.6368
 Raman Activ --     0.0000                 0.0000                 0.0000
 Depolar     --     0.0000                 0.0000                 0.0000
 Atom AN      X      Y      Z        X      Y      Z        X      Y      Z
   1   7     0.10   0.18   0.18     0.06  -0.21   0.17    -0.11   0.02   0.09
   2   6    -0.00   0.00   0.00     0.00  -0.01   0.01    -0.01   0.00   0.01
   3   6     0.00  -0.00  -0.00    -0.00   0.00  -0.00     0.00  -0.00  -0.00
   4   6    -0.00   0.00   0.00     0.00  -0.00  -0.00     0.00   0.00   0.00
   5   6    -0.00  -0.00  -0.00    -0.00  -0.00  -0.00     0.00   0.00  -0.00
   6   6     0.00  -0.00  -0.00     0.00  -0.00  -0.00    -0.00   0.00   0.00
   7   6    -0.00  -0.00   0.00    -0.00  -0.00   0.00    -0.00   0.00  -0.00
   8   6     0.00   0.00   0.00     0.00   0.00   0.00    -0.00  -0.00   0.00
   9   6     0.00  -0.00  -0.00    -0.00   0.00  -0.00     0.00  -0.00  -0.00
  10   1     0.02   0.10  -0.18     0.05   0.24  -0.62     0.03   0.26  -0.62
  11   1    -0.52  -0.46  -0.52    -0.07  -0.09  -0.06     0.23   0.22   0.26
  12   1     0.12  -0.33   0.02    -0.21   0.65   0.03     0.18  -0.57   0.00
  13   1    -0.00   0.00  -0.01    -0.00   0.01  -0.01     0.00   0.01  -0.02
  14   1     0.00  -0.01  -0.00    -0.00   0.02  -0.00     0.01  -0.02   0.00
  15   1    -0.00   0.00  -0.00    -0.00  -0.00   0.00    -0.00  -0.00   0.00
  16   1    -0.00  -0.00  -0.00     0.00  -0.00   0.00    -0.00   0.00   0.00
  17   1     0.00  -0.00   0.00     0.00  -0.00   0.00     0.00   0.00  -0.00
  18   1     0.00   0.00   0.00     0.00   0.00   0.00     0.00   0.00   0.00
  19   1    -0.00   0.00   0.00     0.00  -0.00   0.00    -0.00  -0.00   0.00
  20   1    -0.00  -0.00   0.00    -0.00   0.00   0.00     0.00   0.00  -0.00
  21   1    -0.00   0.00  -0.00    -0.00   0.00  -0.00     0.00  -0.00  -0.00
  22   1     0.00  -0.00  -0.00     0.00   0.00  -0.00     0.00   0.00  -0.00
  23   1    -0.00   0.00  -0.00     0.00   0.00  -0.00     0.00  -0.00   0.00
  24   1     0.00  -0.00  -0.00    -0.00   0.00  -0.00     0.00   0.00  -0.00
  25   1    -0.00  -0.00  -0.00    -0.00  -0.00  -0.00     0.00   0.00   0.00
  26   1     0.00  -0.00   0.00     0.00  -0.00   0.00    -0.00   0.00   0.00
  27   1     0.00   0.00  -0.00    -0.00  -0.00   0.00     0.00  -0.00   0.00
