18
 energy: -21.343752740012 gnorm: 0.000757132188 xtb: 6.5.1 (fef0646)
N            0.89477519821344       -0.03684327838107        0.09299458006687
C            2.37766532921603       -0.03848319394734        0.09152098999371
C            2.90781677934910       -0.08475644855269       -1.33658596095398
C            4.43613011104021       -0.09919379459460       -1.36128874600450
C            4.95552402903964       -0.27169445312027       -2.79142944526581
O            4.54591106019329       -1.49271303302106       -3.37510417909751
H            0.52969608551898       -0.01249310017660        1.05170804859628
H            0.54236758708079       -0.88079949747953       -0.37434774182610
H            0.54253933612277        0.78237039237276       -0.41618152667823
H            2.73435949237717       -0.90601998277624        0.64648200902213
H            2.73883736114011        0.86185950145555        0.58840728774872
H            2.56431838265400        0.78424437675639       -1.89917027363711
H            2.55588502687108       -0.98079895030021       -1.85015266549079
H            4.81268910768259       -0.91915936818170       -0.74640454197847
H            4.83637461229788        0.83343418360403       -0.96351807118762
H            6.04928378784177       -0.18687106733707       -2.80873582801423
H            4.54477918027987        0.50655189023718       -3.43946063972928
H            4.98503753308126       -2.22380417655759       -2.92117329556412
