21
 energy: -25.724495747788 gnorm: 0.000299341928 xtb: 6.5.1 (fef0646)
N            3.16235199174430       -2.46961224347905       -0.25506564075568
C            2.58334537125038       -1.09430418584455       -0.20383671064889
C            2.99589845840543       -0.45804401056629        1.12556727312450
C            4.49955877486038       -0.50014747828671        1.23078104668414
C            5.27608775836223        0.52240683055345        0.69991099113445
C            6.65701066583259        0.43592030233731        0.72245575710029
C            7.27877214076197       -0.67949682728057        1.26259838923179
C            6.51657552297675       -1.70316809620701        1.79672596961317
C            5.13084078141666       -1.62101082832030        1.77422019444754
H            3.24890707322758       -2.82808759139175       -1.21076364655650
H            2.59745933124394       -3.12515174815272        0.29646493758296
H            4.10983885619452       -2.38585083625239        0.20548569273469
H            1.50025484915570       -1.14215866939266       -0.31144298686960
H            2.99850576450568       -0.51669047196210       -1.03079460219816
H            2.53520919129576       -0.99226877065616        1.95775597794595
H            2.63935981430766        0.57031934174070        1.14884171625937
H            4.79677254347214        1.39588730186904        0.28437138828710
H            7.24997301764452        1.24274894529057        0.32192979677025
H            8.35481356998870       -0.74214184312231        1.28220833883785
H            6.99420840785182       -2.56287719045555        2.24024060646921
H            4.55128611550123       -2.38763193042082        2.27503551080621
