24
 energy: -25.660425556270 gnorm: 0.000689546012 xtb: 6.5.1 (fef0646)
N            1.07857505297108        0.06105655679039       -0.31821056415599
C            2.51768002220584        0.03099875463728        0.08682217264593
C            2.80520230528724        1.12075612752478        1.12108345935379
C            1.99987237269499        0.92870339605237        2.40935517014565
C            2.43389101969378        1.96779145735500        3.44437750286618
C            2.23971683477969        3.37957241514125        2.89950747713743
C            3.00960248228824        3.56717207420494        1.59579678457604
C            2.57498630722888        2.52755400103808        0.56172804227948
H            0.86607416818415       -0.64516695725313       -1.03139618180828
H            0.86330052352196        1.00034595810431       -0.68303067178711
H            0.49883655723581       -0.10314602451754        0.51680736114215
H            3.12830849463516        0.18427411185339       -0.80408725588440
H            2.73795492548304       -0.95406670294244        0.50036362076542
H            3.86584533638386        1.03105403597569        1.37345589983788
H            2.16022452809478       -0.07431844658754        2.80950225599235
H            0.92893779207982        1.06386799222203        2.22558211066331
H            3.48480421212733        1.81318089993892        3.69222566379566
H            1.85326075007883        1.83850785726990        4.35765119404252
H            2.58595212659255        4.10456785577697        3.63459843014526
H            1.17679401203822        3.56477345227801        2.72864413028237
H            4.07875323766766        3.46243415035889        1.78471294396029
H            2.83697458110231        4.56878821255904        1.20238564424078
H            3.14591769712562        2.66672051906132       -0.35832591872542
H            1.51490466049904        2.69360830315819        0.34200072848872
