      -----------------------------------------------------------      
     |                   =====================                   |     
     |                           x T B                           |     
     |                   =====================                   |     
     |                         S. Grimme                         |     
     |          Mulliken Center for Theoretical Chemistry        |     
     |                    University of Bonn                     |     
      -----------------------------------------------------------      

   * xtb version 6.5.1 (fef0646) compiled by 'conda@b96dff2e9fd6' on 2023-01-04

   xtb is free software: you can redistribute it and/or modify it under
   the terms of the GNU Lesser General Public License as published by
   the Free Software Foundation, either version 3 of the License, or
   (at your option) any later version.
   
   xtb is distributed in the hope that it will be useful,
   but WITHOUT ANY WARRANTY; without even the implied warranty of
   MERCHANTABILITY or FITNESS FOR A PARTICULAR PURPOSE.  See the
   GNU Lesser General Public License for more details.
   
   Cite this work as:
   * C. Bannwarth, E. Caldeweyher, S. Ehlert, A. Hansen, P. Pracht,
     J. Seibert, S. Spicher, S. Grimme, WIREs Comput. Mol. Sci., 2020, 11,
     e01493. DOI: 10.1002/wcms.1493
   
   for GFN2-xTB:
   * C. Bannwarth, S. Ehlert and S. Grimme., J. Chem. Theory Comput., 2019,
     15, 1652-1671. DOI: 10.1021/acs.jctc.8b01176
   for GFN1-xTB:
   * S. Grimme, C. Bannwarth, P. Shushkov, J. Chem. Theory Comput., 2017,
     13, 1989-2009. DOI: 10.1021/acs.jctc.7b00118
   for GFN0-xTB:
   * P. Pracht, E. Caldeweyher, S. Ehlert, S. Grimme, ChemRxiv, 2019, preprint.
     DOI: 10.26434/chemrxiv.8326202.v1
   for GFN-FF:
   * S. Spicher and S. Grimme, Angew. Chem. Int. Ed., 2020, 59, 15665-15673.
     DOI: 10.1002/anie.202004239
   
   for ALPB and GBSA implicit solvation:
   * S. Ehlert, M. Stahn, S. Spicher, S. Grimme, J. Chem. Theory Comput.,
     2021, 17, 4250-4261. DOI: 10.1021/acs.jctc.1c00471
   
   for DFT-D4:
   * E. Caldeweyher, C. Bannwarth and S. Grimme, J. Chem. Phys., 2017,
     147, 034112. DOI: 10.1063/1.4993215
   * E. Caldeweyher, S. Ehlert, A. Hansen, H. Neugebauer, S. Spicher,
     C. Bannwarth and S. Grimme, J. Chem. Phys., 2019, 150, 154122.
     DOI: 10.1063/1.5090222
   * E. Caldeweyher, J.-M. Mewes, S. Ehlert and S. Grimme, Phys. Chem. Chem. Phys.
     2020, 22, 8499-8512. DOI: 10.1039/D0CP00502A
   
   for sTDA-xTB:
   * S. Grimme and C. Bannwarth, J. Chem. Phys., 2016, 145, 054103.
     DOI: 10.1063/1.4959605
   
   in the mass-spec context:
   * V. Asgeirsson, C. Bauer and S. Grimme, Chem. Sci., 2017, 8, 4879.
     DOI: 10.1039/c7sc00601b
   * J. Koopman and S. Grimme, ACS Omega 2019, 4, 12, 15120-15133.
     DOI: 10.1021/acsomega.9b02011
   
   for metadynamics refer to:
   * S. Grimme, J. Chem. Theory Comput., 2019, 155, 2847-2862
     DOI: 10.1021/acs.jctc.9b00143
   
   for SPH calculations refer to:
   * S. Spicher and S. Grimme, J. Chem. Theory Comput., 2021, 17, 1701-1714
     DOI: 10.1021/acs.jctc.0c01306
   
   with help from (in alphabetical order)
   P. Atkinson, C. Bannwarth, F. Bohle, G. Brandenburg, E. Caldeweyher
   M. Checinski, S. Dohm, S. Ehlert, S. Ehrlich, I. Gerasimov, C. Hölzer
   A. Katbashev, J. Koopman, C. Lavigne, S. Lehtola, F. März, M. Müller,
   F. Musil, H. Neugebauer, J. Pisarek, C. Plett, P. Pracht, F. Pultar,
   J. Seibert, P. Shushkov, S. Spicher, M. Stahn, M. Steiner, T. Strunk,
   J. Stückrath, T. Rose, and J. Unsleber
   
 * started run on 2023/01/23 at 13:53:08.479     

           -------------------------------------------------
          |                Calculation Setup                |
           -------------------------------------------------

          program call               : xtb init.xyz --opt -c 1 -u 0 -P 16
          hostname                   : gpg-woodward
          coordinate file            : init.xyz
          omp threads                :                    16

   ID    Z sym.   atoms
    1    7 N      1
    2    6 C      2-12, 14-18
    3    9 F      13
    4    1 H      19-35

           -------------------------------------------------
          |                 G F N 2 - x T B                 |
           -------------------------------------------------

        Reference                      10.1021/acs.jctc.8b01176
      * Hamiltonian:
        H0-scaling (s, p, d)           1.850000    2.230000    2.230000
        zeta-weighting                 0.500000
      * Dispersion:
        s8                             2.700000
        a1                             0.520000
        a2                             5.000000
        s9                             5.000000
      * Repulsion:
        kExp                           1.500000    1.000000
        rExp                           1.000000
      * Coulomb:
        alpha                          2.000000
        third order                    shell-resolved
        anisotropic                    true
        a3                             3.000000
        a5                             4.000000
        cn-shift                       1.200000
        cn-exp                         4.000000
        max-rad                        5.000000


          ...................................................
          :                      SETUP                      :
          :.................................................:
          :  # basis functions                  89          :
          :  # atomic orbitals                  89          :
          :  # shells                           53          :
          :  # electrons                        92          :
          :  max. iterations                   250          :
          :  Hamiltonian                  GFN2-xTB          :
          :  restarted?                      false          :
          :  GBSA solvation                  false          :
          :  PC potential                    false          :
          :  electronic temp.          300.0000000     K    :
          :  accuracy                    1.0000000          :
          :  -> integral cutoff          0.2500000E+02      :
          :  -> integral neglect         0.1000000E-07      :
          :  -> SCF convergence          0.1000000E-05 Eh   :
          :  -> wf. convergence          0.1000000E-03 e    :
          :  Broyden damping             0.4000000          :
          ...................................................

 iter      E             dE          RMSdq      gap      omega  full diag
   1    -50.7753742 -0.507754E+02  0.444E+00    3.02       0.0  T
   2    -50.9053166 -0.129942E+00  0.267E+00    2.92       1.0  T
   3    -50.9042942  0.102237E-02  0.131E+00    2.85       1.0  T
   4    -50.9090877 -0.479341E-02  0.620E-01    2.74       1.0  T
   5    -50.9160507 -0.696309E-02  0.127E-01    2.77       1.0  T
   6    -50.9162748 -0.224050E-03  0.745E-02    2.77       1.0  T
   7    -50.9163251 -0.502906E-04  0.260E-02    2.78       1.0  T
   8    -50.9163431 -0.180163E-04  0.711E-03    2.78       2.4  T
   9    -50.9163437 -0.602270E-06  0.279E-03    2.78       6.1  T
  10    -50.9163437 -0.393057E-07  0.130E-03    2.78      13.0  T
  11    -50.9163438 -0.334010E-07  0.457E-04    2.78      37.0  T
  12    -50.9163438 -0.258125E-08  0.190E-04    2.78      88.9  T

   *** convergence criteria satisfied after 12 iterations ***

         #    Occupation            Energy/Eh            Energy/eV
      -------------------------------------------------------------
         1        2.0000           -0.8924009             -24.2835
       ...           ...                  ...                  ...
        40        2.0000           -0.5219438             -14.2028
        41        2.0000           -0.5153673             -14.0239
        42        2.0000           -0.5110853             -13.9073
        43        2.0000           -0.4991150             -13.5816
        44        2.0000           -0.4954775             -13.4826
        45        2.0000           -0.4735166             -12.8850
        46        2.0000           -0.4625632             -12.5870 (HOMO)
        47                         -0.3603964              -9.8069 (LUMO)
        48                         -0.3395303              -9.2391
        49                         -0.3121928              -8.4952
        50                         -0.3000058              -8.1636
        51                         -0.2628493              -7.1525
       ...                                ...                  ...
        89                          0.5765633              15.6891
      -------------------------------------------------------------
                  HL-Gap            0.1021667 Eh            2.7801 eV
             Fermi-level           -0.4114798 Eh          -11.1969 eV

 SCC (total)                   0 d,  0 h,  0 min,  0.077 sec
 SCC setup                      ...        0 min,  0.000 sec (  0.347%)
 Dispersion                     ...        0 min,  0.001 sec (  0.946%)
 classical contributions        ...        0 min,  0.000 sec (  0.115%)
 integral evaluation            ...        0 min,  0.002 sec (  2.581%)
 iterations                     ...        0 min,  0.068 sec ( 88.896%)
 molecular gradient             ...        0 min,  0.004 sec (  5.777%)
 printout                       ...        0 min,  0.001 sec (  0.876%)

         :::::::::::::::::::::::::::::::::::::::::::::::::::::
         ::                     SUMMARY                     ::
         :::::::::::::::::::::::::::::::::::::::::::::::::::::
         :: total energy             -50.116219750181 Eh    ::
         :: gradient norm              0.044840296246 Eh/a0 ::
         :: HOMO-LUMO gap              2.780098387615 eV    ::
         ::.................................................::
         :: SCC energy               -50.916343776192 Eh    ::
         :: -> isotropic ES            0.117986621212 Eh    ::
         :: -> anisotropic ES         -0.010485899767 Eh    ::
         :: -> anisotropic XC          0.028258047518 Eh    ::
         :: -> dispersion             -0.031207112487 Eh    ::
         :: repulsion energy           0.800361666882 Eh    ::
         :: add. restraining           0.000000000000 Eh    ::
         :: total charge               1.000000000000 e     ::
         :::::::::::::::::::::::::::::::::::::::::::::::::::::

      ----------------------------------------------------------- 
     |                   =====================                   |
     |                        A N C O P T                        |
     |                   =====================                   |
     |               Approximate Normal Coordinate               |
     |                Rational Function Optimizer                |
      ----------------------------------------------------------- 

          ...................................................
          :                      SETUP                      :
          :.................................................:
          :   optimization level            normal          :
          :   max. optcycles                   200          :
          :   ANC micro-cycles                  20          :
          :   degrees of freedom                99          :
          :.................................................:
          :   RF solver                   davidson          :
          :   write xtbopt.log                true          :
          :   linear?                        false          :
          :   energy convergence         0.5000000E-05 Eh   :
          :   grad. convergence          0.1000000E-02 Eh/α :
          :   maximium RF displ.         1.0000000          :
          :   Hlow (freq-cutoff)         0.1000000E-01      :
          :   Hmax (freq-cutoff)         5.0000000          :
          :   S6 in model hess.         20.0000000          :
          ...................................................

generating ANC from model Hessian ...
Using Lindh-Hessian (1995)
 Shifting diagonal of input Hessian by    9.7300417579048604E-003
 Lowest  eigenvalues of input Hessian
    0.000000    0.000000    0.000000    0.000000    0.000000    0.000000
    0.010000    0.010365    0.010555    0.011217    0.011558    0.013103
    0.014054    0.015588    0.017802    0.020263    0.023309    0.023663
 Highest eigenvalues
    1.832143    1.870192    1.923376    1.966475    2.033181    2.075022


........................................................................
.............................. CYCLE    1 ..............................
........................................................................
   1    -50.9163438 -0.509163E+02  0.743E-05    2.78       0.0  T
   2    -50.9163438 -0.289972E-10  0.463E-05    2.78     365.4  T
   3    -50.9163438 -0.895994E-11  0.298E-05    2.78     567.8  T
     SCC iter.                  ...        0 min,  0.018 sec
     gradient                   ...        0 min,  0.005 sec
 * total energy  :   -50.1162198 Eh     change       -0.1529585E-09 Eh
   gradient norm :     0.0448390 Eh/α   predicted     0.0000000E+00 (-100.00%)
   displ. norm   :     0.2271848 α      lambda       -0.5166285E-02
   maximum displ.:     0.0976661 α      in ANC's #7, #25, #11, ...

........................................................................
.............................. CYCLE    2 ..............................
........................................................................
   1    -50.9507081 -0.509507E+02  0.150E-01    2.77       0.0  T
   2    -50.9507243 -0.161682E-04  0.894E-02    2.77       1.0  T
   3    -50.9506965  0.278418E-04  0.358E-02    2.77       1.0  T
   4    -50.9507286 -0.321209E-04  0.732E-03    2.77       2.3  T
   5    -50.9507298 -0.123116E-05  0.293E-03    2.77       5.8  T
   6    -50.9507299 -0.140290E-06  0.127E-03    2.77      13.3  T
   7    -50.9507300 -0.139870E-07  0.395E-04    2.77      42.7  T
   8    -50.9507300 -0.166973E-08  0.160E-04    2.77     105.5  T
     SCC iter.                  ...        0 min,  0.045 sec
     gradient                   ...        0 min,  0.004 sec
 * total energy  :   -50.1195722 Eh     change       -0.3352432E-02 Eh
   gradient norm :     0.0188696 Eh/α   predicted    -0.2716967E-02 ( -18.96%)
   displ. norm   :     0.2281090 α      lambda       -0.1250315E-02
   maximum displ.:     0.1373087 α      in ANC's #7, #4, #5, ...

........................................................................
.............................. CYCLE    3 ..............................
........................................................................
   1    -50.9647303 -0.509647E+02  0.814E-02    2.74       0.0  T
   2    -50.9647397 -0.937988E-05  0.484E-02    2.75       1.0  T
   3    -50.9647274  0.122740E-04  0.275E-02    2.75       1.0  T
   4    -50.9647445 -0.171343E-04  0.463E-03    2.75       3.7  T
   5    -50.9647449 -0.380998E-06  0.219E-03    2.75       7.7  T
   6    -50.9647450 -0.123089E-06  0.810E-04    2.75      20.9  T
   7    -50.9647450 -0.475120E-08  0.276E-04    2.75      61.3  T
     SCC iter.                  ...        0 min,  0.039 sec
     gradient                   ...        0 min,  0.005 sec
 * total energy  :   -50.1203901 Eh     change       -0.8179295E-03 Eh
   gradient norm :     0.0068352 Eh/α   predicted    -0.6582249E-03 ( -19.53%)
   displ. norm   :     0.2566366 α      lambda       -0.5580153E-03
   maximum displ.:     0.1461293 α      in ANC's #7, #4, #5, ...

........................................................................
.............................. CYCLE    4 ..............................
........................................................................
   1    -50.9671141 -0.509671E+02  0.707E-02    2.71       0.0  T
   2    -50.9671215 -0.735452E-05  0.416E-02    2.72       1.0  T
   3    -50.9671120  0.948595E-05  0.253E-02    2.72       1.0  T
   4    -50.9671266 -0.145958E-04  0.370E-03    2.72       4.6  T
   5    -50.9671269 -0.277977E-06  0.171E-03    2.72       9.9  T
   6    -50.9671270 -0.800462E-07  0.632E-04    2.72      26.7  T
   7    -50.9671270 -0.254411E-08  0.248E-04    2.72      68.1  T
     SCC iter.                  ...        0 min,  0.039 sec
     gradient                   ...        0 min,  0.004 sec
 * total energy  :   -50.1208250 Eh     change       -0.4349204E-03 Eh
   gradient norm :     0.0064672 Eh/α   predicted    -0.2973851E-03 ( -31.62%)
   displ. norm   :     0.4288861 α      lambda       -0.6781328E-03
   maximum displ.:     0.2182105 α      in ANC's #7, #5, #4, ...

........................................................................
.............................. CYCLE    5 ..............................
........................................................................
   1    -50.9647607 -0.509648E+02  0.117E-01    2.66       0.0  T
   2    -50.9647743 -0.136258E-04  0.688E-02    2.67       1.0  T
   3    -50.9647441  0.302366E-04  0.390E-02    2.67       1.0  T
   4    -50.9647843 -0.402275E-04  0.534E-03    2.67       3.2  T
   5    -50.9647850 -0.664549E-06  0.228E-03    2.67       7.4  T
   6    -50.9647851 -0.129228E-06  0.901E-04    2.67      18.8  T
   7    -50.9647851 -0.512120E-08  0.375E-04    2.67      45.1  T
     SCC iter.                  ...        0 min,  0.038 sec
     gradient                   ...        0 min,  0.004 sec
 * total energy  :   -50.1213397 Eh     change       -0.5146459E-03 Eh
   gradient norm :     0.0105800 Eh/α   predicted    -0.4014375E-03 ( -22.00%)
   displ. norm   :     0.4191337 α      lambda       -0.5358427E-03
   maximum displ.:     0.2207931 α      in ANC's #5, #4, #7, ...

........................................................................
.............................. CYCLE    6 ..............................
........................................................................
   1    -50.9609998 -0.509610E+02  0.121E-01    2.64       0.0  T
   2    -50.9610095 -0.972371E-05  0.707E-02    2.64       1.0  T
   3    -50.9609790  0.304429E-04  0.349E-02    2.64       1.0  T
   4    -50.9610161 -0.370927E-04  0.488E-03    2.64       3.5  T
   5    -50.9610167 -0.584435E-06  0.195E-03    2.64       8.7  T
   6    -50.9610168 -0.850650E-07  0.813E-04    2.64      20.8  T
   7    -50.9610168 -0.414452E-08  0.350E-04    2.64      48.2  T
     SCC iter.                  ...        0 min,  0.038 sec
     gradient                   ...        0 min,  0.004 sec
 * total energy  :   -50.1217678 Eh     change       -0.4280783E-03 Eh
   gradient norm :     0.0113283 Eh/α   predicted    -0.3149905E-03 ( -26.42%)
   displ. norm   :     0.4332914 α      lambda       -0.5638496E-03
   maximum displ.:     0.2390191 α      in ANC's #5, #4, #3, ...

........................................................................
.............................. CYCLE    7 ..............................
........................................................................
   1    -50.9582026 -0.509582E+02  0.132E-01    2.62       0.0  T
   2    -50.9582114 -0.881609E-05  0.769E-02    2.63       1.0  T
   3    -50.9581829  0.285338E-04  0.314E-02    2.63       1.0  T
   4    -50.9582166 -0.337089E-04  0.486E-03    2.63       3.5  T
   5    -50.9582172 -0.569005E-06  0.193E-03    2.63       8.8  T
   6    -50.9582173 -0.737027E-07  0.792E-04    2.63      21.3  T
   7    -50.9582173 -0.343772E-08  0.342E-04    2.63      49.4  T
     SCC iter.                  ...        0 min,  0.039 sec
     gradient                   ...        0 min,  0.004 sec
 * total energy  :   -50.1222174 Eh     change       -0.4496232E-03 Eh
   gradient norm :     0.0088746 Eh/α   predicted    -0.3348565E-03 ( -25.53%)
   displ. norm   :     0.4475938 α      lambda       -0.5825719E-03
   maximum displ.:     0.2589839 α      in ANC's #5, #3, #4, ...

........................................................................
.............................. CYCLE    8 ..............................
........................................................................
   1    -50.9576553 -0.509577E+02  0.141E-01    2.62       0.0  T
   2    -50.9576657 -0.103501E-04  0.822E-02    2.62       1.0  T
   3    -50.9576355  0.301897E-04  0.318E-02    2.62       1.0  T
   4    -50.9576716 -0.361334E-04  0.482E-03    2.62       3.5  T
   5    -50.9576722 -0.531671E-06  0.207E-03    2.62       8.2  T
   6    -50.9576722 -0.809476E-07  0.816E-04    2.62      20.7  T
   7    -50.9576723 -0.358116E-08  0.344E-04    2.62      49.2  T
     SCC iter.                  ...        0 min,  0.039 sec
     gradient                   ...        0 min,  0.004 sec
 * total energy  :   -50.1226712 Eh     change       -0.4538653E-03 Eh
   gradient norm :     0.0066796 Eh/α   predicted    -0.3496681E-03 ( -22.96%)
   displ. norm   :     0.4364184 α      lambda       -0.5286000E-03
   maximum displ.:     0.2653011 α      in ANC's #5, #3, #4, ...

........................................................................
.............................. CYCLE    9 ..............................
........................................................................
   1    -50.9591319 -0.509591E+02  0.141E-01    2.62       0.0  T
   2    -50.9591441 -0.122156E-04  0.825E-02    2.62       1.0  T
   3    -50.9591106  0.335275E-04  0.339E-02    2.62       1.0  T
   4    -50.9591515 -0.409089E-04  0.478E-03    2.62       3.5  T
   5    -50.9591521 -0.540449E-06  0.199E-03    2.62       8.5  T
   6    -50.9591521 -0.727248E-07  0.828E-04    2.62      20.4  T
   7    -50.9591521 -0.411818E-08  0.336E-04    2.62      50.4  T
     SCC iter.                  ...        0 min,  0.039 sec
     gradient                   ...        0 min,  0.004 sec
 * total energy  :   -50.1230834 Eh     change       -0.4121531E-03 Eh
   gradient norm :     0.0075743 Eh/α   predicted    -0.3146402E-03 ( -23.66%)
   displ. norm   :     0.4523749 α      lambda       -0.4744939E-03
   maximum displ.:     0.2940452 α      in ANC's #5, #3, #14, ...

........................................................................
.............................. CYCLE   10 ..............................
........................................................................
   1    -50.9607766 -0.509608E+02  0.154E-01    2.61       0.0  T
   2    -50.9607934 -0.167868E-04  0.900E-02    2.61       1.0  T
   3    -50.9607503  0.430809E-04  0.392E-02    2.61       1.0  T
   4    -50.9608034 -0.531768E-04  0.556E-03    2.61       3.0  T
   5    -50.9608042 -0.797476E-06  0.206E-03    2.61       8.2  T
   6    -50.9608043 -0.824060E-07  0.900E-04    2.61      18.8  T
   7    -50.9608043 -0.443041E-08  0.379E-04    2.61      44.6  T
     SCC iter.                  ...        0 min,  0.039 sec
     gradient                   ...        0 min,  0.004 sec
 * total energy  :   -50.1234562 Eh     change       -0.3727965E-03 Eh
   gradient norm :     0.0079062 Eh/α   predicted    -0.2858019E-03 ( -23.34%)
   displ. norm   :     0.4527773 α      lambda       -0.4096522E-03
   maximum displ.:     0.3163876 α      in ANC's #5, #3, #14, ...

........................................................................
.............................. CYCLE   11 ..............................
........................................................................
   1    -50.9617143 -0.509617E+02  0.166E-01    2.59       0.0  T
   2    -50.9617364 -0.221668E-04  0.970E-02    2.59       1.0  T
   3    -50.9616864  0.500472E-04  0.434E-02    2.59       1.0  T
   4    -50.9617492 -0.628552E-04  0.609E-03    2.59       2.8  T
   5    -50.9617502 -0.989333E-06  0.222E-03    2.59       7.6  T
   6    -50.9617503 -0.111460E-06  0.925E-04    2.59      18.3  T
   7    -50.9617503 -0.482792E-08  0.426E-04    2.59      39.6  T
     SCC iter.                  ...        0 min,  0.038 sec
     gradient                   ...        0 min,  0.004 sec
 * total energy  :   -50.1237735 Eh     change       -0.3172679E-03 Eh
   gradient norm :     0.0061410 Eh/α   predicted    -0.2468191E-03 ( -22.20%)
   displ. norm   :     0.3937125 α      lambda       -0.2935799E-03
   maximum displ.:     0.2915141 α      in ANC's #5, #3, #14, ...

........................................................................
.............................. CYCLE   12 ..............................
........................................................................
   1    -50.9615359 -0.509615E+02  0.154E-01    2.58       0.0  T
   2    -50.9615576 -0.216630E-04  0.901E-02    2.58       1.0  T
   3    -50.9615177  0.399078E-04  0.404E-02    2.58       1.0  T
   4    -50.9615691 -0.514588E-04  0.522E-03    2.58       3.2  T
   5    -50.9615698 -0.688414E-06  0.231E-03    2.58       7.3  T
   6    -50.9615699 -0.138873E-06  0.847E-04    2.58      19.9  T
   7    -50.9615699 -0.465651E-08  0.409E-04    2.58      41.3  T
     SCC iter.                  ...        0 min,  0.038 sec
     gradient                   ...        0 min,  0.004 sec
 * total energy  :   -50.1239987 Eh     change       -0.2252481E-03 Eh
   gradient norm :     0.0051771 Eh/α   predicted    -0.1695449E-03 ( -24.73%)
   displ. norm   :     0.3130822 α      lambda       -0.2415616E-03
   maximum displ.:     0.2319027 α      in ANC's #5, #3, #4, ...

........................................................................
.............................. CYCLE   13 ..............................
........................................................................
   1    -50.9648012 -0.509648E+02  0.131E-01    2.57       0.0  T
   2    -50.9648136 -0.124647E-04  0.768E-02    2.57       1.0  T
   3    -50.9647870  0.266476E-04  0.329E-02    2.57       1.0  T
   4    -50.9648214 -0.343644E-04  0.264E-03    2.57       6.4  T
   5    -50.9648216 -0.194235E-06  0.116E-03    2.57      14.5  T
   6    -50.9648216 -0.194014E-07  0.619E-04    2.57      27.3  T
   7    -50.9648216 -0.376090E-08  0.270E-04    2.57      62.7  T
     SCC iter.                  ...        0 min,  0.038 sec
     gradient                   ...        0 min,  0.004 sec
 * total energy  :   -50.1241365 Eh     change       -0.1377908E-03 Eh
   gradient norm :     0.0076428 Eh/α   predicted    -0.1326220E-03 (  -3.75%)
   displ. norm   :     0.5338738 α      lambda       -0.3754218E-03
   maximum displ.:     0.4156750 α      in ANC's #5, #3, #14, ...

........................................................................
.............................. CYCLE   14 ..............................
........................................................................
   1    -50.9570702 -0.509571E+02  0.220E-01    2.54       0.0  T
   2    -50.9571272 -0.570000E-04  0.128E-01    2.54       1.0  T
   3    -50.9570603  0.668325E-04  0.590E-02    2.54       1.0  T
   4    -50.9571523 -0.920064E-04  0.693E-03    2.54       2.4  T
   5    -50.9571533 -0.915971E-06  0.393E-03    2.54       4.3  T
   6    -50.9571537 -0.409614E-06  0.154E-03    2.54      11.0  T
   7    -50.9571537 -0.158240E-07  0.746E-04    2.54      22.6  T
   8    -50.9571537 -0.837755E-08  0.112E-04    2.54     151.1  T
     SCC iter.                  ...        0 min,  0.044 sec
     gradient                   ...        0 min,  0.004 sec
 * total energy  :   -50.1242294 Eh     change       -0.9291468E-04 Eh
   gradient norm :     0.0111199 Eh/α   predicted    -0.2412130E-03 ( 159.61%)
   displ. norm   :     0.1708750 α      lambda       -0.2647939E-03
   maximum displ.:     0.0945651 α      in ANC's #5, #3, #4, ...

........................................................................
.............................. CYCLE   15 ..............................
........................................................................
   1    -50.9624997 -0.509625E+02  0.581E-02    2.57       0.0  T
   2    -50.9625056 -0.597456E-05  0.339E-02    2.57       1.0  T
   3    -50.9625004  0.518939E-05  0.174E-02    2.57       1.0  T
   4    -50.9625078 -0.732042E-05  0.374E-03    2.57       4.5  T
   5    -50.9625081 -0.302566E-06  0.159E-03    2.57      10.6  T
   6    -50.9625081 -0.663122E-07  0.580E-04    2.57      29.1  T
   7    -50.9625081 -0.149856E-08  0.260E-04    2.57      65.0  T
     SCC iter.                  ...        0 min,  0.038 sec
     gradient                   ...        0 min,  0.004 sec
 * total energy  :   -50.1243989 Eh     change       -0.1695194E-03 Eh
   gradient norm :     0.0057102 Eh/α   predicted    -0.1362705E-03 ( -19.61%)
   displ. norm   :     0.1770162 α      lambda       -0.1918856E-03
   maximum displ.:     0.1087646 α      in ANC's #5, #4, #2, ...

........................................................................
.............................. CYCLE   16 ..............................
........................................................................
   1    -50.9631610 -0.509632E+02  0.666E-02    2.57       0.0  T
   2    -50.9631633 -0.235093E-05  0.391E-02    2.57       1.0  T
   3    -50.9631574  0.590538E-05  0.163E-02    2.57       1.0  T
   4    -50.9631648 -0.738123E-05  0.168E-03    2.57      10.1  T
   5    -50.9631649 -0.437829E-07  0.837E-04    2.57      20.2  T
   6    -50.9631649 -0.863898E-08  0.399E-04    2.57      42.3  T
     SCC iter.                  ...        0 min,  0.033 sec
     gradient                   ...        0 min,  0.004 sec
 * total energy  :   -50.1245309 Eh     change       -0.1319148E-03 Eh
   gradient norm :     0.0050237 Eh/α   predicted    -0.9895390E-04 ( -24.99%)
   displ. norm   :     0.3113520 α      lambda       -0.2054149E-03
   maximum displ.:     0.1875343 α      in ANC's #5, #4, #7, ...

........................................................................
.............................. CYCLE   17 ..............................
........................................................................
   1    -50.9637673 -0.509638E+02  0.113E-01    2.59       0.0  T
   2    -50.9637728 -0.548872E-05  0.660E-02    2.58       1.0  T
   3    -50.9637561  0.167408E-04  0.270E-02    2.58       1.0  T
   4    -50.9637765 -0.203646E-04  0.296E-03    2.58       5.7  T
   5    -50.9637766 -0.172432E-06  0.132E-03    2.58      12.9  T
   6    -50.9637766 -0.169690E-07  0.631E-04    2.58      26.8  T
   7    -50.9637767 -0.498736E-08  0.201E-04    2.58      83.9  T
     SCC iter.                  ...        0 min,  0.038 sec
     gradient                   ...        0 min,  0.004 sec
 * total energy  :   -50.1246569 Eh     change       -0.1260869E-03 Eh
   gradient norm :     0.0051748 Eh/α   predicted    -0.1126636E-03 ( -10.65%)
   displ. norm   :     0.2167263 α      lambda       -0.9941324E-04
   maximum displ.:     0.1601751 α      in ANC's #5, #4, #3, ...

........................................................................
.............................. CYCLE   18 ..............................
........................................................................
   1    -50.9623133 -0.509623E+02  0.835E-02    2.57       0.0  T
   2    -50.9623166 -0.328168E-05  0.487E-02    2.57       1.0  T
   3    -50.9623085  0.806697E-05  0.173E-02    2.57       1.0  T
   4    -50.9623185 -0.997219E-05  0.140E-03    2.57      12.0  T
   5    -50.9623185 -0.314968E-07  0.771E-04    2.57      21.9  T
   6    -50.9623185 -0.552256E-08  0.344E-04    2.57      49.1  T
     SCC iter.                  ...        0 min,  0.033 sec
     gradient                   ...        0 min,  0.004 sec
 * total energy  :   -50.1247222 Eh     change       -0.6522002E-04 Eh
   gradient norm :     0.0039338 Eh/α   predicted    -0.5204290E-04 ( -20.20%)
   displ. norm   :     0.1315955 α      lambda       -0.7275613E-04
   maximum displ.:     0.0800967 α      in ANC's #5, #4, #1, ...

........................................................................
.............................. CYCLE   19 ..............................
........................................................................
   1    -50.9620760 -0.509621E+02  0.451E-02    2.57       0.0  T
   2    -50.9620766 -0.581833E-06  0.263E-02    2.57       1.0  T
   3    -50.9620758  0.804182E-06  0.494E-03    2.57       3.4  T
   4    -50.9620767 -0.976395E-06  0.877E-04    2.57      19.3  T
   5    -50.9620768 -0.169643E-07  0.401E-04    2.57      42.1  T
     SCC iter.                  ...        0 min,  0.026 sec
     gradient                   ...        0 min,  0.004 sec
 * total energy  :   -50.1247753 Eh     change       -0.5317086E-04 Eh
   gradient norm :     0.0027969 Eh/α   predicted    -0.3701144E-04 ( -30.39%)
   displ. norm   :     0.1426047 α      lambda       -0.7256597E-04
   maximum displ.:     0.0629617 α      in ANC's #1, #14, #4, ...

........................................................................
.............................. CYCLE   20 ..............................
........................................................................
   1    -50.9629031 -0.509629E+02  0.429E-02    2.57       0.0  T
   2    -50.9629038 -0.710506E-06  0.251E-02    2.57       1.0  T
   3    -50.9629030  0.822910E-06  0.583E-03    2.57       2.9  T
   4    -50.9629040 -0.984187E-06  0.110E-03    2.57      15.4  T
   5    -50.9629040 -0.258900E-07  0.475E-04    2.57      35.6  T
   6    -50.9629040 -0.166862E-08  0.270E-04    2.57      62.5  T
     SCC iter.                  ...        0 min,  0.029 sec
     gradient                   ...        0 min,  0.004 sec
 * total energy  :   -50.1248170 Eh     change       -0.4165217E-04 Eh
   gradient norm :     0.0032177 Eh/α   predicted    -0.3702390E-04 ( -11.11%)
   displ. norm   :     0.1083472 α      lambda       -0.4480683E-04
   maximum displ.:     0.0658742 α      in ANC's #5, #1, #14, ...
 * RMSD in coord.:     0.7646111 α      energy gain  -0.8597230E-02 Eh

generating ANC from model Hessian ...
Using Lindh-Hessian (1995)
 Shifting diagonal of input Hessian by    9.6665869338794473E-003
 Lowest  eigenvalues of input Hessian
    0.000000    0.000000    0.000000    0.000000    0.000000    0.000000
    0.010000    0.010351    0.010675    0.011436    0.012182    0.013586
    0.014957    0.016699    0.018604    0.020981    0.024060    0.024929
 Highest eigenvalues
    1.895255    1.925745    1.976156    2.039683    2.099293    2.128460


........................................................................
.............................. CYCLE   21 ..............................
........................................................................
   1    -50.9621495 -0.509621E+02  0.378E-02    2.57       0.0  T
   2    -50.9621497 -0.220915E-06  0.223E-02    2.57       1.0  T
   3    -50.9621494  0.302045E-06  0.324E-03    2.57       5.2  T
   4    -50.9621498 -0.374802E-06  0.812E-04    2.57      20.8  T
   5    -50.9621498 -0.889106E-08  0.424E-04    2.57      39.9  T
     SCC iter.                  ...        0 min,  0.024 sec
     gradient                   ...        0 min,  0.004 sec
 * total energy  :   -50.1248375 Eh     change       -0.2051440E-04 Eh
   gradient norm :     0.0036299 Eh/α   predicted     0.0000000E+00 (-100.00%)
   displ. norm   :     0.0364882 α      lambda       -0.3791038E-04
   maximum displ.:     0.0175921 α      in ANC's #7, #6, #10, ...

........................................................................
.............................. CYCLE   22 ..............................
........................................................................
   1    -50.9626170 -0.509626E+02  0.177E-02    2.57       0.0  T
   2    -50.9626172 -0.181147E-06  0.106E-02    2.57       1.6  T
   3    -50.9626166  0.569131E-06  0.401E-03    2.57       4.2  T
   4    -50.9626173 -0.675147E-06  0.434E-04    2.57      39.0  T
   5    -50.9626173 -0.429610E-08  0.240E-04    2.57      70.5  T
     SCC iter.                  ...        0 min,  0.024 sec
     gradient                   ...        0 min,  0.004 sec
 * total energy  :   -50.1248682 Eh     change       -0.3065919E-04 Eh
   gradient norm :     0.0016920 Eh/α   predicted    -0.2059677E-04 ( -32.82%)
   displ. norm   :     0.0976412 α      lambda       -0.3456118E-04
   maximum displ.:     0.0528708 α      in ANC's #7, #6, #10, ...

........................................................................
.............................. CYCLE   23 ..............................
........................................................................
   1    -50.9630898 -0.509631E+02  0.361E-02    2.57       0.0  T
   2    -50.9630903 -0.504325E-06  0.214E-02    2.57       1.0  T
   3    -50.9630886  0.173495E-05  0.658E-03    2.57       2.6  T
   4    -50.9630906 -0.199830E-05  0.920E-04    2.57      18.4  T
   5    -50.9630906 -0.192925E-07  0.475E-04    2.57      35.6  T
   6    -50.9630906 -0.348478E-08  0.215E-04    2.57      78.5  T
     SCC iter.                  ...        0 min,  0.029 sec
     gradient                   ...        0 min,  0.004 sec
 * total energy  :   -50.1248915 Eh     change       -0.2336886E-04 Eh
   gradient norm :     0.0022507 Eh/α   predicted    -0.1735496E-04 ( -25.73%)
   displ. norm   :     0.0216704 α      lambda       -0.9581409E-05
   maximum displ.:     0.0107547 α      in ANC's #6, #7, #1, ...

........................................................................
.............................. CYCLE   24 ..............................
........................................................................
   1    -50.9630134 -0.509630E+02  0.843E-03    2.57       0.0  T
   2    -50.9630135 -0.164722E-07  0.497E-03    2.57       3.4  T
   3    -50.9630134  0.546932E-07  0.126E-03    2.57      13.4  T
   4    -50.9630135 -0.638700E-07  0.183E-04    2.57      92.2  T
   5    -50.9630135 -0.472845E-09  0.882E-05    2.57     191.6  T
     SCC iter.                  ...        0 min,  0.024 sec
     gradient                   ...        0 min,  0.004 sec
 * total energy  :   -50.1248998 Eh     change       -0.8264748E-05 Eh
   gradient norm :     0.0015554 Eh/α   predicted    -0.4793196E-05 ( -42.00%)
   displ. norm   :     0.1166576 α      lambda       -0.2194228E-04
   maximum displ.:     0.0563022 α      in ANC's #6, #7, #1, ...

........................................................................
.............................. CYCLE   25 ..............................
........................................................................
   1    -50.9626593 -0.509627E+02  0.441E-02    2.56       0.0  T
   2    -50.9626596 -0.313104E-06  0.259E-02    2.56       1.0  T
   3    -50.9626586  0.101010E-05  0.548E-03    2.56       3.1  T
   4    -50.9626598 -0.117136E-05  0.862E-04    2.57      19.6  T
   5    -50.9626598 -0.114943E-07  0.407E-04    2.57      41.5  T
   6    -50.9626598 -0.144492E-08  0.208E-04    2.57      81.2  T
     SCC iter.                  ...        0 min,  0.029 sec
     gradient                   ...        0 min,  0.004 sec
 * total energy  :   -50.1249118 Eh     change       -0.1204887E-04 Eh
   gradient norm :     0.0013212 Eh/α   predicted    -0.1103833E-04 (  -8.39%)
   displ. norm   :     0.0121468 α      lambda       -0.3649026E-05
   maximum displ.:     0.0056984 α      in ANC's #4, #2, #7, ...

........................................................................
.............................. CYCLE   26 ..............................
........................................................................
   1    -50.9628663 -0.509629E+02  0.654E-03    2.57       0.0  T
   2    -50.9628663 -0.154504E-07  0.387E-03    2.57       4.4  T
   3    -50.9628662  0.606946E-07  0.135E-03    2.57      12.5  T
   4    -50.9628663 -0.718602E-07  0.147E-04    2.57     114.7  T
   5    -50.9628663 -0.302578E-09  0.928E-05    2.57     182.2  T
     SCC iter.                  ...        0 min,  0.024 sec
     gradient                   ...        0 min,  0.003 sec
 * total energy  :   -50.1249158 Eh     change       -0.3982199E-05 Eh
   gradient norm :     0.0005008 Eh/α   predicted    -0.1826949E-05 ( -54.12%)
   displ. norm   :     0.0351449 α      lambda       -0.3378369E-05
   maximum displ.:     0.0204518 α      in ANC's #4, #2, #1, ...

   *** GEOMETRY OPTIMIZATION CONVERGED AFTER 26 ITERATIONS ***

------------------------------------------------------------------------
 total energy gain   :        -0.0086961 Eh       -5.4569 kcal/mol
 total RMSD          :         0.7736143 a0        0.4094 Å
 total power (kW/mol):        -0.8781355 (step)  -20.6445 (real)
------------------------------------------------------------------------

 ANCopt (total)                0 d,  0 h,  0 min,  1.106 sec
 optimizer setup                ...        0 min,  0.000 sec (  0.013%)
 model hessian                  ...        0 min,  0.021 sec (  1.929%)
 ANC generation                 ...        0 min,  0.008 sec (  0.696%)
 coordinate transformation      ...        0 min,  0.001 sec (  0.125%)
 single point calculation       ...        0 min,  1.063 sec ( 96.085%)
 optimization log               ...        0 min,  0.004 sec (  0.358%)
 hessian update                 ...        0 min,  0.001 sec (  0.111%)
 rational function              ...        0 min,  0.004 sec (  0.384%)

================
 final structure:
================
35
 xtb: 6.5.1 (fef0646)
N            3.22033196267282       -2.05380431023637        1.94710262203701
C            2.51789957202354       -2.41453757405720        0.68043389112225
C            2.97697201379439       -1.43589480780161       -0.40417717620709
C            4.48108279688393       -1.47565431524933       -0.48209694261310
C            5.13158993158819       -2.39090238217149       -1.30319511883637
C            6.50754502814776       -2.48065317634887       -1.31124086022108
C            7.29265361707551       -1.66657667436383       -0.48527007365738
C            8.73973782074027       -1.71760614148501       -0.46270416006339
C            9.51620411569368       -2.28468807067101       -1.39865996606216
C           10.96567799479911       -2.31695189823780       -1.39600577012987
C           11.72291536188326       -2.01959341414175       -0.26061107589993
C           13.09939277017563       -2.06446567504322       -0.33584210771062
F           13.81153564011785       -1.78144111582183        0.77067051644142
C           13.76856147773918       -2.39076244112043       -1.50354551310104
C           13.01699089723487       -2.69042201167927       -2.62729757234460
C           11.63655942371640       -2.66160555851435       -2.57396396563044
C            6.63283977694872       -0.75895235444872        0.34881764182598
C            5.25245247649524       -0.66329120444535        0.35420696796633
H            3.27041517424631       -2.83288100644335        2.60950706015343
H            2.76495900593243       -1.25621091803266        2.40389304279874
H            4.18786104155526       -1.74881016985387        1.64071065883335
H            1.43906276128429       -2.38031386496746        0.82862088451965
H            2.80828027519435       -3.42904821072291        0.40478151686351
H            2.62926978367007       -0.42812743673823       -0.17180685133914
H            2.53657949852813       -1.73225190686894       -1.35457409836461
H            4.55040440937841       -3.02865249718337       -1.95241395178916
H            6.98133624530296       -3.19872693986625       -1.96060003777737
H            9.19734049920103       -1.20499365896707        0.37196487418395
H            9.05963358812910       -2.73408798904059       -2.27061434326169
H           11.26045957699169       -1.77197932523060        0.68101327478408
H           14.84613842851585       -2.41046017453428       -1.51853586122226
H           13.51494047461465       -2.95073522524663       -3.54829805553301
H           11.06347542776121       -2.89730465837210       -3.45849042087298
H            7.21224864936090       -0.10570332539231        0.98440042475453
H            4.78622248260311        0.12238043329664        0.93792054635329

 Bond Distances (Angstroems)
 ---------------------------
N1-C2=1.4926         N1-H19=1.0238        N1-H20=1.0258        N1-H21=1.0597        C2-N1=1.4926         C2-C3=1.5313         
C2-H22=1.0895        C2-H23=1.0907        C3-C2=1.5313         C3-C4=1.5067         C3-H24=1.0911        C3-H25=1.0886        
C4-C3=1.5067         C4-C5=1.3911         C4-C18=1.3980        C5-C4=1.3911         C5-C6=1.3789         C5-H26=1.0798        
C6-C5=1.3789         C6-C7=1.4005         C6-H27=1.0779        C7-C6=1.4005         C7-C8=1.4482         C7-C17=1.3982        
C8-C7=1.4482         C8-C9=1.3418         C8-H28=1.0811        C9-C8=1.3418         C9-C10=1.4498        C9-H29=1.0820        
C10-C9=1.4498        C10-C11=1.3968       C10-C16=1.3987       C11-C10=1.3968       C11-C12=1.3793       C11-H30=1.0779       
C12-C11=1.3793       C12-F13=1.3460       C12-C14=1.3848       F13-C12=1.3460       C14-C12=1.3848       C14-C15=1.3847       
C14-H31=1.0779       C15-C14=1.3847       C15-C16=1.3818       C15-H32=1.0789       C16-C10=1.3987       C16-C15=1.3818       
C16-H33=1.0800       C17-C7=1.3982        C17-C18=1.3837       C17-H34=1.0800       C18-C4=1.3980        C18-C17=1.3837       
C18-H35=1.0841       H19-N1=1.0238        H20-N1=1.0258        H21-N1=1.0597        H22-C2=1.0895        H23-C2=1.0907        
H24-C3=1.0911        H25-C3=1.0886        H26-C5=1.0798        H27-C6=1.0779        H28-C8=1.0811        H29-C9=1.0820        
H30-C11=1.0779       H31-C14=1.0779       H32-C15=1.0789       H33-C16=1.0800       H34-C17=1.0800       H35-C18=1.0841       
 C  H  Rav=1.0828 sigma=0.0048  Rmin=1.0779  Rmax=1.0911    14
 C  C  Rav=1.4091 sigma=0.0469  Rmin=1.3418  Rmax=1.5313    17
 N  H  Rav=1.0364 sigma=0.0165  Rmin=1.0238  Rmax=1.0597     3
 N  C  Rav=1.4926 sigma=0.0000  Rmin=1.4926  Rmax=1.4926     1
 F  C  Rav=1.3460 sigma=0.0000  Rmin=1.3460  Rmax=1.3460     1

 selected bond angles (degree)
 --------------------
H19-N1-C2=112.84               H20-N1-C2=110.91               H20-N1-H19=108.98              H21-N1-C2=104.71               
H21-N1-H19=111.19              H21-N1-H20=108.08              C3-C2-N1=107.79                H22-C2-N1=110.06               
H22-C2-C3=111.91               H23-C2-N1=108.30               H23-C2-C3=109.61               H23-C2-H22=109.10              
C4-C3-C2=108.61                H24-C3-C2=110.11               H24-C3-C4=110.70               H25-C3-C2=108.85               
H25-C3-C4=110.58               H25-C3-H24=107.97              C5-C4-C3=120.98                C18-C4-C3=120.30               
C18-C4-C5=118.52               C6-C5-C4=120.86                H26-C5-C4=119.46               H26-C5-C6=119.68               
C7-C6-C5=121.21                H27-C6-C5=119.05               H27-C6-C7=119.75               C8-C7-C6=123.29                
C17-C7-C6=117.69               C17-C7-C8=119.02               C9-C8-C7=125.61                H28-C8-C7=114.73               
H28-C8-C9=119.60               C10-C9-C8=125.92               H29-C9-C8=119.57               H29-C9-C10=114.46              
C11-C10-C9=122.60              C16-C10-C9=118.91              C16-C10-C11=118.49             

 selected dihedral angles (degree)
 ---------------------------------
C3-C2-N1-H19=202.40           C3-C2-N1-H20= 79.80           C3-C2-N1-H21=323.46           H22-C2-N1-H19= 80.10          
H22-C2-N1-H20=317.50          H22-C2-N1-H21=201.17          H23-C2-N1-H19=320.92          H23-C2-N1-H20=198.32          
H23-C2-N1-H21= 81.98          C4-C3-C2-N1= 55.05            C4-C3-C2-H22=176.20           C4-C3-C2-H23=297.37           
H24-C3-C2-N1=293.68           H24-C3-C2-H22= 54.83          H24-C3-C2-H23=176.01          H25-C3-C2-N1=175.50           
H25-C3-C2-H22=296.65          H25-C3-C2-H23= 57.83          C5-C4-C3-C2= 88.14            C5-C4-C3-H24=209.14           
C5-C4-C3-H25=328.76           C18-C4-C3-C2=273.36           C18-C4-C3-H24= 34.36          C18-C4-C3-H25=153.98          
C6-C5-C4-C3=184.01            C6-C5-C4-C18=358.88           H26-C5-C4-C3=  4.89           H26-C5-C4-C18=179.76          
C7-C6-C5-C4=  0.71            C7-C6-C5-H26=179.82           H27-C6-C5-C4=180.14           H27-C6-C5-H26=359.25          
C8-C7-C6-C5=180.36            C8-C7-C6-H27=  0.94           C17-C7-C6-C5=  0.00           C17-C7-C6-H27=180.59          
C9-C8-C7-C6= 16.31            C9-C8-C7-C17=196.66           H28-C8-C7-C6=193.39           H28-C8-C7-C17= 13.74          
C10-C9-C8-C7=178.72           C10-C9-C8-H28=  1.77          H29-C9-C8-C7=  1.42           H29-C9-C8-H28=184.47          
C11-C10-C9-C8= 14.90          C11-C10-C9-H29=192.32         C16-C10-C9-C8=194.77          C16-C10-C9-H29= 12.19         
           -------------------------------------------------
          |                Final Singlepoint                |
           -------------------------------------------------

          ...................................................
          :                      SETUP                      :
          :.................................................:
          :  # basis functions                  89          :
          :  # atomic orbitals                  89          :
          :  # shells                           53          :
          :  # electrons                        92          :
          :  max. iterations                   250          :
          :  Hamiltonian                  GFN2-xTB          :
          :  restarted?                      false          :
          :  GBSA solvation                  false          :
          :  PC potential                    false          :
          :  electronic temp.          300.0000000     K    :
          :  accuracy                    1.0000000          :
          :  -> integral cutoff          0.2500000E+02      :
          :  -> integral neglect         0.1000000E-07      :
          :  -> SCF convergence          0.1000000E-05 Eh   :
          :  -> wf. convergence          0.1000000E-03 e    :
          :  Broyden damping             0.4000000          :
          ...................................................

 iter      E             dE          RMSdq      gap      omega  full diag
   1    -50.9628663 -0.509629E+02  0.344E-05    2.57       0.0  T
   2    -50.9628663 -0.308376E-11  0.291E-05    2.57     580.8  T
   3    -50.9628663 -0.172520E-10  0.119E-05    2.57    1418.9  T

   *** convergence criteria satisfied after 3 iterations ***

         #    Occupation            Energy/Eh            Energy/eV
      -------------------------------------------------------------
         1        2.0000           -0.8790703             -23.9207
       ...           ...                  ...                  ...
        40        2.0000           -0.5315695             -14.4647
        41        2.0000           -0.5292041             -14.4004
        42        2.0000           -0.5179510             -14.0942
        43        2.0000           -0.5108067             -13.8998
        44        2.0000           -0.5029860             -13.6869
        45        2.0000           -0.4821521             -13.1200
        46        2.0000           -0.4691386             -12.7659 (HOMO)
        47                         -0.3748609             -10.2005 (LUMO)
        48                         -0.3518971              -9.5756
        49                         -0.3186653              -8.6713
        50                         -0.3035150              -8.2591
        51                         -0.2643879              -7.1944
       ...                                ...                  ...
        89                          0.6022258              16.3874
      -------------------------------------------------------------
                  HL-Gap            0.0942776 Eh            2.5654 eV
             Fermi-level           -0.4219997 Eh          -11.4832 eV

 SCC (total)                   0 d,  0 h,  0 min,  0.020 sec
 SCC setup                      ...        0 min,  0.000 sec (  0.521%)
 Dispersion                     ...        0 min,  0.000 sec (  2.007%)
 classical contributions        ...        0 min,  0.000 sec (  0.200%)
 integral evaluation            ...        0 min,  0.001 sec (  6.230%)
 iterations                     ...        0 min,  0.014 sec ( 71.313%)
 molecular gradient             ...        0 min,  0.003 sec ( 16.153%)
 printout                       ...        0 min,  0.001 sec (  2.489%)

         :::::::::::::::::::::::::::::::::::::::::::::::::::::
         ::                     SUMMARY                     ::
         :::::::::::::::::::::::::::::::::::::::::::::::::::::
         :: total energy             -50.124915818492 Eh    ::
         :: gradient norm              0.000500939911 Eh/a0 ::
         :: HOMO-LUMO gap              2.565424868915 eV    ::
         ::.................................................::
         :: SCC energy               -50.962866296678 Eh    ::
         :: -> isotropic ES            0.111612632567 Eh    ::
         :: -> anisotropic ES         -0.013213421234 Eh    ::
         :: -> anisotropic XC          0.026591818337 Eh    ::
         :: -> dispersion             -0.031877152121 Eh    ::
         :: repulsion energy           0.838228935616 Eh    ::
         :: add. restraining           0.000000000000 Eh    ::
         :: total charge               1.000000000000 e     ::
         :::::::::::::::::::::::::::::::::::::::::::::::::::::

           -------------------------------------------------
          |                Property Printout                |
           -------------------------------------------------

    * Orbital Energies and Occupations

         #    Occupation            Energy/Eh            Energy/eV
      -------------------------------------------------------------
         1        2.0000           -0.8790703             -23.9207
       ...           ...                  ...                  ...
        34        2.0000           -0.5651272             -15.3779
        35        2.0000           -0.5607718             -15.2594
        36        2.0000           -0.5567716             -15.1505
        37        2.0000           -0.5451441             -14.8341
        38        2.0000           -0.5428252             -14.7710
        39        2.0000           -0.5396482             -14.6846
        40        2.0000           -0.5315695             -14.4647
        41        2.0000           -0.5292041             -14.4004
        42        2.0000           -0.5179510             -14.0942
        43        2.0000           -0.5108067             -13.8998
        44        2.0000           -0.5029860             -13.6869
        45        2.0000           -0.4821521             -13.1200
        46        2.0000           -0.4691386             -12.7659 (HOMO)
        47                         -0.3748609             -10.2005 (LUMO)
        48                         -0.3518971              -9.5756
        49                         -0.3186653              -8.6713
        50                         -0.3035150              -8.2591
        51                         -0.2643879              -7.1944
        52                         -0.2404653              -6.5434
        53                         -0.2046137              -5.5678
        54                         -0.1623853              -4.4187
        55                         -0.1391577              -3.7867
        56                         -0.0853348              -2.3221
        57                         -0.0773916              -2.1059
       ...                                ...                  ...
        89                          0.6022258              16.3874
      -------------------------------------------------------------
                  HL-Gap            0.0942776 Eh            2.5654 eV
             Fermi-level           -0.4219997 Eh          -11.4832 eV

     #   Z          covCN         q      C6AA      α(0)
     1   7 N        3.482    -0.145    24.124     7.295
     2   6 C        3.734    -0.029    21.173     6.567
     3   6 C        3.809    -0.090    22.217     6.710
     4   6 C        2.972    -0.013    28.334     8.731
     5   6 C        2.919    -0.039    28.972     8.827
     6   6 C        2.922    -0.030    28.740     8.791
     7   6 C        2.969     0.025    27.449     8.594
     8   6 C        2.902    -0.047    29.159     8.854
     9   6 C        2.902    -0.023    28.589     8.767
    10   6 C        2.974     0.016    27.651     8.625
    11   6 C        2.921    -0.052    29.281     8.874
    12   6 C        2.784     0.175    24.235     8.064
    13   9 F        0.787    -0.218    11.419     3.992
    14   6 C        2.917    -0.042    29.040     8.837
    15   6 C        2.921    -0.024    28.615     8.772
    16   6 C        2.927    -0.036    28.892     8.815
    17   6 C        2.925    -0.037    28.927     8.820
    18   6 C        2.918    -0.068    29.684     8.934
    19   1 H        0.859     0.258     0.852     1.446
    20   1 H        0.859     0.261     0.842     1.438
    21   1 H        0.856     0.279     0.779     1.383
    22   1 H        0.925     0.101     1.779     2.086
    23   1 H        0.924     0.102     1.767     2.079
    24   1 H        0.924     0.069     2.101     2.267
    25   1 H        0.925     0.091     1.866     2.136
    26   1 H        0.926     0.046     2.369     2.407
    27   1 H        0.926     0.056     2.250     2.346
    28   1 H        0.926     0.049     2.334     2.389
    29   1 H        0.925     0.050     2.321     2.382
    30   1 H        0.926     0.059     2.208     2.324
    31   1 H        0.926     0.071     2.074     2.252
    32   1 H        0.926     0.058     2.227     2.334
    33   1 H        0.926     0.049     2.335     2.390
    34   1 H        0.926     0.049     2.338     2.391
    35   1 H        0.925     0.030     2.586     2.515

 Mol. C6AA /au·bohr⁶  :      13308.635774
 Mol. C8AA /au·bohr⁸  :     323346.136103
 Mol. α(0) /au        :        183.432695


Wiberg/Mayer (AO) data.
largest (>0.10) Wiberg bond orders for each atom

 ---------------------------------------------------------------------------
     #   Z sym  total        # sym  WBO       # sym  WBO       # sym  WBO
 ---------------------------------------------------------------------------
     1   7 N    3.663 --     2 C    0.935    19 H    0.919    20 H    0.917
                            21 H    0.827
     2   6 C    3.898 --     3 C    0.993    23 H    0.969    22 H    0.969
                             1 N    0.935
     3   6 C    3.979 --     4 C    1.006     2 C    0.993    24 H    0.969
                            25 H    0.961
     4   6 C    3.972 --     5 C    1.392    18 C    1.369     3 C    1.006
     5   6 C    3.990 --     6 C    1.476     4 C    1.392    26 H    0.967
     6   6 C    3.981 --     5 C    1.476     7 C    1.349    27 H    0.964
     7   6 C    3.986 --    17 C    1.365     6 C    1.349     8 C    1.120
     8   6 C    3.989 --     9 C    1.748     7 C    1.120    28 H    0.958
     9   6 C    3.986 --     8 C    1.748    10 C    1.118    29 H    0.958
    10   6 C    3.989 --    16 C    1.362    11 C    1.361     9 C    1.118
    11   6 C    3.980 --    12 C    1.419    10 C    1.361    30 H    0.962
                            15 C    0.103
    12   6 C    3.890 --    11 C    1.419    14 C    1.381    13 F    0.966
    13   9 F    1.100 --    12 C    0.966
    14   6 C    3.975 --    15 C    1.432    12 C    1.381    31 H    0.966
    15   6 C    3.990 --    16 C    1.457    14 C    1.432    32 H    0.969
                            11 C    0.103
    16   6 C    3.980 --    15 C    1.457    10 C    1.362    33 H    0.968
    17   6 C    3.980 --    18 C    1.444     7 C    1.365    34 H    0.967
    18   6 C    3.989 --    17 C    1.444     4 C    1.369    35 H    0.959
    19   1 H    0.933 --     1 N    0.919
    20   1 H    0.932 --     1 N    0.917
    21   1 H    0.922 --     1 N    0.827
    22   1 H    0.989 --     2 C    0.969
    23   1 H    0.990 --     2 C    0.969
    24   1 H    0.995 --     3 C    0.969
    25   1 H    0.991 --     3 C    0.961
    26   1 H    0.997 --     5 C    0.967
    27   1 H    0.997 --     6 C    0.964
    28   1 H    0.997 --     8 C    0.958
    29   1 H    0.997 --     9 C    0.958
    30   1 H    0.996 --    11 C    0.962
    31   1 H    0.995 --    14 C    0.966
    32   1 H    0.996 --    15 C    0.969
    33   1 H    0.998 --    16 C    0.968
    34   1 H    0.997 --    17 C    0.967
    35   1 H    0.999 --    18 C    0.959
 ---------------------------------------------------------------------------

Topologies differ in total number of bonds
Writing topology from bond orders to xtbtopo.mol

molecular dipole:
                 x           y           z       tot (Debye)
 q only:        7.257      -4.200       1.721
   full:        7.239      -4.151       1.880      21.741
molecular quadrupole (traceless):
                xx          xy          yy          xz          yz          zz
 q only:       51.361     -52.071     -23.533     -11.122      -6.835     -27.828
  q+dip:       53.162     -52.182     -26.739     -12.391      -2.868     -26.423
   full:       50.420     -51.681     -23.923     -11.850      -6.480     -26.496

           -------------------------------------------------
          |                Geometry Summary                 |
           -------------------------------------------------

      molecular mass/u    :      242.3118735
   center of mass at/Å    :        8.3406641      -1.9577974      -0.5017349
  moments of inertia/u·Å² :        0.3722590E+03   0.3932916E+04   0.4181959E+04
rotational constants/cm⁻¹ :        0.4528469E-01   0.4286293E-02   0.4031037E-02

 * 32 selected distances

     #   Z          #   Z                                           value/Å
     1   7 N        2   6 C                                       1.4926452
     2   6 C        3   6 C                                       1.5312971 (max)
     4   6 C        5   6 C                                       1.3910576
     5   6 C        6   6 C                                       1.3789027
     6   6 C        7   6 C                                       1.4004800
     8   6 C        9   6 C                                       1.3418254
    10   6 C       11   6 C                                       1.3967648
    11   6 C       12   6 C                                       1.3792620
    12   6 C       14   6 C                                       1.3848422
    14   6 C       15   6 C                                       1.3847286
    10   6 C       16   6 C                                       1.3987330
    15   6 C       16   6 C                                       1.3817620
     7   6 C       17   6 C                                       1.3981555
     4   6 C       18   6 C                                       1.3979805
    17   6 C       18   6 C                                       1.3837086
     1   7 N       19   1 H                                       1.0238402 (min)
     1   7 N       20   1 H                                       1.0257570
     1   7 N       21   1 H                                       1.0597218
     2   6 C       22   1 H                                       1.0895044
     2   6 C       23   1 H                                       1.0906591
     3   6 C       24   1 H                                       1.0910949
     3   6 C       25   1 H                                       1.0885897
     5   6 C       26   1 H                                       1.0798088
     6   6 C       27   1 H                                       1.0778569
     8   6 C       28   1 H                                       1.0811311
     9   6 C       29   1 H                                       1.0819989
    11   6 C       30   1 H                                       1.0778844
    14   6 C       31   1 H                                       1.0778613
    15   6 C       32   1 H                                       1.0788692
    16   6 C       33   1 H                                       1.0799845
    17   6 C       34   1 H                                       1.0800068
    18   6 C       35   1 H                                       1.0841458

 * 4 distinct bonds (by element types)

   Z      Z             #   av. dist./Å        max./Å        min./Å
   1 H    6 C          14     1.0828140     1.0910949     1.0778569
   6 C    6 C          14     1.3963929     1.5312971     1.3418254
   1 H    7 N           3     1.0364396     1.0597218     1.0238402
   6 C    7 N           1     1.4926452     1.4926452     1.4926452


optimized geometry written to: xtbopt.xyz


           -------------------------------------------------
          | TOTAL ENERGY              -50.124915818492 Eh   |
          | GRADIENT NORM               0.000500939911 Eh/α |
          | HOMO-LUMO GAP               2.565424868915 eV   |
           -------------------------------------------------

------------------------------------------------------------------------
 * finished run on 2023/01/23 at 13:53:09.704     
------------------------------------------------------------------------
 total:
 * wall-time:     0 d,  0 h,  0 min,  1.225 sec
 *  cpu-time:     0 d,  0 h,  2 min, 15.657 sec
 * ratio c/w:   110.705 speedup
 SCF:
 * wall-time:     0 d,  0 h,  0 min,  0.077 sec
 *  cpu-time:     0 d,  0 h,  0 min, 10.910 sec
 * ratio c/w:   141.515 speedup
 ANC optimizer:
 * wall-time:     0 d,  0 h,  0 min,  1.127 sec
 *  cpu-time:     0 d,  0 h,  2 min,  2.038 sec
 * ratio c/w:   108.253 speedup

