21
 energy: -25.727668203704 gnorm: 0.000489449002 xtb: 6.5.1 (fef0646)
N            1.15729178464513       -0.28586101602307       -0.35730607278891
C            2.57207735712783        0.07836921060201        0.05641156486226
C            3.50796203800333       -0.25810470872554       -1.09185362653551
C            2.89929562245464       -0.66308965707760        1.32848809728186
C            3.25983388045909        0.03956276392225        2.47085658572942
C            3.57266824373769       -0.63845097693791        3.63666539025913
C            3.51877211263840       -2.02149105883349        3.67088306943001
C            3.15635772320392       -2.72816488133187        2.53546255080168
C            2.84899676204827       -2.05364500876844        1.36782696717551
H            0.48148243779419        0.01384429044154        0.35519587199608
H            1.10362334808436       -1.31021321201302       -0.44435289100286
H            0.91594271953805        0.14109991552014       -1.26005833683381
H            2.58504397986461        1.15570749386179        0.24245749589493
H            3.49078238822521       -1.32000354903281       -1.32178761011154
H            4.52463307736846       -0.00078113651646       -0.80869269901718
H            3.25802562797139        0.30803320902780       -1.98603071450420
H            3.30758552729245        1.11795862583422        2.44638914248809
H            3.85751103967256       -0.08435284506525        4.51663817217018
H            3.76205983301288       -2.54973150550622        4.57872035288825
H            3.11769437561349       -3.80573375593155        2.55665959115700
H            2.58873012124399       -2.62600219744642        0.48683709865961
