18
 energy: -25.771856847041 gnorm: 0.000775284754 xtb: 6.5.1 (fef0646)
N            1.22970511831870        0.32100067758787       -0.19363285693932
C            2.69506192638980        0.27011664888299       -0.36006863998025
C            3.11466404001958       -1.12677179271915       -0.80409712800289
C            4.63613575479864       -1.27726172016760       -0.79101712903865
C            5.02392575745791       -2.68321851248285       -1.20563536383262
Br           6.98595101778443       -2.92220189218091       -1.18113004526157
Cl           0.43120952245017       -1.98200063053517        1.65674314488518
H            0.92577455547219        1.21902507874136        0.18877032359415
H            0.92814391320557       -0.43725158389795        0.47109156782363
H            0.75332815780679        0.14568174754964       -1.08191645281397
H            3.16055528972862        0.49308143236389        0.59931564580994
H            3.00846393852333        1.01508624422699       -1.09205477290730
H            2.74136232904114       -1.33364807371373       -1.80714564519356
H            2.66827464724597       -1.85103468344900       -0.12038356300028
H            5.01687662574458       -1.08030689165151        0.21292638604678
H            5.09176927232724       -0.55715489659470       -1.47348588880533
H            4.71716786045541       -2.91128504344323       -2.22480929859889
H            4.62640027323018       -3.43094610851672       -0.52156028378488
