      -----------------------------------------------------------      
     |                   =====================                   |     
     |                           x T B                           |     
     |                   =====================                   |     
     |                         S. Grimme                         |     
     |          Mulliken Center for Theoretical Chemistry        |     
     |                    University of Bonn                     |     
      -----------------------------------------------------------      

   * xtb version 6.5.1 (fef0646) compiled by 'conda@b96dff2e9fd6' on 2023-01-04

   xtb is free software: you can redistribute it and/or modify it under
   the terms of the GNU Lesser General Public License as published by
   the Free Software Foundation, either version 3 of the License, or
   (at your option) any later version.
   
   xtb is distributed in the hope that it will be useful,
   but WITHOUT ANY WARRANTY; without even the implied warranty of
   MERCHANTABILITY or FITNESS FOR A PARTICULAR PURPOSE.  See the
   GNU Lesser General Public License for more details.
   
   Cite this work as:
   * C. Bannwarth, E. Caldeweyher, S. Ehlert, A. Hansen, P. Pracht,
     J. Seibert, S. Spicher, S. Grimme, WIREs Comput. Mol. Sci., 2020, 11,
     e01493. DOI: 10.1002/wcms.1493
   
   for GFN2-xTB:
   * C. Bannwarth, S. Ehlert and S. Grimme., J. Chem. Theory Comput., 2019,
     15, 1652-1671. DOI: 10.1021/acs.jctc.8b01176
   for GFN1-xTB:
   * S. Grimme, C. Bannwarth, P. Shushkov, J. Chem. Theory Comput., 2017,
     13, 1989-2009. DOI: 10.1021/acs.jctc.7b00118
   for GFN0-xTB:
   * P. Pracht, E. Caldeweyher, S. Ehlert, S. Grimme, ChemRxiv, 2019, preprint.
     DOI: 10.26434/chemrxiv.8326202.v1
   for GFN-FF:
   * S. Spicher and S. Grimme, Angew. Chem. Int. Ed., 2020, 59, 15665-15673.
     DOI: 10.1002/anie.202004239
   
   for ALPB and GBSA implicit solvation:
   * S. Ehlert, M. Stahn, S. Spicher, S. Grimme, J. Chem. Theory Comput.,
     2021, 17, 4250-4261. DOI: 10.1021/acs.jctc.1c00471
   
   for DFT-D4:
   * E. Caldeweyher, C. Bannwarth and S. Grimme, J. Chem. Phys., 2017,
     147, 034112. DOI: 10.1063/1.4993215
   * E. Caldeweyher, S. Ehlert, A. Hansen, H. Neugebauer, S. Spicher,
     C. Bannwarth and S. Grimme, J. Chem. Phys., 2019, 150, 154122.
     DOI: 10.1063/1.5090222
   * E. Caldeweyher, J.-M. Mewes, S. Ehlert and S. Grimme, Phys. Chem. Chem. Phys.
     2020, 22, 8499-8512. DOI: 10.1039/D0CP00502A
   
   for sTDA-xTB:
   * S. Grimme and C. Bannwarth, J. Chem. Phys., 2016, 145, 054103.
     DOI: 10.1063/1.4959605
   
   in the mass-spec context:
   * V. Asgeirsson, C. Bauer and S. Grimme, Chem. Sci., 2017, 8, 4879.
     DOI: 10.1039/c7sc00601b
   * J. Koopman and S. Grimme, ACS Omega 2019, 4, 12, 15120-15133.
     DOI: 10.1021/acsomega.9b02011
   
   for metadynamics refer to:
   * S. Grimme, J. Chem. Theory Comput., 2019, 155, 2847-2862
     DOI: 10.1021/acs.jctc.9b00143
   
   for SPH calculations refer to:
   * S. Spicher and S. Grimme, J. Chem. Theory Comput., 2021, 17, 1701-1714
     DOI: 10.1021/acs.jctc.0c01306
   
   with help from (in alphabetical order)
   P. Atkinson, C. Bannwarth, F. Bohle, G. Brandenburg, E. Caldeweyher
   M. Checinski, S. Dohm, S. Ehlert, S. Ehrlich, I. Gerasimov, C. Hölzer
   A. Katbashev, J. Koopman, C. Lavigne, S. Lehtola, F. März, M. Müller,
   F. Musil, H. Neugebauer, J. Pisarek, C. Plett, P. Pracht, F. Pultar,
   J. Seibert, P. Shushkov, S. Spicher, M. Stahn, M. Steiner, T. Strunk,
   J. Stückrath, T. Rose, and J. Unsleber
   
 * started run on 2023/01/23 at 19:03:10.309     

           -------------------------------------------------
          |                Calculation Setup                |
           -------------------------------------------------

          program call               : xtb init.xyz --opt -c 1 -u 0 -P 16 --input xtb.inp
          hostname                   : gpg-woodward
          coordinate file            : init.xyz
          omp threads                :                    16

   ID    Z sym.   atoms
    1    7 N      1, 10, 11
    2    6 C      2-9, 12-17
    3    1 H      18-33

           -------------------------------------------------
          |                 G F N 2 - x T B                 |
           -------------------------------------------------

        Reference                      10.1021/acs.jctc.8b01176
      * Hamiltonian:
        H0-scaling (s, p, d)           1.850000    2.230000    2.230000
        zeta-weighting                 0.500000
      * Dispersion:
        s8                             2.700000
        a1                             0.520000
        a2                             5.000000
        s9                             5.000000
      * Repulsion:
        kExp                           1.500000    1.000000
        rExp                           1.000000
      * Coulomb:
        alpha                          2.000000
        third order                    shell-resolved
        anisotropic                    true
        a3                             3.000000
        a5                             4.000000
        cn-shift                       1.200000
        cn-exp                         4.000000
        max-rad                        5.000000


          ...................................................
          :                      SETUP                      :
          :.................................................:
          :  # basis functions                  84          :
          :  # atomic orbitals                  84          :
          :  # shells                           50          :
          :  # electrons                        86          :
          :  max. iterations                   250          :
          :  Hamiltonian                  GFN2-xTB          :
          :  restarted?                      false          :
          :  GBSA solvation                  false          :
          :  PC potential                    false          :
          :  electronic temp.          300.0000000     K    :
          :  accuracy                    1.0000000          :
          :  -> integral cutoff          0.2500000E+02      :
          :  -> integral neglect         0.1000000E-07      :
          :  -> SCF convergence          0.1000000E-05 Eh   :
          :  -> wf. convergence          0.1000000E-03 e    :
          :  Broyden damping             0.4000000          :
          ...................................................

 iter      E             dE          RMSdq      gap      omega  full diag
   1    -46.9894458 -0.469894E+02  0.468E+00    1.56       0.0  T
   2    -47.1242784 -0.134833E+00  0.278E+00    1.43       1.0  T
   3    -47.1217819  0.249651E-02  0.131E+00    1.25       1.0  T
   4    -47.1201998  0.158215E-02  0.619E-01    1.01       1.0  T
   5    -47.1335658 -0.133660E-01  0.108E-01    1.05       1.0  T
   6    -47.1335929 -0.271557E-04  0.596E-02    1.04       1.0  T
   7    -47.1336389 -0.459267E-04  0.223E-02    1.05       1.0  T
   8    -47.1336445 -0.561100E-05  0.659E-03    1.05       2.6  T
   9    -47.1336448 -0.366852E-06  0.271E-03    1.05       6.4  T
  10    -47.1336449 -0.929499E-07  0.951E-04    1.05      18.3  T
  11    -47.1336449 -0.310894E-08  0.458E-04    1.05      38.0  T

   *** convergence criteria satisfied after 11 iterations ***

         #    Occupation            Energy/Eh            Energy/eV
      -------------------------------------------------------------
         1        2.0000           -0.8921599             -24.2769
       ...           ...                  ...                  ...
        37        2.0000           -0.5171186             -14.0715
        38        2.0000           -0.5152426             -14.0205
        39        2.0000           -0.5035323             -13.7018
        40        2.0000           -0.4946609             -13.4604
        41        2.0000           -0.4771393             -12.9836
        42        2.0000           -0.4758372             -12.9482
        43        2.0000           -0.4290576             -11.6753 (HOMO)
        44                         -0.3903930             -10.6231 (LUMO)
        45                         -0.3417193              -9.2987
        46                         -0.3260450              -8.8721
        47                         -0.3004797              -8.1765
        48                         -0.2827504              -7.6940
       ...                                ...                  ...
        84                          0.5589911              15.2109
      -------------------------------------------------------------
                  HL-Gap            0.0386646 Eh            1.0521 eV
             Fermi-level           -0.4097253 Eh          -11.1492 eV

 SCC (total)                   0 d,  0 h,  0 min,  0.095 sec
 SCC setup                      ...        0 min,  0.001 sec (  1.219%)
 Dispersion                     ...        0 min,  0.002 sec (  1.776%)
 classical contributions        ...        0 min,  0.001 sec (  0.540%)
 integral evaluation            ...        0 min,  0.005 sec (  5.568%)
 iterations                     ...        0 min,  0.077 sec ( 80.387%)
 molecular gradient             ...        0 min,  0.009 sec (  9.887%)
 printout                       ...        0 min,  0.000 sec (  0.401%)

         :::::::::::::::::::::::::::::::::::::::::::::::::::::
         ::                     SUMMARY                     ::
         :::::::::::::::::::::::::::::::::::::::::::::::::::::
         :: total energy             -46.392113902683 Eh    ::
         :: gradient norm              0.066584865815 Eh/a0 ::
         :: HOMO-LUMO gap              1.052117355949 eV    ::
         ::.................................................::
         :: SCC energy               -47.133644933116 Eh    ::
         :: -> isotropic ES            0.111198714678 Eh    ::
         :: -> anisotropic ES         -0.010811337324 Eh    ::
         :: -> anisotropic XC          0.044593057620 Eh    ::
         :: -> dispersion             -0.029153645040 Eh    ::
         :: repulsion energy           0.741731578463 Eh    ::
         :: add. restraining           0.000000000000 Eh    ::
         :: total charge               1.000000000000 e     ::
         :::::::::::::::::::::::::::::::::::::::::::::::::::::

      ----------------------------------------------------------- 
     |                   =====================                   |
     |                        A N C O P T                        |
     |                   =====================                   |
     |               Approximate Normal Coordinate               |
     |                Rational Function Optimizer                |
      ----------------------------------------------------------- 

          ...................................................
          :                      SETUP                      :
          :.................................................:
          :   optimization level            normal          :
          :   max. optcycles                   200          :
          :   ANC micro-cycles                  20          :
          :   degrees of freedom                93          :
          :.................................................:
          :   RF solver                   davidson          :
          :   write xtbopt.log                true          :
          :   linear?                        false          :
          :   energy convergence         0.5000000E-05 Eh   :
          :   grad. convergence          0.1000000E-02 Eh/α :
          :   maximium RF displ.         1.0000000          :
          :   Hlow (freq-cutoff)         0.1000000E-01      :
          :   Hmax (freq-cutoff)         5.0000000          :
          :   S6 in model hess.         20.0000000          :
          ...................................................

generating ANC from model Hessian ...
Using Lindh-Hessian (1995)
 Shifting diagonal of input Hessian by    9.7038349858769215E-003
 Lowest  eigenvalues of input Hessian
    0.000000    0.000000    0.000000    0.000000    0.000000    0.000000
    0.010000    0.010325    0.010811    0.011464    0.011579    0.013543
    0.014380    0.018158    0.020497    0.023558    0.023922    0.024727
 Highest eigenvalues
    1.840802    1.876697    1.930365    1.962362    1.989343    2.071135


........................................................................
.............................. CYCLE    1 ..............................
........................................................................
   1    -47.1336449 -0.471336E+02  0.152E-04    1.05       0.0  T
   2    -47.1336449 -0.109807E-09  0.977E-05    1.05     178.2  T
   3    -47.1336449 -0.411902E-10  0.632E-05    1.05     275.2  T
     SCC iter.                  ...        0 min,  0.010 sec
     gradient                   ...        0 min,  0.008 sec
 * total energy  :   -46.3921139 Eh     change       -0.4005273E-08 Eh
   gradient norm :     0.0665834 Eh/α   predicted     0.0000000E+00 (-100.00%)
   displ. norm   :     0.2137663 α      lambda       -0.8318596E-02
   maximum displ.:     0.0683135 α      in ANC's #59, #7, #23, ...

........................................................................
.............................. CYCLE    2 ..............................
........................................................................
   1    -47.1687956 -0.471688E+02  0.184E-01    0.93       0.0  T
   2    -47.1689236 -0.127938E-03  0.113E-01    0.92       1.0  T
   3    -47.1689251 -0.151397E-05  0.622E-02    0.93       1.0  T
   4    -47.1689625 -0.374133E-04  0.159E-02    0.92       1.1  T
   5    -47.1689685 -0.597696E-05  0.404E-03    0.93       4.3  T
   6    -47.1689686 -0.128990E-06  0.200E-03    0.93       8.7  T
   7    -47.1689686 -0.417876E-07  0.591E-04    0.93      29.4  T
   8    -47.1689687 -0.495438E-08  0.272E-04    0.93      64.0  T
     SCC iter.                  ...        0 min,  0.027 sec
     gradient                   ...        0 min,  0.009 sec
 * total energy  :   -46.3977403 Eh     change       -0.5626426E-02 Eh
   gradient norm :     0.0325445 Eh/α   predicted    -0.4350135E-02 ( -22.68%)
   displ. norm   :     0.2367747 α      lambda       -0.2768805E-02
   maximum displ.:     0.1270400 α      in ANC's #7, #4, #6, ...

........................................................................
.............................. CYCLE    3 ..............................
........................................................................
   1    -47.1850698 -0.471851E+02  0.148E-01    0.81       0.0  T
   2    -47.1851638 -0.939604E-04  0.800E-02    0.80       1.0  T
   3    -47.1851835 -0.197160E-04  0.512E-02    0.81       1.0  T
   4    -47.1852080 -0.244535E-04  0.150E-02    0.81       1.2  T
   5    -47.1852117 -0.376219E-05  0.489E-03    0.81       3.6  T
   6    -47.1852119 -0.201825E-06  0.207E-03    0.81       8.4  T
   7    -47.1852120 -0.831658E-07  0.658E-04    0.81      26.5  T
   8    -47.1852120 -0.604863E-08  0.289E-04    0.81      60.2  T
     SCC iter.                  ...        0 min,  0.027 sec
     gradient                   ...        0 min,  0.007 sec
 * total energy  :   -46.3994612 Eh     change       -0.1720881E-02 Eh
   gradient norm :     0.0145040 Eh/α   predicted    -0.1463574E-02 ( -14.95%)
   displ. norm   :     0.2284384 α      lambda       -0.8046511E-03
   maximum displ.:     0.1255917 α      in ANC's #7, #4, #6, ...

........................................................................
.............................. CYCLE    4 ..............................
........................................................................
   1    -47.1858323 -0.471858E+02  0.948E-02    0.76       0.0  T
   2    -47.1858628 -0.304949E-04  0.452E-02    0.76       1.0  T
   3    -47.1858656 -0.273230E-05  0.329E-02    0.76       1.0  T
   4    -47.1858784 -0.128756E-04  0.840E-03    0.76       2.1  T
   5    -47.1858792 -0.746035E-06  0.364E-03    0.76       4.8  T
   6    -47.1858793 -0.161473E-06  0.127E-03    0.76      13.7  T
   7    -47.1858794 -0.393421E-07  0.445E-04    0.76      39.1  T
   8    -47.1858794 -0.286639E-08  0.180E-04    0.76      96.7  T
     SCC iter.                  ...        0 min,  0.027 sec
     gradient                   ...        0 min,  0.006 sec
 * total energy  :   -46.4000700 Eh     change       -0.6088262E-03 Eh
   gradient norm :     0.0089072 Eh/α   predicted    -0.4233334E-03 ( -30.47%)
   displ. norm   :     0.3721774 α      lambda       -0.8118651E-03
   maximum displ.:     0.1965767 α      in ANC's #4, #7, #6, ...

........................................................................
.............................. CYCLE    5 ..............................
........................................................................
   1    -47.1824471 -0.471824E+02  0.144E-01    0.72       0.0  T
   2    -47.1824964 -0.492434E-04  0.676E-02    0.71       1.0  T
   3    -47.1824872  0.913896E-05  0.514E-02    0.72       1.0  T
   4    -47.1825275 -0.402136E-04  0.127E-02    0.72       1.4  T
   5    -47.1825289 -0.143315E-05  0.557E-03    0.72       3.1  T
   6    -47.1825294 -0.533449E-06  0.167E-03    0.72      10.4  T
   7    -47.1825295 -0.714351E-07  0.585E-04    0.72      29.8  T
   8    -47.1825295 -0.413910E-08  0.234E-04    0.72      74.3  T
     SCC iter.                  ...        0 min,  0.025 sec
     gradient                   ...        0 min,  0.006 sec
 * total energy  :   -46.4006671 Eh     change       -0.5970849E-03 Eh
   gradient norm :     0.0105727 Eh/α   predicted    -0.4621650E-03 ( -22.60%)
   displ. norm   :     0.4044321 α      lambda       -0.6115163E-03
   maximum displ.:     0.2156198 α      in ANC's #4, #7, #6, ...

........................................................................
.............................. CYCLE    6 ..............................
........................................................................
   1    -47.1787349 -0.471787E+02  0.158E-01    0.70       0.0  T
   2    -47.1787866 -0.517383E-04  0.742E-02    0.69       1.0  T
   3    -47.1787718  0.148525E-04  0.566E-02    0.71       1.0  T
   4    -47.1788274 -0.556079E-04  0.144E-02    0.70       1.2  T
   5    -47.1788294 -0.198750E-05  0.582E-03    0.70       3.0  T
   6    -47.1788300 -0.603202E-06  0.160E-03    0.70      10.9  T
   7    -47.1788300 -0.672168E-07  0.545E-04    0.70      31.9  T
   8    -47.1788300 -0.324271E-08  0.211E-04    0.70      82.4  T
     SCC iter.                  ...        0 min,  0.025 sec
     gradient                   ...        0 min,  0.006 sec
 * total energy  :   -46.4011488 Eh     change       -0.4816430E-03 Eh
   gradient norm :     0.0127224 Eh/α   predicted    -0.3557698E-03 ( -26.13%)
   displ. norm   :     0.4523212 α      lambda       -0.6337909E-03
   maximum displ.:     0.2377917 α      in ANC's #4, #5, #7, ...

........................................................................
.............................. CYCLE    7 ..............................
........................................................................
   1    -47.1761131 -0.471761E+02  0.184E-01    0.70       0.0  T
   2    -47.1761825 -0.693945E-04  0.869E-02    0.68       1.0  T
   3    -47.1761614  0.211232E-04  0.632E-02    0.70       1.0  T
   4    -47.1762352 -0.737906E-04  0.174E-02    0.69       1.0  T
   5    -47.1762384 -0.322643E-05  0.651E-03    0.69       2.7  T
   6    -47.1762391 -0.714708E-06  0.163E-03    0.69      10.7  T
   7    -47.1762392 -0.689193E-07  0.557E-04    0.69      31.2  T
   8    -47.1762392 -0.289576E-08  0.209E-04    0.69      83.4  T
     SCC iter.                  ...        0 min,  0.030 sec
     gradient                   ...        0 min,  0.005 sec
 * total energy  :   -46.4016442 Eh     change       -0.4953866E-03 Eh
   gradient norm :     0.0110608 Eh/α   predicted    -0.3817305E-03 ( -22.94%)
   displ. norm   :     0.4425217 α      lambda       -0.5936058E-03
   maximum displ.:     0.2290976 α      in ANC's #4, #5, #6, ...

........................................................................
.............................. CYCLE    8 ..............................
........................................................................
   1    -47.1761228 -0.471761E+02  0.182E-01    0.70       0.0  T
   2    -47.1761884 -0.655494E-04  0.881E-02    0.68       1.0  T
   3    -47.1761627  0.257287E-04  0.585E-02    0.70       1.0  T
   4    -47.1762268 -0.641285E-04  0.179E-02    0.69       1.0  T
   5    -47.1762306 -0.380198E-05  0.611E-03    0.69       2.8  T
   6    -47.1762313 -0.671502E-06  0.147E-03    0.69      11.8  T
   7    -47.1762313 -0.504218E-07  0.503E-04    0.69      34.6  T
   8    -47.1762313 -0.168611E-08  0.188E-04    0.69      92.8  T
     SCC iter.                  ...        0 min,  0.025 sec
     gradient                   ...        0 min,  0.005 sec
 * total energy  :   -46.4020889 Eh     change       -0.4447467E-03 Eh
   gradient norm :     0.0073258 Eh/α   predicted    -0.3549613E-03 ( -20.19%)
   displ. norm   :     0.3794823 α      lambda       -0.4617953E-03
   maximum displ.:     0.2056524 α      in ANC's #5, #4, #1, ...

........................................................................
.............................. CYCLE    9 ..............................
........................................................................
   1    -47.1783412 -0.471783E+02  0.147E-01    0.70       0.0  T
   2    -47.1783736 -0.324323E-04  0.762E-02    0.69       1.0  T
   3    -47.1783514  0.221536E-04  0.433E-02    0.70       1.0  T
   4    -47.1783873 -0.358801E-04  0.135E-02    0.70       1.3  T
   5    -47.1783897 -0.243731E-05  0.439E-03    0.70       4.0  T
   6    -47.1783902 -0.474848E-06  0.104E-03    0.70      16.7  T
   7    -47.1783902 -0.229639E-07  0.383E-04    0.70      45.4  T
   8    -47.1783902 -0.813621E-09  0.152E-04    0.70     114.6  T
     SCC iter.                  ...        0 min,  0.024 sec
     gradient                   ...        0 min,  0.005 sec
 * total energy  :   -46.4024438 Eh     change       -0.3549285E-03 Eh
   gradient norm :     0.0065678 Eh/α   predicted    -0.2641508E-03 ( -25.58%)
   displ. norm   :     0.4158075 α      lambda       -0.4336970E-03
   maximum displ.:     0.2551850 α      in ANC's #5, #4, #1, ...

........................................................................
.............................. CYCLE   10 ..............................
........................................................................
   1    -47.1797244 -0.471797E+02  0.148E-01    0.70       0.0  T
   2    -47.1797465 -0.220460E-04  0.830E-02    0.69       1.0  T
   3    -47.1797207  0.258118E-04  0.381E-02    0.70       1.0  T
   4    -47.1797556 -0.349858E-04  0.841E-03    0.70       2.1  T
   5    -47.1797564 -0.719356E-06  0.350E-03    0.70       5.0  T
   6    -47.1797567 -0.341290E-06  0.875E-04    0.70      19.9  T
   7    -47.1797567 -0.130398E-07  0.403E-04    0.70      43.2  T
     SCC iter.                  ...        0 min,  0.021 sec
     gradient                   ...        0 min,  0.004 sec
 * total energy  :   -46.4027956 Eh     change       -0.3517567E-03 Eh
   gradient norm :     0.0082352 Eh/α   predicted    -0.2543418E-03 ( -27.69%)
   displ. norm   :     0.4516093 α      lambda       -0.4843351E-03
   maximum displ.:     0.3069071 α      in ANC's #5, #1, #4, ...

........................................................................
.............................. CYCLE   11 ..............................
........................................................................
   1    -47.1819943 -0.471820E+02  0.162E-01    0.69       0.0  T
   2    -47.1820188 -0.244261E-04  0.945E-02    0.70       1.0  T
   3    -47.1819690  0.497032E-04  0.468E-02    0.69       1.0  T
   4    -47.1820339 -0.648928E-04  0.666E-03    0.70       2.6  T
   5    -47.1820353 -0.137035E-05  0.188E-03    0.70       9.3  T
   6    -47.1820354 -0.693762E-07  0.902E-04    0.70      19.3  T
   7    -47.1820354 -0.757121E-08  0.380E-04    0.70      45.8  T
     SCC iter.                  ...        0 min,  0.021 sec
     gradient                   ...        0 min,  0.004 sec
 * total energy  :   -46.4031824 Eh     change       -0.3867765E-03 Eh
   gradient norm :     0.0097846 Eh/α   predicted    -0.2915607E-03 ( -24.62%)
   displ. norm   :     0.5487935 α      lambda       -0.4938944E-03
   maximum displ.:     0.3919812 α      in ANC's #5, #4, #1, ...

........................................................................
.............................. CYCLE   12 ..............................
........................................................................
   1    -47.1772240 -0.471772E+02  0.195E-01    0.69       0.0  T
   2    -47.1772740 -0.499805E-04  0.114E-01    0.70       1.0  T
   3    -47.1772103  0.636929E-04  0.564E-02    0.69       1.0  T
   4    -47.1772982 -0.879375E-04  0.922E-03    0.70       1.9  T
   5    -47.1773005 -0.224588E-05  0.329E-03    0.70       5.3  T
   6    -47.1773007 -0.250132E-06  0.140E-03    0.70      12.4  T
   7    -47.1773007 -0.181002E-07  0.635E-04    0.70      27.4  T
   8    -47.1773007 -0.610114E-08  0.183E-04    0.70      95.0  T
     SCC iter.                  ...        0 min,  0.024 sec
     gradient                   ...        0 min,  0.004 sec
 * total energy  :   -46.4035238 Eh     change       -0.3413994E-03 Eh
   gradient norm :     0.0093043 Eh/α   predicted    -0.3213263E-03 (  -5.88%)
   displ. norm   :     0.3999885 α      lambda       -0.5520207E-03
   maximum displ.:     0.3062433 α      in ANC's #5, #7, #1, ...

........................................................................
.............................. CYCLE   13 ..............................
........................................................................
   1    -47.1827580 -0.471828E+02  0.202E-01    0.71       0.0  T
   2    -47.1828573 -0.993116E-04  0.103E-01    0.73       1.0  T
   3    -47.1828598 -0.254833E-05  0.720E-02    0.71       1.0  T
   4    -47.1829503 -0.904683E-04  0.222E-02    0.72       1.0  T
   5    -47.1829594 -0.913774E-05  0.754E-03    0.72       2.3  T
   6    -47.1829602 -0.725804E-06  0.213E-03    0.72       8.2  T
   7    -47.1829603 -0.121714E-06  0.501E-04    0.72      34.8  T
   8    -47.1829603 -0.142822E-08  0.260E-04    0.72      67.0  T
     SCC iter.                  ...        0 min,  0.024 sec
     gradient                   ...        0 min,  0.004 sec
 * total energy  :   -46.4038550 Eh     change       -0.3312504E-03 Eh
   gradient norm :     0.0079453 Eh/α   predicted    -0.3201712E-03 (  -3.34%)
   displ. norm   :     0.4054916 α      lambda       -0.3220369E-03
   maximum displ.:     0.3217436 α      in ANC's #5, #1, #4, ...

........................................................................
.............................. CYCLE   14 ..............................
........................................................................
   1    -47.1791066 -0.471791E+02  0.174E-01    0.74       0.0  T
   2    -47.1791761 -0.694844E-04  0.960E-02    0.76       1.0  T
   3    -47.1791602  0.159353E-04  0.641E-02    0.74       1.0  T
   4    -47.1792320 -0.717938E-04  0.194E-02    0.75       1.0  T
   5    -47.1792409 -0.894333E-05  0.540E-03    0.75       3.2  T
   6    -47.1792414 -0.421962E-06  0.170E-03    0.75      10.2  T
   7    -47.1792414 -0.723223E-07  0.488E-04    0.75      35.6  T
   8    -47.1792414 -0.171196E-08  0.230E-04    0.75      75.7  T
     SCC iter.                  ...        0 min,  0.024 sec
     gradient                   ...        0 min,  0.004 sec
 * total energy  :   -46.4040816 Eh     change       -0.2266237E-03 Eh
   gradient norm :     0.0080958 Eh/α   predicted    -0.1874947E-03 ( -17.27%)
   displ. norm   :     0.2859577 α      lambda       -0.3898514E-03
   maximum displ.:     0.2398213 α      in ANC's #5, #1, #6, ...

........................................................................
.............................. CYCLE   15 ..............................
........................................................................
   1    -47.1823836 -0.471824E+02  0.161E-01    0.78       0.0  T
   2    -47.1824508 -0.671981E-04  0.764E-02    0.80       1.0  T
   3    -47.1824455  0.535232E-05  0.570E-02    0.78       1.0  T
   4    -47.1825045 -0.589884E-04  0.172E-02    0.79       1.0  T
   5    -47.1825093 -0.487436E-05  0.605E-03    0.79       2.9  T
   6    -47.1825098 -0.411830E-06  0.166E-03    0.79      10.5  T
   7    -47.1825098 -0.832303E-07  0.405E-04    0.79      42.9  T
   8    -47.1825098 -0.140998E-08  0.204E-04    0.79      85.4  T
     SCC iter.                  ...        0 min,  0.024 sec
     gradient                   ...        0 min,  0.004 sec
 * total energy  :   -46.4043320 Eh     change       -0.2504051E-03 Eh
   gradient norm :     0.0075933 Eh/α   predicted    -0.2108773E-03 ( -15.79%)
   displ. norm   :     0.2554293 α      lambda       -0.2334748E-03
   maximum displ.:     0.2202962 α      in ANC's #5, #1, #6, ...

........................................................................
.............................. CYCLE   16 ..............................
........................................................................
   1    -47.1812595 -0.471813E+02  0.113E-01    0.81       0.0  T
   2    -47.1812820 -0.224635E-04  0.595E-02    0.82       1.0  T
   3    -47.1812656  0.164117E-04  0.401E-02    0.81       1.0  T
   4    -47.1812975 -0.319002E-04  0.114E-02    0.82       1.5  T
   5    -47.1813004 -0.290734E-05  0.340E-03    0.82       5.1  T
   6    -47.1813006 -0.149182E-06  0.988E-04    0.82      17.6  T
   7    -47.1813006 -0.276164E-07  0.286E-04    0.82      61.0  T
     SCC iter.                  ...        0 min,  0.021 sec
     gradient                   ...        0 min,  0.004 sec
 * total energy  :   -46.4044891 Eh     change       -0.1570870E-03 Eh
   gradient norm :     0.0082753 Eh/α   predicted    -0.1243548E-03 ( -20.84%)
   displ. norm   :     0.2527106 α      lambda       -0.2736142E-03
   maximum displ.:     0.1509682 α      in ANC's #5, #6, #3, ...

........................................................................
.............................. CYCLE   17 ..............................
........................................................................
   1    -47.1843382 -0.471843E+02  0.104E-01    0.84       0.0  T
   2    -47.1843556 -0.173821E-04  0.518E-02    0.85       1.0  T
   3    -47.1843417  0.138980E-04  0.361E-02    0.84       1.0  T
   4    -47.1843677 -0.259437E-04  0.973E-03    0.84       1.8  T
   5    -47.1843692 -0.150082E-05  0.327E-03    0.84       5.3  T
   6    -47.1843693 -0.142808E-06  0.965E-04    0.84      18.0  T
   7    -47.1843693 -0.270122E-07  0.301E-04    0.84      57.8  T
     SCC iter.                  ...        0 min,  0.021 sec
     gradient                   ...        0 min,  0.004 sec
 * total energy  :   -46.4046376 Eh     change       -0.1484867E-03 Eh
   gradient norm :     0.0066825 Eh/α   predicted    -0.1455544E-03 (  -1.97%)
   displ. norm   :     0.2181103 α      lambda       -0.1617088E-03
   maximum displ.:     0.1844317 α      in ANC's #5, #7, #6, ...

........................................................................
.............................. CYCLE   18 ..............................
........................................................................
   1    -47.1819051 -0.471819E+02  0.813E-02    0.84       0.0  T
   2    -47.1819120 -0.696847E-05  0.482E-02    0.84       1.0  T
   3    -47.1818964  0.156462E-04  0.237E-02    0.83       1.0  T
   4    -47.1819157 -0.192899E-04  0.436E-03    0.84       4.0  T
   5    -47.1819163 -0.601526E-06  0.132E-03    0.84      13.2  T
   6    -47.1819163 -0.253495E-07  0.590E-04    0.84      29.5  T
   7    -47.1819163 -0.312338E-08  0.232E-04    0.84      75.2  T
     SCC iter.                  ...        0 min,  0.021 sec
     gradient                   ...        0 min,  0.004 sec
 * total energy  :   -46.4047364 Eh     change       -0.9880248E-04 Eh
   gradient norm :     0.0062139 Eh/α   predicted    -0.8471216E-04 ( -14.26%)
   displ. norm   :     0.1597766 α      lambda       -0.1530684E-03
   maximum displ.:     0.0739154 α      in ANC's #13, #7, #3, ...

........................................................................
.............................. CYCLE   19 ..............................
........................................................................
   1    -47.1834459 -0.471834E+02  0.646E-02    0.82       0.0  T
   2    -47.1834526 -0.667866E-05  0.318E-02    0.82       1.0  T
   3    -47.1834480  0.456947E-05  0.196E-02    0.82       1.0  T
   4    -47.1834553 -0.727349E-05  0.657E-03    0.82       2.6  T
   5    -47.1834560 -0.695845E-06  0.214E-03    0.82       8.1  T
   6    -47.1834561 -0.742323E-07  0.561E-04    0.82      31.0  T
   7    -47.1834561 -0.848964E-08  0.199E-04    0.82      87.3  T
     SCC iter.                  ...        0 min,  0.021 sec
     gradient                   ...        0 min,  0.004 sec
 * total energy  :   -46.4048033 Eh     change       -0.6684389E-04 Eh
   gradient norm :     0.0070218 Eh/α   predicted    -0.7849355E-04 (  17.43%)
   displ. norm   :     0.1123173 α      lambda       -0.1025977E-03
   maximum displ.:     0.0822903 α      in ANC's #5, #6, #3, ...

........................................................................
.............................. CYCLE   20 ..............................
........................................................................
   1    -47.1830962 -0.471831E+02  0.451E-02    0.81       0.0  T
   2    -47.1830977 -0.155864E-05  0.265E-02    0.82       1.0  T
   3    -47.1830938  0.391841E-05  0.119E-02    0.82       1.5  T
   4    -47.1830985 -0.468382E-05  0.252E-03    0.82       6.9  T
   5    -47.1830986 -0.439040E-07  0.145E-03    0.82      12.0  T
   6    -47.1830986 -0.516261E-07  0.269E-04    0.82      64.8  T
   7    -47.1830986 -0.131162E-08  0.117E-04    0.82     149.4  T
     SCC iter.                  ...        0 min,  0.021 sec
     gradient                   ...        0 min,  0.004 sec
 * total energy  :   -46.4048662 Eh     change       -0.6290159E-04 Eh
   gradient norm :     0.0046416 Eh/α   predicted    -0.5194769E-04 ( -17.41%)
   displ. norm   :     0.0878176 α      lambda       -0.6041504E-04
   maximum displ.:     0.0653346 α      in ANC's #5, #3, #6, ...
 * RMSD in coord.:     0.8455154 α      energy gain  -0.1275226E-01 Eh

generating ANC from model Hessian ...
Using Lindh-Hessian (1995)
 Shifting diagonal of input Hessian by    9.5823824626821309E-003
 Lowest  eigenvalues of input Hessian
    0.000000    0.000000    0.000000    0.000000    0.000000    0.000000
    0.010000    0.010219    0.010815    0.011731    0.012356    0.013928
    0.015911    0.019719    0.022120    0.024183    0.024697    0.025507
 Highest eigenvalues
    1.900712    1.938392    1.974527    2.025060    2.075341    2.207068


........................................................................
.............................. CYCLE   21 ..............................
........................................................................
   1    -47.1832187 -0.471832E+02  0.424E-02    0.82       0.0  T
   2    -47.1832206 -0.187772E-05  0.224E-02    0.81       1.0  T
   3    -47.1832179  0.273529E-05  0.113E-02    0.82       1.5  T
   4    -47.1832213 -0.345252E-05  0.419E-03    0.82       4.2  T
   5    -47.1832216 -0.304281E-06  0.116E-03    0.82      15.0  T
   6    -47.1832217 -0.283158E-07  0.206E-04    0.82      84.4  T
   7    -47.1832217 -0.648960E-09  0.103E-04    0.82     168.8  T
     SCC iter.                  ...        0 min,  0.064 sec
     gradient                   ...        0 min,  0.014 sec
 * total energy  :   -46.4049066 Eh     change       -0.4047047E-04 Eh
   gradient norm :     0.0033386 Eh/α   predicted     0.0000000E+00 (-100.00%)
   displ. norm   :     0.0436083 α      lambda       -0.4575116E-04
   maximum displ.:     0.0246445 α      in ANC's #6, #3, #2, ...

........................................................................
.............................. CYCLE   22 ..............................
........................................................................
   1    -47.1839219 -0.471839E+02  0.229E-02    0.82       0.0  T
   2    -47.1839228 -0.856164E-06  0.122E-02    0.81       1.4  T
   3    -47.1839222  0.563730E-06  0.846E-03    0.82       2.1  T
   4    -47.1839239 -0.162837E-05  0.237E-03    0.82       7.3  T
   5    -47.1839240 -0.875229E-07  0.830E-04    0.82      21.0  T
   6    -47.1839240 -0.910924E-08  0.205E-04    0.82      84.8  T
     SCC iter.                  ...        0 min,  0.045 sec
     gradient                   ...        0 min,  0.004 sec
 * total energy  :   -46.4049445 Eh     change       -0.3788295E-04 Eh
   gradient norm :     0.0016789 Eh/α   predicted    -0.2337534E-04 ( -38.30%)
   displ. norm   :     0.1889371 α      lambda       -0.8114272E-04
   maximum displ.:     0.1069881 α      in ANC's #6, #3, #2, ...

........................................................................
.............................. CYCLE   23 ..............................
........................................................................
   1    -47.1844347 -0.471844E+02  0.930E-02    0.82       0.0  T
   2    -47.1844498 -0.151287E-04  0.471E-02    0.81       1.0  T
   3    -47.1844395  0.103233E-04  0.323E-02    0.82       1.0  T
   4    -47.1844635 -0.240523E-04  0.956E-03    0.81       1.8  T
   5    -47.1844649 -0.137390E-05  0.321E-03    0.81       5.4  T
   6    -47.1844650 -0.126458E-06  0.725E-04    0.81      24.0  T
   7    -47.1844651 -0.131536E-07  0.231E-04    0.81      75.3  T
     SCC iter.                  ...        0 min,  0.021 sec
     gradient                   ...        0 min,  0.004 sec
 * total energy  :   -46.4050026 Eh     change       -0.5810756E-04 Eh
   gradient norm :     0.0041781 Eh/α   predicted    -0.4121701E-04 ( -29.07%)
   displ. norm   :     0.0473249 α      lambda       -0.2757641E-04
   maximum displ.:     0.0273564 α      in ANC's #3, #2, #6, ...

........................................................................
.............................. CYCLE   24 ..............................
........................................................................
   1    -47.1841720 -0.471842E+02  0.223E-02    0.81       0.0  T
   2    -47.1841727 -0.698483E-06  0.115E-02    0.81       1.5  T
   3    -47.1841722  0.571010E-06  0.660E-03    0.81       2.6  T
   4    -47.1841730 -0.856490E-06  0.217E-03    0.81       8.0  T
   5    -47.1841731 -0.766070E-07  0.692E-04    0.81      25.2  T
   6    -47.1841731 -0.875032E-08  0.162E-04    0.81     107.6  T
     SCC iter.                  ...        0 min,  0.018 sec
     gradient                   ...        0 min,  0.004 sec
 * total energy  :   -46.4050273 Eh     change       -0.2462748E-04 Eh
   gradient norm :     0.0029949 Eh/α   predicted    -0.1381983E-04 ( -43.88%)
   displ. norm   :     0.1632310 α      lambda       -0.7230712E-04
   maximum displ.:     0.0936921 α      in ANC's #3, #2, #1, ...

........................................................................
.............................. CYCLE   25 ..............................
........................................................................
   1    -47.1833831 -0.471834E+02  0.745E-02    0.81       0.0  T
   2    -47.1833899 -0.676503E-05  0.392E-02    0.80       1.0  T
   3    -47.1833835  0.637136E-05  0.209E-02    0.81       1.0  T
   4    -47.1833923 -0.874092E-05  0.697E-03    0.81       2.5  T
   5    -47.1833931 -0.845439E-06  0.212E-03    0.81       8.2  T
   6    -47.1833932 -0.861224E-07  0.503E-04    0.81      34.6  T
   7    -47.1833932 -0.808062E-08  0.158E-04    0.81     110.4  T
     SCC iter.                  ...        0 min,  0.021 sec
     gradient                   ...        0 min,  0.004 sec
 * total energy  :   -46.4050749 Eh     change       -0.4760771E-04 Eh
   gradient norm :     0.0011771 Eh/α   predicted    -0.3713853E-04 ( -21.99%)
   displ. norm   :     0.1704760 α      lambda       -0.2172406E-04
   maximum displ.:     0.1001448 α      in ANC's #3, #2, #1, ...

........................................................................
.............................. CYCLE   26 ..............................
........................................................................
   1    -47.1829395 -0.471829E+02  0.741E-02    0.80       0.0  T
   2    -47.1829441 -0.456356E-05  0.405E-02    0.80       1.0  T
   3    -47.1829371  0.701945E-05  0.192E-02    0.81       1.0  T
   4    -47.1829457 -0.858175E-05  0.618E-03    0.80       2.8  T
   5    -47.1829464 -0.732056E-06  0.173E-03    0.80      10.1  T
   6    -47.1829464 -0.567344E-07  0.403E-04    0.80      43.2  T
   7    -47.1829464 -0.481955E-08  0.144E-04    0.80     120.7  T
     SCC iter.                  ...        0 min,  0.021 sec
     gradient                   ...        0 min,  0.004 sec
 * total energy  :   -46.4050977 Eh     change       -0.2282915E-04 Eh
   gradient norm :     0.0023373 Eh/α   predicted    -0.1100638E-04 ( -51.79%)
   displ. norm   :     0.0816271 α      lambda       -0.1957484E-04
   maximum displ.:     0.0479236 α      in ANC's #3, #2, #1, ...

........................................................................
.............................. CYCLE   27 ..............................
........................................................................
   1    -47.1834009 -0.471834E+02  0.332E-02    0.80       0.0  T
   2    -47.1834011 -0.185776E-06  0.193E-02    0.80       1.0  T
   3    -47.1834008  0.247568E-06  0.325E-03    0.80       5.4  T
   4    -47.1834011 -0.288187E-06  0.118E-03    0.80      14.7  T
   5    -47.1834011 -0.217600E-07  0.339E-04    0.80      51.4  T
   6    -47.1834011 -0.350007E-08  0.105E-04    0.80     165.4  T
     SCC iter.                  ...        0 min,  0.018 sec
     gradient                   ...        0 min,  0.004 sec
 * total energy  :   -46.4051159 Eh     change       -0.1822568E-04 Eh
   gradient norm :     0.0019411 Eh/α   predicted    -0.9853818E-05 ( -45.93%)
   displ. norm   :     0.3048965 α      lambda       -0.5264975E-04
   maximum displ.:     0.1750906 α      in ANC's #3, #2, #1, ...

........................................................................
.............................. CYCLE   28 ..............................
........................................................................
   1    -47.1843603 -0.471844E+02  0.122E-01    0.80       0.0  T
   2    -47.1843622 -0.192621E-05  0.713E-02    0.80       1.0  T
   3    -47.1843546  0.761156E-05  0.163E-02    0.80       1.1  T
   4    -47.1843632 -0.866747E-05  0.219E-03    0.80       8.0  T
   5    -47.1843633 -0.108489E-06  0.103E-03    0.80      17.0  T
   6    -47.1843634 -0.817447E-08  0.474E-04    0.80      36.8  T
   7    -47.1843634 -0.321347E-08  0.125E-04    0.80     139.3  T
     SCC iter.                  ...        0 min,  0.021 sec
     gradient                   ...        0 min,  0.004 sec
 * total energy  :   -46.4051776 Eh     change       -0.6169366E-04 Eh
   gradient norm :     0.0017001 Eh/α   predicted    -0.2742454E-04 ( -55.55%)
   displ. norm   :     0.3744639 α      lambda       -0.4598680E-04
   maximum displ.:     0.2134179 α      in ANC's #3, #2, #1, ...

........................................................................
.............................. CYCLE   29 ..............................
........................................................................
   1    -47.1834550 -0.471835E+02  0.150E-01    0.80       0.0  T
   2    -47.1834593 -0.430648E-05  0.879E-02    0.81       1.0  T
   3    -47.1834311  0.282114E-04  0.302E-02    0.80       1.0  T
   4    -47.1834627 -0.316261E-04  0.365E-03    0.81       4.8  T
   5    -47.1834631 -0.431506E-06  0.120E-03    0.81      14.6  T
   6    -47.1834631 -0.729579E-08  0.645E-04    0.81      27.0  T
   7    -47.1834631 -0.401914E-08  0.154E-04    0.81     112.9  T
     SCC iter.                  ...        0 min,  0.021 sec
     gradient                   ...        0 min,  0.004 sec
 * total energy  :   -46.4052305 Eh     change       -0.5293481E-04 Eh
   gradient norm :     0.0024481 Eh/α   predicted    -0.2442707E-04 ( -53.85%)
   displ. norm   :     0.2330629 α      lambda       -0.3993967E-04
   maximum displ.:     0.1322464 α      in ANC's #2, #3, #1, ...

........................................................................
.............................. CYCLE   30 ..............................
........................................................................
   1    -47.1835665 -0.471836E+02  0.954E-02    0.81       0.0  T
   2    -47.1835695 -0.298795E-05  0.556E-02    0.81       1.0  T
   3    -47.1835504  0.191121E-04  0.262E-02    0.81       1.0  T
   4    -47.1835725 -0.220341E-04  0.360E-03    0.81       4.8  T
   5    -47.1835729 -0.423278E-06  0.106E-03    0.81      16.4  T
   6    -47.1835729 -0.965080E-08  0.454E-04    0.81      38.3  T
   7    -47.1835729 -0.312171E-08  0.153E-04    0.81     114.1  T
     SCC iter.                  ...        0 min,  0.021 sec
     gradient                   ...        0 min,  0.004 sec
 * total energy  :   -46.4052636 Eh     change       -0.3305280E-04 Eh
   gradient norm :     0.0020207 Eh/α   predicted    -0.2106138E-04 ( -36.28%)
   displ. norm   :     0.3151210 α      lambda       -0.4935154E-04
   maximum displ.:     0.1857177 α      in ANC's #2, #3, #1, ...

........................................................................
.............................. CYCLE   31 ..............................
........................................................................
   1    -47.1833331 -0.471833E+02  0.131E-01    0.81       0.0  T
   2    -47.1833394 -0.628701E-05  0.761E-02    0.82       1.0  T
   3    -47.1833022  0.371541E-04  0.373E-02    0.81       1.0  T
   4    -47.1833455 -0.432761E-04  0.535E-03    0.82       3.3  T
   5    -47.1833464 -0.920722E-06  0.161E-03    0.82      10.8  T
   6    -47.1833464 -0.232751E-07  0.650E-04    0.82      26.8  T
   7    -47.1833464 -0.712706E-08  0.212E-04    0.82      82.0  T
     SCC iter.                  ...        0 min,  0.021 sec
     gradient                   ...        0 min,  0.004 sec
 * total energy  :   -46.4053019 Eh     change       -0.3826119E-04 Eh
   gradient norm :     0.0017173 Eh/α   predicted    -0.2712638E-04 ( -29.10%)
   displ. norm   :     0.4205568 α      lambda       -0.4430551E-04
   maximum displ.:     0.2591814 α      in ANC's #2, #3, #1, ...

........................................................................
.............................. CYCLE   32 ..............................
........................................................................
   1    -47.1832429 -0.471832E+02  0.178E-01    0.82       0.0  T
   2    -47.1832570 -0.140708E-04  0.103E-01    0.83       1.0  T
   3    -47.1831867  0.703460E-04  0.532E-02    0.82       1.0  T
   4    -47.1832702 -0.835433E-04  0.827E-03    0.83       2.1  T
   5    -47.1832723 -0.211386E-05  0.257E-03    0.83       6.8  T
   6    -47.1832724 -0.668258E-07  0.957E-04    0.83      18.2  T
   7    -47.1832724 -0.178103E-07  0.295E-04    0.83      58.9  T
     SCC iter.                  ...        0 min,  0.021 sec
     gradient                   ...        0 min,  0.004 sec
 * total energy  :   -46.4053490 Eh     change       -0.4715704E-04 Eh
   gradient norm :     0.0024073 Eh/α   predicted    -0.2390196E-04 ( -49.31%)
   displ. norm   :     0.2079881 α      lambda       -0.4165245E-04
   maximum displ.:     0.1348299 α      in ANC's #2, #3, #1, ...

........................................................................
.............................. CYCLE   33 ..............................
........................................................................
   1    -47.1840684 -0.471841E+02  0.897E-02    0.83       0.0  T
   2    -47.1840718 -0.342920E-05  0.520E-02    0.83       1.0  T
   3    -47.1840550  0.168410E-04  0.260E-02    0.83       1.0  T
   4    -47.1840749 -0.199078E-04  0.403E-03    0.83       4.3  T
   5    -47.1840754 -0.494933E-06  0.129E-03    0.83      13.5  T
   6    -47.1840754 -0.183242E-07  0.481E-04    0.83      36.2  T
   7    -47.1840754 -0.452832E-08  0.147E-04    0.83     118.2  T
     SCC iter.                  ...        0 min,  0.021 sec
     gradient                   ...        0 min,  0.004 sec
 * total energy  :   -46.4053854 Eh     change       -0.3634596E-04 Eh
   gradient norm :     0.0022868 Eh/α   predicted    -0.2173031E-04 ( -40.21%)
   displ. norm   :     0.5943263 α      lambda       -0.9687977E-04
   maximum displ.:     0.3894188 α      in ANC's #2, #3, #1, ...

........................................................................
.............................. CYCLE   34 ..............................
........................................................................
   1    -47.1808151 -0.471808E+02  0.256E-01    0.84       0.0  T
   2    -47.1808356 -0.205593E-04  0.150E-01    0.84       1.0  T
   3    -47.1807166  0.119050E-03  0.652E-02    0.83       1.0  T
   4    -47.1808530 -0.136435E-03  0.900E-03    0.84       1.9  T
   5    -47.1808557 -0.265176E-05  0.290E-03    0.84       6.0  T
   6    -47.1808558 -0.806520E-07  0.126E-03    0.84      13.8  T
   7    -47.1808558 -0.258488E-07  0.386E-04    0.84      45.1  T
   8    -47.1808558 -0.220822E-09  0.134E-04    0.84     129.9  T
     SCC iter.                  ...        0 min,  0.024 sec
     gradient                   ...        0 min,  0.004 sec
 * total energy  :   -46.4054335 Eh     change       -0.4817447E-04 Eh
   gradient norm :     0.0047287 Eh/α   predicted    -0.6555245E-04 (  36.07%)
   displ. norm   :     0.1427724 α      lambda       -0.1167750E-03
   maximum displ.:     0.0961876 α      in ANC's #4, #2, #6, ...

........................................................................
.............................. CYCLE   35 ..............................
........................................................................
   1    -47.1853969 -0.471854E+02  0.585E-02    0.84       0.0  T
   2    -47.1853985 -0.165437E-05  0.336E-02    0.84       1.0  T
   3    -47.1853930  0.552118E-05  0.154E-02    0.84       1.1  T
   4    -47.1853995 -0.656135E-05  0.293E-03    0.84       5.9  T
   5    -47.1853998 -0.209805E-06  0.107E-03    0.84      16.3  T
   6    -47.1853998 -0.187974E-07  0.333E-04    0.84      52.3  T
   7    -47.1853998 -0.194931E-08  0.134E-04    0.84     130.0  T
     SCC iter.                  ...        0 min,  0.021 sec
     gradient                   ...        0 min,  0.004 sec
 * total energy  :   -46.4055007 Eh     change       -0.6713401E-04 Eh
   gradient norm :     0.0020176 Eh/α   predicted    -0.5958726E-04 ( -11.24%)
   displ. norm   :     0.3936258 α      lambda       -0.5120249E-04
   maximum displ.:     0.2682927 α      in ANC's #2, #3, #1, ...

........................................................................
.............................. CYCLE   36 ..............................
........................................................................
   1    -47.1841010 -0.471841E+02  0.173E-01    0.85       0.0  T
   2    -47.1841140 -0.130251E-04  0.100E-01    0.85       1.0  T
   3    -47.1840598  0.542503E-04  0.464E-02    0.84       1.0  T
   4    -47.1841234 -0.636087E-04  0.775E-03    0.85       2.2  T
   5    -47.1841252 -0.178104E-05  0.261E-03    0.85       6.7  T
   6    -47.1841253 -0.826775E-07  0.974E-04    0.85      17.9  T
   7    -47.1841253 -0.197235E-07  0.284E-04    0.85      61.4  T
     SCC iter.                  ...        0 min,  0.021 sec
     gradient                   ...        0 min,  0.004 sec
 * total energy  :   -46.4055336 Eh     change       -0.3291306E-04 Eh
   gradient norm :     0.0023524 Eh/α   predicted    -0.2957121E-04 ( -10.15%)
   displ. norm   :     0.1610912 α      lambda       -0.2446113E-04
   maximum displ.:     0.1141098 α      in ANC's #2, #3, #1, ...

........................................................................
.............................. CYCLE   37 ..............................
........................................................................
   1    -47.1847439 -0.471847E+02  0.729E-02    0.85       0.0  T
   2    -47.1847482 -0.430179E-05  0.414E-02    0.85       1.0  T
   3    -47.1847383  0.993628E-05  0.227E-02    0.85       1.0  T
   4    -47.1847511 -0.127964E-04  0.474E-03    0.85       3.7  T
   5    -47.1847517 -0.596267E-06  0.162E-03    0.85      10.7  T
   6    -47.1847517 -0.375916E-07  0.518E-04    0.85      33.6  T
   7    -47.1847517 -0.651223E-08  0.132E-04    0.85     131.7  T
     SCC iter.                  ...        0 min,  0.021 sec
     gradient                   ...        0 min,  0.004 sec
 * total energy  :   -46.4055511 Eh     change       -0.1755214E-04 Eh
   gradient norm :     0.0016585 Eh/α   predicted    -0.1254961E-04 ( -28.50%)
   displ. norm   :     0.2290199 α      lambda       -0.1870987E-04
   maximum displ.:     0.1667378 α      in ANC's #2, #3, #1, ...

........................................................................
.............................. CYCLE   38 ..............................
........................................................................
   1    -47.1858237 -0.471858E+02  0.108E-01    0.85       0.0  T
   2    -47.1858361 -0.124185E-04  0.602E-02    0.86       1.0  T
   3    -47.1858155  0.206379E-04  0.356E-02    0.85       1.0  T
   4    -47.1858447 -0.291912E-04  0.829E-03    0.86       2.1  T
   5    -47.1858463 -0.167727E-05  0.287E-03    0.86       6.1  T
   6    -47.1858465 -0.118144E-06  0.838E-04    0.86      20.8  T
   7    -47.1858465 -0.176632E-07  0.205E-04    0.86      85.1  T
     SCC iter.                  ...        0 min,  0.021 sec
     gradient                   ...        0 min,  0.004 sec
 * total energy  :   -46.4055648 Eh     change       -0.1370834E-04 Eh
   gradient norm :     0.0015127 Eh/α   predicted    -0.9574570E-05 ( -30.16%)
   displ. norm   :     0.1911408 α      lambda       -0.1038004E-04
   maximum displ.:     0.1386687 α      in ANC's #2, #3, #1, ...

........................................................................
.............................. CYCLE   39 ..............................
........................................................................
   1    -47.1848629 -0.471849E+02  0.906E-02    0.86       0.0  T
   2    -47.1848703 -0.738886E-05  0.508E-02    0.86       1.0  T
   3    -47.1848557  0.145877E-04  0.284E-02    0.86       1.0  T
   4    -47.1848750 -0.193232E-04  0.660E-03    0.86       2.6  T
   5    -47.1848761 -0.107096E-05  0.227E-03    0.86       7.7  T
   6    -47.1848761 -0.765920E-07  0.670E-04    0.86      26.0  T
   7    -47.1848762 -0.117016E-07  0.148E-04    0.86     117.9  T
     SCC iter.                  ...        0 min,  0.021 sec
     gradient                   ...        0 min,  0.004 sec
 * total energy  :   -46.4055675 Eh     change       -0.2629995E-05 Eh
   gradient norm :     0.0027121 Eh/α   predicted    -0.5278341E-05 ( 100.70%)
   displ. norm   :     0.0336691 α      lambda       -0.1149385E-04
   maximum displ.:     0.0159663 α      in ANC's #4, #3, #2, ...

........................................................................
.............................. CYCLE   40 ..............................
........................................................................
   1    -47.1857580 -0.471858E+02  0.148E-02    0.86       0.0  T
   2    -47.1857580 -0.653288E-07  0.868E-03    0.86       2.0  T
   3    -47.1857579  0.113469E-06  0.238E-03    0.86       7.3  T
   4    -47.1857581 -0.138727E-06  0.334E-04    0.86      52.1  T
   5    -47.1857581 -0.106917E-08  0.168E-04    0.86     103.8  T
     SCC iter.                  ...        0 min,  0.015 sec
     gradient                   ...        0 min,  0.004 sec
 * total energy  :   -46.4055736 Eh     change       -0.6168388E-05 Eh
   gradient norm :     0.0021337 Eh/α   predicted    -0.5757688E-05 (  -6.66%)
   displ. norm   :     0.0724231 α      lambda       -0.1419724E-04
   maximum displ.:     0.0510570 α      in ANC's #2, #3, #1, ...

........................................................................
.............................. CYCLE   41 ..............................
........................................................................
   1    -47.1850721 -0.471851E+02  0.339E-02    0.86       0.0  T
   2    -47.1850724 -0.267499E-06  0.199E-02    0.86       1.0  T
   3    -47.1850703  0.207040E-05  0.812E-03    0.86       2.1  T
   4    -47.1850727 -0.234588E-05  0.100E-03    0.86      17.3  T
   5    -47.1850727 -0.292424E-07  0.383E-04    0.86      45.5  T
   6    -47.1850727 -0.162305E-08  0.154E-04    0.86     113.0  T
     SCC iter.                  ...        0 min,  0.018 sec
     gradient                   ...        0 min,  0.004 sec
 * total energy  :   -46.4055777 Eh     change       -0.4046216E-05 Eh
   gradient norm :     0.0019776 Eh/α   predicted    -0.7136473E-05 (  76.37%)
   displ. norm   :     0.0307873 α      lambda       -0.8874676E-05
   maximum displ.:     0.0162441 α      in ANC's #4, #3, #1, ...

........................................................................
.............................. CYCLE   42 ..............................
........................................................................
   1    -47.1864997 -0.471865E+02  0.141E-02    0.86       0.0  T
   2    -47.1864998 -0.769807E-07  0.833E-03    0.86       2.1  T
   3    -47.1864997  0.128171E-06  0.229E-03    0.86       7.6  T
   4    -47.1864998 -0.153906E-06  0.376E-04    0.86      46.3  T
   5    -47.1864998 -0.185761E-08  0.172E-04    0.86     101.2  T
     SCC iter.                  ...        0 min,  0.015 sec
     gradient                   ...        0 min,  0.004 sec
 * total energy  :   -46.4055813 Eh     change       -0.3596629E-05 Eh
   gradient norm :     0.0014663 Eh/α   predicted    -0.4443869E-05 (  23.56%)
   displ. norm   :     0.1192754 α      lambda       -0.7877326E-05
   maximum displ.:     0.0898814 α      in ANC's #2, #3, #1, ...
 * RMSD in coord.:     0.7060720 α      energy gain  -0.7151197E-03 Eh

generating ANC from model Hessian ...
Using Lindh-Hessian (1995)
 Shifting diagonal of input Hessian by    9.5514264321066161E-003
 Lowest  eigenvalues of input Hessian
    0.000000    0.000000    0.000000    0.000000    0.000000    0.000000
    0.010000    0.010168    0.010714    0.011776    0.012420    0.013732
    0.016037    0.018891    0.022622    0.024259    0.024680    0.025608
 Highest eigenvalues
    1.901169    1.946357    1.969593    2.024502    2.075321    2.241445


........................................................................
.............................. CYCLE   43 ..............................
........................................................................
   1    -47.1858563 -0.471859E+02  0.554E-02    0.86       0.0  T
   2    -47.1858571 -0.851521E-06  0.323E-02    0.86       1.0  T
   3    -47.1858529  0.422013E-05  0.122E-02    0.86       1.4  T
   4    -47.1858577 -0.480543E-05  0.198E-03    0.86       8.8  T
   5    -47.1858578 -0.110110E-06  0.724E-04    0.86      24.0  T
   6    -47.1858578 -0.766929E-08  0.256E-04    0.86      68.0  T
     SCC iter.                  ...        0 min,  0.036 sec
     gradient                   ...        0 min,  0.006 sec
 * total energy  :   -46.4055882 Eh     change       -0.6917177E-05 Eh
   gradient norm :     0.0012678 Eh/α   predicted     0.0000000E+00 (-100.00%)
   displ. norm   :     0.0176627 α      lambda       -0.4262773E-05
   maximum displ.:     0.0104007 α      in ANC's #4, #2, #3, ...

........................................................................
.............................. CYCLE   44 ..............................
........................................................................
   1    -47.1861082 -0.471861E+02  0.124E-02    0.86       0.0  T
   2    -47.1861085 -0.276512E-06  0.646E-03    0.86       2.7  T
   3    -47.1861083  0.164498E-06  0.397E-03    0.86       4.4  T
   4    -47.1861086 -0.302210E-06  0.123E-03    0.86      14.2  T
   5    -47.1861087 -0.289531E-07  0.443E-04    0.86      39.3  T
   6    -47.1861087 -0.272110E-08  0.128E-04    0.86     135.6  T
     SCC iter.                  ...        0 min,  0.036 sec
     gradient                   ...        0 min,  0.004 sec
 * total energy  :   -46.4055920 Eh     change       -0.3805214E-05 Eh
   gradient norm :     0.0005115 Eh/α   predicted    -0.2179041E-05 ( -42.74%)
   displ. norm   :     0.0270943 α      lambda       -0.2710602E-05
   maximum displ.:     0.0174761 α      in ANC's #4, #2, #3, ...

   *** GEOMETRY OPTIMIZATION CONVERGED AFTER 44 ITERATIONS ***

------------------------------------------------------------------------
 total energy gain   :        -0.0134781 Eh       -8.4576 kcal/mol
 total RMSD          :         1.3221579 a0        0.6997 Å
 total power (kW/mol):        -0.8042444 (step)  -23.9199 (real)
------------------------------------------------------------------------

 ANCopt (total)                0 d,  0 h,  0 min,  1.479 sec
 optimizer setup                ...        0 min,  0.000 sec (  0.009%)
 model hessian                  ...        0 min,  0.039 sec (  2.613%)
 ANC generation                 ...        0 min,  0.054 sec (  3.654%)
 coordinate transformation      ...        0 min,  0.001 sec (  0.067%)
 single point calculation       ...        0 min,  1.363 sec ( 92.111%)
 optimization log               ...        0 min,  0.009 sec (  0.617%)
 hessian update                 ...        0 min,  0.001 sec (  0.093%)
 rational function              ...        0 min,  0.008 sec (  0.520%)

================
 final structure:
================
33
 xtb: 6.5.1 (fef0646)
N            3.05970127775964       -0.86268095844932       -3.49538317075535
C            2.50961266587626       -0.15862173500707       -2.30017160430362
C            3.11283732824058       -0.81931913078699       -1.05596981837249
C            4.61232654684012       -0.81350072493476       -1.19569376967247
C            5.36626364695650        0.27993114882410       -0.77720954282500
C            6.72188751560089        0.33281602925629       -1.00476367668855
C            5.26276295337695       -1.86562203418881       -1.85652526493980
C            6.62610692209567       -1.83629570125499       -2.06676920620549
C            7.38097177002418       -0.72471244475040       -1.66169144461556
N            8.73234098662465       -0.79078361371588       -1.71061156728705
N            9.45954932307192        0.14575604385569       -2.12177203829425
C           10.82050374992185        0.03636415389737       -1.93863473964334
C           11.44474863242454       -1.01280896169203       -1.24678725635127
C           12.81450383715641       -1.01562181919807       -1.10337870071458
C           13.57496868798807        0.01709983514638       -1.63931222153963
C           12.96391325192614        1.05845399564810       -2.32385994182338
C           11.59287432543261        1.07318621516180       -2.47699012879179
H            3.04491378043543       -0.28511157888827       -4.34024221110629
H            2.55030355752323       -1.73393244382184       -3.67642624039778
H            4.05561288309468       -1.11261495300161       -3.21764951851877
H            1.42129566225563       -0.20824542176202       -2.30261884703621
H            2.81980017916607        0.88591506353807       -2.34518941853577
H            2.73786269028611       -1.83887095950782       -0.95429629415457
H            2.80547799494271       -0.25909822766467       -0.17480942145517
H            4.87986293939011        1.09694212220196       -0.26537655175294
H            7.30791299485399        1.17265491111468       -0.66609397041396
H            4.71956538508241       -2.76871620149462       -2.11004963281506
H            7.12566278571430       -2.65939859680055       -2.55235903303504
H           10.83422509753280       -1.80330098088391       -0.83635058721481
H           13.29954595427733       -1.82002310641361       -0.57129922853873
H           14.64780078376143        0.00855580346786       -1.52080202551589
H           13.56195376399577        1.85649881094360       -2.73633709481702
H           11.09361012637650        1.87106546115703       -3.00455583187115

 Bond Distances (Angstroems)
 ---------------------------
N1-C2=1.4923         N1-H18=1.0235        N1-H19=1.0253        N1-H20=1.0637        C2-N1=1.4923         C2-C3=1.5325         
C2-H21=1.0895        C2-H22=1.0906        C3-C2=1.5325         C3-C4=1.5060         C3-H23=1.0911        C3-H24=1.0885        
C4-C3=1.5060         C4-C5=1.3925         C4-C7=1.4024         C5-C4=1.3925         C5-C6=1.3756         C5-H25=1.0798        
C6-C5=1.3756         C6-C9=1.4087         C6-H26=1.0786        C7-C4=1.4024         C7-C8=1.3798         C7-H27=1.0839        
C8-C7=1.3798         C8-C9=1.4034         C8-H28=1.0784        C9-C6=1.4087         C9-C8=1.4034         C9-N10=1.3539        
N10-C9=1.3539        N10-N11=1.2550       N11-N10=1.2550       N11-C12=1.3776       C12-N11=1.3776       C12-C13=1.4032       
C12-C17=1.4005       C13-C12=1.4032       C13-C14=1.3772       C13-H29=1.0798       C14-C13=1.3772       C14-C15=1.3900       
C14-H30=1.0796       C15-C14=1.3900       C15-C16=1.3880       C15-H31=1.0794       C16-C15=1.3880       C16-C17=1.3796       
C16-H32=1.0792       C17-C12=1.4005       C17-C16=1.3796       C17-H33=1.0790       H18-N1=1.0235        H19-N1=1.0253        
H20-N1=1.0637        H21-C2=1.0895        H22-C2=1.0906        H23-C3=1.0911        H24-C3=1.0885        H25-C5=1.0798        
H26-C6=1.0786        H27-C7=1.0839        H28-C8=1.0784        H29-C13=1.0798       H30-C14=1.0796       H31-C15=1.0794       
H32-C16=1.0792       H33-C17=1.0790       
 C  H  Rav=1.0829 sigma=0.0049  Rmin=1.0784  Rmax=1.0911    13
 C  C  Rav=1.4100 sigma=0.0461  Rmin=1.3756  Rmax=1.5325    14
 N  H  Rav=1.0375 sigma=0.0185  Rmin=1.0235  Rmax=1.0637     3
 N  C  Rav=1.4079 sigma=0.0604  Rmin=1.3539  Rmax=1.4923     3
 N  N  Rav=1.2550 sigma=0.0000  Rmin=1.2550  Rmax=1.2550     1

 selected bond angles (degree)
 --------------------
H18-N1-C2=112.93               H19-N1-C2=111.05               H19-N1-H18=109.06              H20-N1-C2=104.29               
H20-N1-H18=111.20              H20-N1-H19=108.16              C3-C2-N1=107.56                H21-C2-N1=110.18               
H21-C2-C3=112.05               H22-C2-N1=108.30               H22-C2-C3=109.54               H22-C2-H21=109.13              
C4-C3-C2=108.36                H23-C3-C2=110.08               H23-C3-C4=110.76               H24-C3-C2=108.92               
H24-C3-C4=110.75               H24-C3-H23=107.97              C5-C4-C3=120.95                C7-C4-C3=120.17                
C7-C4-C5=118.66                C6-C5-C4=120.93                H25-C5-C4=119.52               H25-C5-C6=119.55               
C9-C6-C5=120.62                H26-C6-C5=120.89               H26-C6-C9=118.47               C8-C7-C4=120.94                
H27-C7-C4=120.19               H27-C7-C8=118.51               C9-C8-C7=120.29                H28-C8-C7=120.67               
H28-C8-C9=119.04               C8-C9-C6=118.53                N10-C9-C6=121.37               N10-C9-C8=119.20               
N11-N10-C9=123.63              

 selected dihedral angles (degree)
 ---------------------------------
C3-C2-N1-H18=204.09           C3-C2-N1-H19= 81.22           C3-C2-N1-H20=324.95           H21-C2-N1-H18= 81.69          
H21-C2-N1-H19=318.82          H21-C2-N1-H20=202.55          H22-C2-N1-H18=322.40          H22-C2-N1-H19=199.53          
H22-C2-N1-H20= 83.26          C4-C3-C2-N1= 53.79            C4-C3-C2-H21=175.03           C4-C3-C2-H22=296.28           
H23-C3-C2-N1=292.53           H23-C3-C2-H21= 53.77          H23-C3-C2-H22=175.03          H24-C3-C2-N1=174.34           
H24-C3-C2-H21=295.58          H24-C3-C2-H22= 56.84          C5-C4-C3-C2= 86.95            C5-C4-C3-H23=207.78           
C5-C4-C3-H24=327.54           C7-C4-C3-C2=272.43            C7-C4-C3-H23= 33.27           C7-C4-C3-H24=153.03           
C6-C5-C4-C3=185.42            C6-C5-C4-C7=  0.00            H25-C5-C4-C3=  5.52           H25-C5-C4-C7=180.12           
C9-C6-C5-C4=359.64            C9-C6-C5-H25=179.54           H26-C6-C5-C4=181.01           H26-C6-C5-H25=  0.90          
C8-C7-C4-C3=175.93            C8-C7-C4-C5=  1.30            H27-C7-C4-C3=348.88           H27-C7-C4-C5=174.24           
C9-C8-C7-C4=357.75            C9-C8-C7-H27=184.68           H28-C8-C7-C4=178.38           H28-C8-C7-H27=  5.32          
C8-C9-C6-C5=359.43            C8-C9-C6-H26=178.10           N10-C9-C6-C5=190.44           N10-C9-C6-H26=  9.11          
C6-C9-C8-C7=  1.86            C6-C9-C8-H28=181.24           N10-C9-C8-C7=171.10           N10-C9-C8-H28=350.47          
N11-N10-C9-C6=306.67          N11-N10-C9-C8=137.75          
           -------------------------------------------------
          |                Final Singlepoint                |
           -------------------------------------------------

          ...................................................
          :                      SETUP                      :
          :.................................................:
          :  # basis functions                  84          :
          :  # atomic orbitals                  84          :
          :  # shells                           50          :
          :  # electrons                        86          :
          :  max. iterations                   250          :
          :  Hamiltonian                  GFN2-xTB          :
          :  restarted?                      false          :
          :  GBSA solvation                  false          :
          :  PC potential                    false          :
          :  electronic temp.          300.0000000     K    :
          :  accuracy                    1.0000000          :
          :  -> integral cutoff          0.2500000E+02      :
          :  -> integral neglect         0.1000000E-07      :
          :  -> SCF convergence          0.1000000E-05 Eh   :
          :  -> wf. convergence          0.1000000E-03 e    :
          :  Broyden damping             0.4000000          :
          ...................................................

 iter      E             dE          RMSdq      gap      omega  full diag
   1    -47.1861087 -0.471861E+02  0.314E-05    0.86       0.0  T
   2    -47.1861087 -0.198952E-11  0.190E-05    0.86     917.0  T
   3    -47.1861087 -0.142109E-12  0.128E-05    0.86    1355.4  T

   *** convergence criteria satisfied after 3 iterations ***

         #    Occupation            Energy/Eh            Energy/eV
      -------------------------------------------------------------
         1        2.0000           -0.8720451             -23.7296
       ...           ...                  ...                  ...
        37        2.0000           -0.5256005             -14.3023
        38        2.0000           -0.5238437             -14.2545
        39        2.0000           -0.5134953             -13.9729
        40        2.0000           -0.5069190             -13.7940
        41        2.0000           -0.4942203             -13.4484
        42        2.0000           -0.4885401             -13.2939
        43        2.0000           -0.4324951             -11.7688 (HOMO)
        44        0.0000           -0.4007939             -10.9062 (LUMO)
        45                         -0.3455208              -9.4021
        46                         -0.3295512              -8.9675
        47                         -0.3103753              -8.4457
        48                         -0.2879510              -7.8355
       ...                                ...                  ...
        84                          0.5785990              15.7445
      -------------------------------------------------------------
                  HL-Gap            0.0317012 Eh            0.8626 eV
             Fermi-level           -0.4166445 Eh          -11.3375 eV

 SCC (total)                   0 d,  0 h,  0 min,  0.015 sec
 SCC setup                      ...        0 min,  0.000 sec (  0.806%)
 Dispersion                     ...        0 min,  0.000 sec (  1.796%)
 classical contributions        ...        0 min,  0.000 sec (  0.212%)
 integral evaluation            ...        0 min,  0.001 sec (  8.034%)
 iterations                     ...        0 min,  0.009 sec ( 61.947%)
 molecular gradient             ...        0 min,  0.004 sec ( 24.666%)
 printout                       ...        0 min,  0.000 sec (  1.809%)

         :::::::::::::::::::::::::::::::::::::::::::::::::::::
         ::                     SUMMARY                     ::
         :::::::::::::::::::::::::::::::::::::::::::::::::::::
         :: total energy             -46.405592005524 Eh    ::
         :: gradient norm              0.000513382369 Eh/a0 ::
         :: HOMO-LUMO gap              0.862632864040 eV    ::
         ::.................................................::
         :: SCC energy               -47.186108656572 Eh    ::
         :: -> isotropic ES            0.099621937972 Eh    ::
         :: -> anisotropic ES         -0.014330081929 Eh    ::
         :: -> anisotropic XC          0.041432760682 Eh    ::
         :: -> dispersion             -0.029642684339 Eh    ::
         :: repulsion energy           0.780725527936 Eh    ::
         :: add. restraining           0.000000000000 Eh    ::
         :: total charge               1.000000000000 e     ::
         :::::::::::::::::::::::::::::::::::::::::::::::::::::

           -------------------------------------------------
          |                Property Printout                |
           -------------------------------------------------

    * Orbital Energies and Occupations

         #    Occupation            Energy/Eh            Energy/eV
      -------------------------------------------------------------
         1        2.0000           -0.8720451             -23.7296
       ...           ...                  ...                  ...
        31        2.0000           -0.5716441             -15.5552
        32        2.0000           -0.5690075             -15.4835
        33        2.0000           -0.5632155             -15.3259
        34        2.0000           -0.5598470             -15.2342
        35        2.0000           -0.5524282             -15.0323
        36        2.0000           -0.5371955             -14.6178
        37        2.0000           -0.5256005             -14.3023
        38        2.0000           -0.5238437             -14.2545
        39        2.0000           -0.5134953             -13.9729
        40        2.0000           -0.5069190             -13.7940
        41        2.0000           -0.4942203             -13.4484
        42        2.0000           -0.4885401             -13.2939
        43        2.0000           -0.4324951             -11.7688 (HOMO)
        44        0.0000           -0.4007939             -10.9062 (LUMO)
        45                         -0.3455208              -9.4021
        46                         -0.3295512              -8.9675
        47                         -0.3103753              -8.4457
        48                         -0.2879510              -7.8355
        49                         -0.2334802              -6.3533
        50                         -0.2124367              -5.7807
        51                         -0.1732916              -4.7155
        52                         -0.1324636              -3.6045
        53                         -0.0789569              -2.1485
        54                         -0.0711344              -1.9357
       ...                                ...                  ...
        84                          0.5785990              15.7445
      -------------------------------------------------------------
                  HL-Gap            0.0317012 Eh            0.8626 eV
             Fermi-level           -0.4166445 Eh          -11.3375 eV

     #   Z          covCN         q      C6AA      α(0)
     1   7 N        3.481    -0.147    24.165     7.301
     2   6 C        3.735    -0.029    21.174     6.567
     3   6 C        3.809    -0.090    22.204     6.708
     4   6 C        2.971    -0.021    28.537     8.763
     5   6 C        2.918    -0.039    28.963     8.825
     6   6 C        2.920    -0.038    28.951     8.823
     7   6 C        2.918    -0.068    29.695     8.936
     8   6 C        2.921    -0.045    29.126     8.850
     9   6 C        2.922     0.078    26.260     8.403
    10   7 N        1.946    -0.093    23.800     7.234
    11   7 N        1.930    -0.103    24.020     7.267
    12   6 C        2.942     0.074    26.354     8.420
    13   6 C        2.917    -0.026    28.653     8.778
    14   6 C        2.916    -0.022    28.555     8.763
    15   6 C        2.921    -0.012    28.303     8.724
    16   6 C        2.916    -0.022    28.565     8.764
    17   6 C        2.927    -0.024    28.604     8.771
    18   1 H        0.859     0.257     0.859     1.452
    19   1 H        0.859     0.259     0.849     1.444
    20   1 H        0.855     0.280     0.776     1.381
    21   1 H        0.925     0.099     1.797     2.096
    22   1 H        0.924     0.101     1.775     2.083
    23   1 H        0.924     0.067     2.118     2.276
    24   1 H        0.925     0.090     1.883     2.146
    25   1 H        0.926     0.047     2.362     2.403
    26   1 H        0.926     0.056     2.249     2.345
    27   1 H        0.925     0.031     2.566     2.505
    28   1 H        0.926     0.053     2.282     2.362
    29   1 H        0.926     0.059     2.213     2.327
    30   1 H        0.926     0.054     2.271     2.357
    31   1 H        0.926     0.058     2.219     2.330
    32   1 H        0.926     0.056     2.249     2.345
    33   1 H        0.926     0.062     2.170     2.304

 Mol. C6AA /au·bohr⁶  :      12023.650528
 Mol. C8AA /au·bohr⁸  :     289718.594978
 Mol. α(0) /au        :        174.052512


Wiberg/Mayer (AO) data.
largest (>0.10) Wiberg bond orders for each atom

 ---------------------------------------------------------------------------
     #   Z sym  total        # sym  WBO       # sym  WBO       # sym  WBO
 ---------------------------------------------------------------------------
     1   7 N    3.661 --     2 C    0.936    18 H    0.920    19 H    0.918
                            20 H    0.819
     2   6 C    3.897 --     3 C    0.991    22 H    0.969    21 H    0.969
                             1 N    0.936
     3   6 C    3.979 --     4 C    1.006     2 C    0.991    23 H    0.970
                            24 H    0.962
     4   6 C    3.971 --     5 C    1.384     7 C    1.346     3 C    1.006
     5   6 C    3.990 --     6 C    1.487     4 C    1.384    25 H    0.966
     6   6 C    3.981 --     5 C    1.487     9 C    1.282    26 H    0.968
     7   6 C    3.988 --     8 C    1.465     4 C    1.346    27 H    0.959
     8   6 C    3.978 --     7 C    1.465     9 C    1.309    28 H    0.968
     9   6 C    3.974 --     8 C    1.309     6 C    1.282    10 N    1.212
    10   7 N    3.248 --    11 N    1.670     9 C    1.212
    11   7 N    3.076 --    10 N    1.670    12 C    1.164
    12   6 C    3.975 --    17 C    1.326    13 C    1.317    11 N    1.164
    13   6 C    3.985 --    14 C    1.484    12 C    1.317    29 H    0.966
    14   6 C    3.990 --    13 C    1.484    15 C    1.409    30 H    0.968
    15   6 C    3.973 --    16 C    1.423    14 C    1.409    31 H    0.969
    16   6 C    3.990 --    17 C    1.470    15 C    1.423    32 H    0.968
    17   6 C    3.978 --    16 C    1.470    12 C    1.326    33 H    0.967
    18   1 H    0.934 --     1 N    0.920
    19   1 H    0.933 --     1 N    0.918
    20   1 H    0.921 --     1 N    0.819
    21   1 H    0.989 --     2 C    0.969
    22   1 H    0.990 --     2 C    0.969
    23   1 H    0.995 --     3 C    0.970
    24   1 H    0.991 --     3 C    0.962
    25   1 H    0.997 --     5 C    0.966
    26   1 H    0.997 --     6 C    0.968
    27   1 H    0.998 --     7 C    0.959
    28   1 H    0.997 --     8 C    0.968
    29   1 H    0.997 --    13 C    0.966
    30   1 H    0.997 --    14 C    0.968
    31   1 H    0.997 --    15 C    0.969
    32   1 H    0.996 --    16 C    0.968
    33   1 H    0.996 --    17 C    0.967
 ---------------------------------------------------------------------------

Topologies differ in total number of bonds
Writing topology from bond orders to xtbtopo.mol

molecular dipole:
                 x           y           z       tot (Debye)
 q only:        8.517      -1.121      -5.648
   full:        8.525      -1.252      -5.744      26.320
molecular quadrupole (traceless):
                xx          xy          yy          xz          yz          zz
 q only:      105.065      -7.326     -75.554     -61.918      10.949     -29.510
  q+dip:      108.019      -8.571     -74.721     -60.650      12.085     -33.298
   full:      105.531      -9.100     -76.234     -60.771      13.081     -29.297

           -------------------------------------------------
          |                Geometry Summary                 |
           -------------------------------------------------

      molecular mass/u    :      226.2974642
   center of mass at/Å    :        7.8847685      -0.4163474      -1.7948806
  moments of inertia/u·Å² :        0.2755037E+03   0.3202538E+04   0.3250339E+04
rotational constants/cm⁻¹ :        0.6118840E-01   0.5263836E-02   0.5186423E-02

 * 33 selected distances

     #   Z          #   Z                                           value/Å
     1   7 N        2   6 C                                       1.4922560
     2   6 C        3   6 C                                       1.5324619 (max)
     4   6 C        5   6 C                                       1.3925314
     5   6 C        6   6 C                                       1.3756068
     4   6 C        7   6 C                                       1.4023999
     7   6 C        8   6 C                                       1.3797716
     6   6 C        9   6 C                                       1.4086564
     8   6 C        9   6 C                                       1.4033982
     9   6 C       10   7 N                                       1.3538677
    10   7 N       11   7 N                                       1.2549867
    11   7 N       12   6 C                                       1.3775715
    12   6 C       13   6 C                                       1.4032460
    13   6 C       14   6 C                                       1.3772449
    14   6 C       15   6 C                                       1.3899805
    15   6 C       16   6 C                                       1.3879529
    12   6 C       17   6 C                                       1.4004939
    16   6 C       17   6 C                                       1.3796427
     1   7 N       18   1 H                                       1.0235194 (min)
     1   7 N       19   1 H                                       1.0253497
     1   7 N       20   1 H                                       1.0636932
     2   6 C       21   1 H                                       1.0894506
     2   6 C       22   1 H                                       1.0905504
     3   6 C       23   1 H                                       1.0910681
     3   6 C       24   1 H                                       1.0884673
     5   6 C       25   1 H                                       1.0798453
     6   6 C       26   1 H                                       1.0786346
     7   6 C       27   1 H                                       1.0839361
     8   6 C       28   1 H                                       1.0783562
    13   6 C       29   1 H                                       1.0798496
    14   6 C       30   1 H                                       1.0795536
    15   6 C       31   1 H                                       1.0793918
    16   6 C       32   1 H                                       1.0791967
    17   6 C       33   1 H                                       1.0789818

 * 5 distinct bonds (by element types)

   Z      Z             #   av. dist./Å        max./Å        min./Å
   1 H    6 C          13     1.0828679     1.0910681     1.0783562
   6 C    6 C          13     1.4025683     1.5324619     1.3756068
   1 H    7 N           3     1.0375208     1.0636932     1.0235194
   6 C    7 N           3     1.4078984     1.4922560     1.3538677
   7 N    7 N           1     1.2549867     1.2549867     1.2549867


optimized geometry written to: xtbopt.xyz


           -------------------------------------------------
          | TOTAL ENERGY              -46.405592005524 Eh   |
          | GRADIENT NORM               0.000513382369 Eh/α |
          | HOMO-LUMO GAP               0.862632864040 eV   |
           -------------------------------------------------

------------------------------------------------------------------------
 * finished run on 2023/01/23 at 19:03:11.942     
------------------------------------------------------------------------
 total:
 * wall-time:     0 d,  0 h,  0 min,  1.633 sec
 *  cpu-time:     0 d,  0 h,  2 min, 47.146 sec
 * ratio c/w:   102.379 speedup
 SCF:
 * wall-time:     0 d,  0 h,  0 min,  0.096 sec
 *  cpu-time:     0 d,  0 h,  0 min, 12.031 sec
 * ratio c/w:   125.967 speedup
 ANC optimizer:
 * wall-time:     0 d,  0 h,  0 min,  1.496 sec
 *  cpu-time:     0 d,  0 h,  2 min, 30.041 sec
 * ratio c/w:   100.262 speedup

