19
 energy: -27.535820151493 gnorm: 0.000337119198 xtb: 6.5.1 (fef0646)
N            3.12606941518664       -0.85745294716996       -0.50995319990774
C            2.32488019092875        0.30135211986599       -0.09237165084280
C            2.81305709833551        0.82121462252266        1.23384361583721
C            3.44159759783703        2.05592202182654        1.31978998289739
C            3.90581691409941        2.52553934079351        2.53671080417160
C            3.75091696359074        1.75942303593847        3.67842330132780
C            3.12904039180410        0.52403545143289        3.59876767376679
C            2.66058816565633        0.05656878837612        2.38445294584364
Cl           2.44854599581004       -3.32506299012899        0.91576513707220
H            2.91769307826734       -1.11183944631957       -1.46975638999969
H            2.77968622652879       -2.14178325902954        0.29546574982482
H            4.11712044698334       -0.65231035575066       -0.43262003858316
H            1.28901865823278       -0.03856934314929       -0.00478634611982
H            2.36215548923992        1.10930336430392       -0.83589467521166
H            3.56497188885761        2.65939097794909        0.43076538415541
H            4.38947799029596        3.49000461443339        2.59111043234949
H            4.11362152427374        2.12430970890844        4.62800679259491
H            3.00710633280061       -0.07711997910577        4.48732380163035
H            2.17869563128081       -0.90611572569960        2.32163667919275
